                               Psi4 1.3.2 release

  ==> Input File <==

--------------------------------------------------------------------------
#psi4
#
memory 32 gb

molecule  {
0 1
  O       -1.2482290     1.5306510     0.0000030
  N        1.4640540     0.4968240    -0.0000070
  N        0.6052228    -1.7161908     0.0000098
  N       -1.9984820    -0.6503890    -0.0000010
  C        0.3259400    -0.2627350     0.0000100
  C        2.5213300    -0.3786110    -0.0000100
  C        1.5711040     1.9546380     0.0000020
  C       -1.0383320     0.3066720     0.0000020
  C        1.9690460    -1.6456460     0.0000000
  C       -3.4103270    -0.3314980    -0.0000060
  H        3.5447240    -0.0301030    -0.0000120
  H        1.0842430     2.3633630    -0.8839110
  H        1.0842880     2.3633490     0.8839480
  H        2.6322840     2.2067670    -0.0000220
  H        2.4866360    -2.5959740    -0.0000050
  H       -1.6732310    -1.6118380    -0.0000010
  H       -3.9026090    -0.7325290     0.8908020
  H       -3.9026030    -0.7325320    -0.8908160
  H       -3.4966990     0.7550430    -0.0000090
units angstrom
no_reorient  #important for SAPT in psi4, default
symmetry c1  #important for SAPT in psi4, default
}

set PROPERTIES_ORIGIN ["COM"]
properties('MP2/aug-cc-pvtz', properties = ['dipole'])
--------------------------------------------------------------------------

    Molecular point group: c1
  Charge       = 0
  Multiplicity = 1
  Basis Set: AUG-CC-PVTZ
    Blend: AUG-CC-PVTZ
  Basis Set: (AUG-CC-PVTZ AUX)
    Blend: AUG-CC-PVTZ-JKFIT

    Orbital Energies [Eh]
    ---------------------

    Doubly Occupied:

       1A    -20.522148     2A    -15.654973     3A    -15.584797
       4A    -15.582896     5A    -11.363101     6A    -11.318580
       7A    -11.281564     8A    -11.270950     9A    -11.260118
      10A    -11.258206    11A     -1.379950    12A     -1.338693
      13A     -1.233521    14A     -1.180138    15A     -1.028683
      16A     -0.989935    17A     -0.949625    18A     -0.842501
      19A     -0.803559    20A     -0.773283    21A     -0.737387
      22A     -0.656911    23A     -0.656720    24A     -0.645058
      25A     -0.619687    26A     -0.603371    27A     -0.595289
      28A     -0.581860    29A     -0.556517    30A     -0.555469
      31A     -0.544786    32A     -0.529691    33A     -0.465617
      34A     -0.435200    35A     -0.399488    36A     -0.390645
      37A     -0.314185

  @DF-RHF Final Energy:  -470.80678257988660

   => Energetics <=

    Nuclear Repulsion Energy =            523.4176213648017892
    One-Electron Energy =               -1678.6386069221271100
    Two-Electron Energy =                 684.4142029774386629
    Total Energy =                       -470.8067825798866579
  Basis Set: (AUG-CC-PVTZ AUX)
    Blend: AUG-CC-PVTZ-RI
    Molecular point group: c1

    Geometry (in Angstrom), charge = 0, multiplicity = 1:

       Center              X                  Y                   Z               Mass
    ------------   -----------------  -----------------  -----------------  -----------------
         O           -1.263554770058     1.559303068097     0.000002834716    15.994914619570
         N            1.448728229942     0.525476068097    -0.000007165284    14.003074004430
         N            0.589897029942    -1.687538731903     0.000009634716    14.003074004430
         N           -2.013807770058    -0.621736931903    -0.000001165284    14.003074004430
         C            0.310614229942    -0.234082931903     0.000009834716    12.000000000000
         C            2.506004229942    -0.349958931903    -0.000010165284    12.000000000000
         C            1.555778229942     1.983290068097     0.000001834716    12.000000000000
         C           -1.053657770058     0.335324068097     0.000001834716    12.000000000000
         C            1.953720229942    -1.616993931903    -0.000000165284    12.000000000000
         C           -3.425652770058    -0.302845931903    -0.000006165284    12.000000000000
         H            3.529398229942    -0.001450931903    -0.000012165284     1.007825032230
         H            1.068917229942     2.392015068097    -0.883911165284     1.007825032230
         H            1.068962229942     2.392001068097     0.883947834716     1.007825032230
         H            2.616958229942     2.235419068097    -0.000022165284     1.007825032230
         H            2.471310229942    -2.567321931903    -0.000005165284     1.007825032230
         H           -1.688556770058    -1.583185931903    -0.000001165284     1.007825032230
         H           -3.917934770058    -0.703876931903     0.890801834716     1.007825032230
         H           -3.917928770058    -0.703879931903    -0.890816165284     1.007825032230
         H           -3.512024770058     0.783695068097    -0.000009165284     1.007825032230

  Basis Set: AUG-CC-PVTZ
    Blend: AUG-CC-PVTZ
  Basis Set: (AUG-CC-PVTZ AUX)
    Blend: AUG-CC-PVTZ-JKFIT
	 Reference Energy          =    -470.8067825798866011 [Eh]
	 Singles Energy            =      -0.0000000000000000 [Eh]
	 Same-Spin Energy          =      -0.5027568479256059 [Eh]
	 Opposite-Spin Energy      =      -1.5448373681252530 [Eh]
	 Correlation Energy        =      -2.0475942160508591 [Eh]
	 Total Energy              =    -472.8543767959374691 [Eh]

	 ================> DF-SCS-MP2 Energies <==================
	-----------------------------------------------------------
	 SCS Same-Spin Scale       =       0.3333333333333333 [-]
	 SCS Opposite-Spin Scale   =       1.2000000000000000 [-]
	 SCS Same-Spin Energy      =      -0.1675856159752020 [Eh]
	 SCS Opposite-Spin Energy  =      -1.8538048417503035 [Eh]
	 SCS Correlation Energy    =      -2.0213904577255053 [Eh]
	 SCS Total Energy          =    -472.8281730376120890 [Eh]
	-----------------------------------------------------------

  Dipole Moment: [D]
     X:     1.5499      Y:     0.3171      Z:    -0.0000     Total:     1.5820

*** Psi4 exiting successfully. Buy a developer a beer!
