                               Psi4 1.3.2 release

  ==> Input File <==

--------------------------------------------------------------------------
#psi4
#
memory 32 gb

molecule  {
0 1
  O       -1.2482290     1.5306510     0.0000030
  N        1.4640540     0.4968240    -0.0000070
  N        0.6036240    -1.6208835     0.0000102
  N       -1.9984820    -0.6503890    -0.0000010
  C        0.3259400    -0.2627350     0.0000100
  C        2.5213300    -0.3786110    -0.0000100
  C        1.5711040     1.9546380     0.0000020
  C       -1.0383320     0.3066720     0.0000020
  C        1.9690460    -1.6456460     0.0000000
  C       -3.4103270    -0.3314980    -0.0000060
  H        3.5447240    -0.0301030    -0.0000120
  H        1.0842430     2.3633630    -0.8839110
  H        1.0842880     2.3633490     0.8839480
  H        2.6322840     2.2067670    -0.0000220
  H        2.4866360    -2.5959740    -0.0000050
  H       -1.6732310    -1.6118380    -0.0000010
  H       -3.9026090    -0.7325290     0.8908020
  H       -3.9026030    -0.7325320    -0.8908160
  H       -3.4966990     0.7550430    -0.0000090
units angstrom
no_reorient  #important for SAPT in psi4, default
symmetry c1  #important for SAPT in psi4, default
}

set PROPERTIES_ORIGIN ["COM"]
properties('MP2/aug-cc-pvtz', properties = ['dipole'])
--------------------------------------------------------------------------

    Molecular point group: c1
  Charge       = 0
  Multiplicity = 1
  Basis Set: AUG-CC-PVTZ
    Blend: AUG-CC-PVTZ
  Basis Set: (AUG-CC-PVTZ AUX)
    Blend: AUG-CC-PVTZ-JKFIT

    Orbital Energies [Eh]
    ---------------------

    Doubly Occupied:

       1A    -20.522235     2A    -15.643771     3A    -15.584742
       4A    -15.571728     5A    -11.362548     6A    -11.310020
       7A    -11.277255     8A    -11.272051     9A    -11.258248
      10A    -11.256837    11A     -1.380837    12A     -1.343006
      13A     -1.234203    14A     -1.187180    15A     -1.033228
      16A     -0.982943    17A     -0.950170    18A     -0.841245
      19A     -0.810606    20A     -0.773192    21A     -0.735686
      22A     -0.658299    23A     -0.656203    24A     -0.645531
      25A     -0.619329    26A     -0.602876    27A     -0.596303
      28A     -0.582950    29A     -0.562281    30A     -0.558726
      31A     -0.545563    32A     -0.529839    33A     -0.460147
      34A     -0.435657    35A     -0.398964    36A     -0.389310
      37A     -0.320281

  @DF-RHF Final Energy:  -470.82898298417450

   => Energetics <=

    Nuclear Repulsion Energy =            525.8570019845782326
    One-Electron Energy =               -1683.5839970181011722
    Two-Electron Energy =                 686.8980120493484947
    Total Energy =                       -470.8289829841745586
  Basis Set: (AUG-CC-PVTZ AUX)
    Blend: AUG-CC-PVTZ-RI
    Molecular point group: c1

    Geometry (in Angstrom), charge = 0, multiplicity = 1:

       Center              X                  Y                   Z               Mass
    ------------   -----------------  -----------------  -----------------  -----------------
         O           -1.263393790837     1.549706811552     0.000002794441    15.994914619570
         N            1.448889209163     0.515879811552    -0.000007205559    14.003074004430
         N            0.588459209163    -1.601827688448     0.000009994441    14.003074004430
         N           -2.013646790837    -0.631333188448    -0.000001205559    14.003074004430
         C            0.310775209163    -0.243679188448     0.000009794441    12.000000000000
         C            2.506165209163    -0.359555188448    -0.000010205559    12.000000000000
         C            1.555939209163     1.973693811552     0.000001794441    12.000000000000
         C           -1.053496790837     0.325727811552     0.000001794441    12.000000000000
         C            1.953881209163    -1.626590188448    -0.000000205559    12.000000000000
         C           -3.425491790837    -0.312442188448    -0.000006205559    12.000000000000
         H            3.529559209163    -0.011047188448    -0.000012205559     1.007825032230
         H            1.069078209163     2.382418811552    -0.883911205559     1.007825032230
         H            1.069123209163     2.382404811552     0.883947794441     1.007825032230
         H            2.617119209163     2.225822811552    -0.000022205559     1.007825032230
         H            2.471471209163    -2.576918188448    -0.000005205559     1.007825032230
         H           -1.688395790837    -1.592782188448    -0.000001205559     1.007825032230
         H           -3.917773790837    -0.713473188448     0.890801794441     1.007825032230
         H           -3.917767790837    -0.713476188448    -0.890816205559     1.007825032230
         H           -3.511863790837     0.774098811552    -0.000009205559     1.007825032230

  Basis Set: AUG-CC-PVTZ
    Blend: AUG-CC-PVTZ
  Basis Set: (AUG-CC-PVTZ AUX)
    Blend: AUG-CC-PVTZ-JKFIT
	 Reference Energy          =    -470.8289829841745018 [Eh]
	 Singles Energy            =      -0.0000000000000000 [Eh]
	 Same-Spin Energy          =      -0.5004214993739022 [Eh]
	 Opposite-Spin Energy      =      -1.5394807816318528 [Eh]
	 Correlation Energy        =      -2.0399022810057552 [Eh]
	 Total Energy              =    -472.8688852651802677 [Eh]

	 ================> DF-SCS-MP2 Energies <==================
	-----------------------------------------------------------
	 SCS Same-Spin Scale       =       0.3333333333333333 [-]
	 SCS Opposite-Spin Scale   =       1.2000000000000000 [-]
	 SCS Same-Spin Energy      =      -0.1668071664579674 [Eh]
	 SCS Opposite-Spin Energy  =      -1.8473769379582232 [Eh]
	 SCS Correlation Energy    =      -2.0141841044161906 [Eh]
	 SCS Total Energy          =    -472.8431670885906897 [Eh]
	-----------------------------------------------------------

  Dipole Moment: [D]
     X:     1.4547      Y:     0.1275      Z:    -0.0000     Total:     1.4603

*** Psi4 exiting successfully. Buy a developer a beer!
