                               Psi4 1.4a3.dev225

  ==> Input File <==

--------------------------------------------------------------------------
#psi4
#
memory 32 gb

molecule  {
0 1
  O       -1.2482290     1.5306510     0.0000030
  N        1.4640540     0.4968240    -0.0000070
  N        0.6053200    -1.5732460     0.0000100
  N       -1.9984820    -0.6503890    -0.0000010
  C        0.3259400    -0.2627350     0.0000100
  C        2.5059253    -0.3658558    -0.0000100
  C        1.5711040     1.9546380     0.0000020
  C       -1.0383320     0.3066720     0.0000020
  C        1.9690460    -1.6456460     0.0000000
  C       -3.4103270    -0.3314980    -0.0000060
  H        3.5447240    -0.0301030    -0.0000120
  H        1.0842430     2.3633630    -0.8839110
  H        1.0842880     2.3633490     0.8839480
  H        2.6322840     2.2067670    -0.0000220
  H        2.4866360    -2.5959740    -0.0000050
  H       -1.6732310    -1.6118380    -0.0000010
  H       -3.9026090    -0.7325290     0.8908020
  H       -3.9026030    -0.7325320    -0.8908160
  H       -3.4966990     0.7550430    -0.0000090
units angstrom
no_reorient  #important for SAPT in psi4, default
symmetry c1  #important for SAPT in psi4, default
}

set PROPERTIES_ORIGIN ["COM"]
properties('MP2/aug-cc-pvtz', properties = ['dipole'])
--------------------------------------------------------------------------

    Molecular point group: c1
  Charge       = 0
  Multiplicity = 1
  Basis Set: AUG-CC-PVTZ
    Blend: AUG-CC-PVTZ
  Basis Set: (AUG-CC-PVTZ AUX)
    Blend: AUG-CC-PVTZ-JKFIT

    Orbital Energies [Eh]
    ---------------------

    Doubly Occupied:

       1A    -20.521476     2A    -15.639087     3A    -15.584063
       4A    -15.566211     5A    -11.361461     6A    -11.303086
       7A    -11.275919     8A    -11.273059     9A    -11.257879
      10A    -11.254742    11A     -1.382009    12A     -1.349888
      13A     -1.234269    14A     -1.192642    15A     -1.035527
      16A     -0.980900    17A     -0.949916    18A     -0.840589
      19A     -0.814953    20A     -0.772409    21A     -0.735978
      22A     -0.660165    23A     -0.658299    24A     -0.644794
      25A     -0.619010    26A     -0.605577    27A     -0.593594
      28A     -0.582750    29A     -0.566236    30A     -0.560755
      31A     -0.545198    32A     -0.530153    33A     -0.457574
      34A     -0.433283    35A     -0.400789    36A     -0.389019
      37A     -0.320904

  @DF-RHF Final Energy:  -470.83509979827437

   => Energetics <=

    Nuclear Repulsion Energy =            527.5232069816470357
    One-Electron Energy =               -1686.9282890394965762
    Two-Electron Energy =                 688.5699822595752266
    Total Energy =                       -470.8350997982743138
  Basis Set: (AUG-CC-PVTZ AUX)
    Blend: AUG-CC-PVTZ-RI
    Molecular point group: c1

    Geometry (in Angstrom), charge = 0, multiplicity = 1:

       Center              X                  Y                   Z               Mass
    ------------   -----------------  -----------------  -----------------  -----------------
         O           -1.262235367727     1.543809731407     0.000002814578    15.994914619570
         N            1.450047632273     0.509982731407    -0.000007185422    14.003074004430
         N            0.591313632273    -1.560087268593     0.000009814578    14.003074004430
         N           -2.012488367727    -0.637230268593    -0.000001185422    14.003074004430
         C            0.311933632273    -0.249576268593     0.000009814578    12.000000000000
         C            2.491918932273    -0.352697068593    -0.000010185422    12.000000000000
         C            1.557097632273     1.967796731407     0.000001814578    12.000000000000
         C           -1.052338367727     0.319830731407     0.000001814578    12.000000000000
         C            1.955039632273    -1.632487268593    -0.000000185422    12.000000000000
         C           -3.424333367727    -0.318339268593    -0.000006185422    12.000000000000
         H            3.530717632273    -0.016944268593    -0.000012185422     1.007825032230
         H            1.070236632273     2.376521731407    -0.883911185422     1.007825032230
         H            1.070281632273     2.376507731407     0.883947814578     1.007825032230
         H            2.618277632273     2.219925731407    -0.000022185422     1.007825032230
         H            2.472629632273    -2.582815268593    -0.000005185422     1.007825032230
         H           -1.687237367727    -1.598679268593    -0.000001185422     1.007825032230
         H           -3.916615367727    -0.719370268593     0.890801814578     1.007825032230
         H           -3.916609367727    -0.719373268593    -0.890816185422     1.007825032230
         H           -3.510705367727     0.768201731407    -0.000009185422     1.007825032230

  Basis Set: AUG-CC-PVTZ
    Blend: AUG-CC-PVTZ
  Basis Set: (AUG-CC-PVTZ AUX)
    Blend: AUG-CC-PVTZ-JKFIT
	 Reference Energy          =    -470.8350997982743706 [Eh]
	 Singles Energy            =      -0.0000000000000000 [Eh]
	 Same-Spin Energy          =      -0.4994422554592330 [Eh]
	 Opposite-Spin Energy      =      -1.5368841783533818 [Eh]
	 Correlation Energy        =      -2.0363264338126146 [Eh]
	 Total Energy              =    -472.8714262320870034 [Eh]

	 ================> DF-SCS-MP2 Energies <==================
	-----------------------------------------------------------
	 SCS Same-Spin Scale       =       0.3333333333333333 [-]
	 SCS Opposite-Spin Scale   =       1.2000000000000000 [-]
	 SCS Same-Spin Energy      =      -0.1664807518197443 [Eh]
	 SCS Opposite-Spin Energy  =      -1.8442610140240581 [Eh]
	 SCS Correlation Energy    =      -2.0107417658438025 [Eh]
	 SCS Total Energy          =    -472.8458415641181887 [Eh]
	-----------------------------------------------------------

  Dipole Moment: [D]
     X:     1.4165      Y:     0.0350      Z:    -0.0000     Total:     1.4169

*** Psi4 exiting successfully. Buy a developer a beer!
