                               Psi4 1.3.2 release

  ==> Input File <==

--------------------------------------------------------------------------
#psi4
#
memory 32 gb

molecule  {
0 1
  O       -1.2482290     1.5306510     0.0000030
  N        1.4640540     0.4968240    -0.0000070
  N        0.6053200    -1.5732460     0.0000100
  N       -1.9984820    -0.6503890    -0.0000010
  C        0.2803740    -0.2732835     0.0000104
  C        2.5213300    -0.3786110    -0.0000100
  C        1.5711040     1.9546380     0.0000020
  C       -1.0383320     0.3066720     0.0000020
  C        1.9690460    -1.6456460     0.0000000
  C       -3.4103270    -0.3314980    -0.0000060
  H        3.5447240    -0.0301030    -0.0000120
  H        1.0842430     2.3633630    -0.8839110
  H        1.0842880     2.3633490     0.8839480
  H        2.6322840     2.2067670    -0.0000220
  H        2.4866360    -2.5959740    -0.0000050
  H       -1.6732310    -1.6118380    -0.0000010
  H       -3.9026090    -0.7325290     0.8908020
  H       -3.9026030    -0.7325320    -0.8908160
  H       -3.4966990     0.7550430    -0.0000090
units angstrom
no_reorient  #important for SAPT in psi4, default
symmetry c1  #important for SAPT in psi4, default
}

set PROPERTIES_ORIGIN ["COM"]
properties('MP2/aug-cc-pvtz', properties = ['dipole'])
--------------------------------------------------------------------------

    Molecular point group: c1
  Charge       = 0
  Multiplicity = 1
  Basis Set: AUG-CC-PVTZ
    Blend: AUG-CC-PVTZ
  Basis Set: (AUG-CC-PVTZ AUX)
    Blend: AUG-CC-PVTZ-JKFIT

    Orbital Energies [Eh]
    ---------------------

    Doubly Occupied:

       1A    -20.521934     2A    -15.636985     3A    -15.583876
       4A    -15.570107     5A    -11.359915     6A    -11.305503
       7A    -11.277193     8A    -11.272440     9A    -11.257759
      10A    -11.255904    11A     -1.380967    12A     -1.338115
      13A     -1.235276    14A     -1.188174    15A     -1.040219
      16A     -0.978356    17A     -0.947139    18A     -0.848195
      19A     -0.810606    20A     -0.773178    21A     -0.732653
      22A     -0.662115    23A     -0.652388    24A     -0.646736
      25A     -0.618538    26A     -0.605399    27A     -0.595431
      28A     -0.582801    29A     -0.562822    30A     -0.559407
      31A     -0.545368    32A     -0.528825    33A     -0.456276
      34A     -0.435147    35A     -0.399047    36A     -0.388352
      37A     -0.322398

  @DF-RHF Final Energy:  -470.82950660630740

   => Energetics <=

    Nuclear Repulsion Energy =            526.9352025102152766
    One-Electron Energy =               -1685.7783269295687205
    Two-Electron Energy =                 688.0136178130460394
    Total Energy =                       -470.8295066063074046
  Basis Set: (AUG-CC-PVTZ AUX)
    Blend: AUG-CC-PVTZ-RI
    Molecular point group: c1

    Geometry (in Angstrom), charge = 0, multiplicity = 1:

       Center              X                  Y                   Z               Mass
    ------------   -----------------  -----------------  -----------------  -----------------
         O           -1.259632910491     1.545820483022     0.000002780064    15.994914619570
         N            1.452650089509     0.511993483022    -0.000007219936    14.003074004430
         N            0.593916089509    -1.558076516978     0.000009780064    14.003074004430
         N           -2.009885910491    -0.635219516978    -0.000001219936    14.003074004430
         C            0.268970089509    -0.258114016978     0.000010180064    12.000000000000
         C            2.509926089509    -0.363441516978    -0.000010219936    12.000000000000
         C            1.559700089509     1.969807483022     0.000001780064    12.000000000000
         C           -1.049735910491     0.321841483022     0.000001780064    12.000000000000
         C            1.957642089509    -1.630476516978    -0.000000219936    12.000000000000
         C           -3.421730910491    -0.316328516978    -0.000006219936    12.000000000000
         H            3.533320089509    -0.014933516978    -0.000012219936     1.007825032230
         H            1.072839089509     2.378532483022    -0.883911219936     1.007825032230
         H            1.072884089509     2.378518483022     0.883947780064     1.007825032230
         H            2.620880089509     2.221936483022    -0.000022219936     1.007825032230
         H            2.475232089509    -2.580804516978    -0.000005219936     1.007825032230
         H           -1.684634910491    -1.596668516978    -0.000001219936     1.007825032230
         H           -3.914012910491    -0.717359516978     0.890801780064     1.007825032230
         H           -3.914006910491    -0.717362516978    -0.890816219936     1.007825032230
         H           -3.508102910491     0.770212483022    -0.000009219936     1.007825032230

  Basis Set: AUG-CC-PVTZ
    Blend: AUG-CC-PVTZ
  Basis Set: (AUG-CC-PVTZ AUX)
    Blend: AUG-CC-PVTZ-JKFIT
	 Reference Energy          =    -470.8295066063074046 [Eh]
	 Singles Energy            =      -0.0000000000000000 [Eh]
	 Same-Spin Energy          =      -0.5003309320378374 [Eh]
	 Opposite-Spin Energy      =      -1.5387756003026620 [Eh]
	 Correlation Energy        =      -2.0391065323404995 [Eh]
	 Total Energy              =    -472.8686131386479019 [Eh]

	 ================> DF-SCS-MP2 Energies <==================
	-----------------------------------------------------------
	 SCS Same-Spin Scale       =       0.3333333333333333 [-]
	 SCS Opposite-Spin Scale   =       1.2000000000000000 [-]
	 SCS Same-Spin Energy      =      -0.1667769773459458 [Eh]
	 SCS Opposite-Spin Energy  =      -1.8465307203631944 [Eh]
	 SCS Correlation Energy    =      -2.0133076977091404 [Eh]
	 SCS Total Energy          =    -472.8428143040165423 [Eh]
	-----------------------------------------------------------

  Dipole Moment: [D]
     X:     1.4554      Y:    -0.0703      Z:    -0.0000     Total:     1.4571

*** Psi4 exiting successfully. Buy a developer a beer!
