                               Psi4 1.4a3.dev225

  ==> Input File <==

--------------------------------------------------------------------------
#psi4
#
memory 32 gb

molecule  {
0 1
  O       -1.2482290     1.5306510     0.0000030
  N        1.4640540     0.4968240    -0.0000070
  N        0.6053200    -1.5732460     0.0000100
  N       -1.9984820    -0.6503890    -0.0000010
  C        0.3259400    -0.2627350     0.0000100
  C        2.5213300    -0.3786110    -0.0000100
  C        1.5711040     1.9546380     0.0000020
  C       -1.0383320     0.3066720     0.0000020
  C        1.9690460    -1.6456460     0.0000000
  C       -3.4103270    -0.3314980    -0.0000060
  H        3.5447240    -0.0301030    -0.0000120
  H        1.0842430     2.3633630    -0.8839110
  H        1.0842880     2.3633490     0.8839480
  H        2.6322840     2.2067670    -0.0000220
  H        2.4770699    -2.5784101    -0.0000049
  H       -1.6732310    -1.6118380    -0.0000010
  H       -3.9026090    -0.7325290     0.8908020
  H       -3.9026030    -0.7325320    -0.8908160
  H       -3.4966990     0.7550430    -0.0000090
units angstrom
no_reorient  #important for SAPT in psi4, default
symmetry c1  #important for SAPT in psi4, default
}

set PROPERTIES_ORIGIN ["COM"]
properties('MP2/aug-cc-pvtz', properties = ['dipole'])
--------------------------------------------------------------------------

    Molecular point group: c1
  Charge       = 0
  Multiplicity = 1
  Basis Set: AUG-CC-PVTZ
    Blend: AUG-CC-PVTZ
  Basis Set: (AUG-CC-PVTZ AUX)
    Blend: AUG-CC-PVTZ-JKFIT

    Orbital Energies [Eh]
    ---------------------

    Doubly Occupied:

       1A    -20.522248     2A    -15.637744     3A    -15.584767
       4A    -15.565318     5A    -11.362114     6A    -11.304760
       7A    -11.274852     8A    -11.272419     9A    -11.258288
      10A    -11.253090    11A     -1.381628    12A     -1.346307
      13A     -1.234568    14A     -1.190675    15A     -1.036089
      16A     -0.979389    17A     -0.950704    18A     -0.841647
      19A     -0.815699    20A     -0.772881    21A     -0.735303
      22A     -0.659718    23A     -0.656209    24A     -0.646012
      25A     -0.619111    26A     -0.607181    27A     -0.595722
      28A     -0.583780    29A     -0.564445    30A     -0.560099
      31A     -0.545667    32A     -0.529918    33A     -0.458102
      34A     -0.433775    35A     -0.399113    36A     -0.388792
      37A     -0.323074

  @DF-RHF Final Energy:  -470.83538818317032

   => Energetics <=

    Nuclear Repulsion Energy =            527.2408729024173226
    One-Electron Energy =               -1686.3701047719416692
    Two-Electron Energy =                 688.2938436863540801
    Total Energy =                       -470.8353881831702665
  Basis Set: (AUG-CC-PVTZ AUX)
    Blend: AUG-CC-PVTZ-RI
    Molecular point group: c1

    Geometry (in Angstrom), charge = 0, multiplicity = 1:

       Center              X                  Y                   Z               Mass
    ------------   -----------------  -----------------  -----------------  -----------------
         O           -1.263495234683     1.544783029903     0.000002813854    15.994914619570
         N            1.448787765317     0.510956029903    -0.000007186146    14.003074004430
         N            0.590053765317    -1.559113970097     0.000009813854    14.003074004430
         N           -2.013748234683    -0.636256970097    -0.000001186146    14.003074004430
         C            0.310673765317    -0.248602970097     0.000009813854    12.000000000000
         C            2.506063765317    -0.364478970097    -0.000010186146    12.000000000000
         C            1.555837765317     1.968770029903     0.000001813854    12.000000000000
         C           -1.053598234683     0.320804029903     0.000001813854    12.000000000000
         C            1.953779765317    -1.631513970097    -0.000000186146    12.000000000000
         C           -3.425593234683    -0.317365970097    -0.000006186146    12.000000000000
         H            3.529457765317    -0.015970970097    -0.000012186146     1.007825032230
         H            1.068976765317     2.377495029903    -0.883911186146     1.007825032230
         H            1.069021765317     2.377481029903     0.883947813854     1.007825032230
         H            2.617017765317     2.220899029903    -0.000022186146     1.007825032230
         H            2.461803665317    -2.564278070097    -0.000005086146     1.007825032230
         H           -1.688497234683    -1.597705970097    -0.000001186146     1.007825032230
         H           -3.917875234683    -0.718396970097     0.890801813854     1.007825032230
         H           -3.917869234683    -0.718399970097    -0.890816186146     1.007825032230
         H           -3.511965234683     0.769175029903    -0.000009186146     1.007825032230

  Basis Set: AUG-CC-PVTZ
    Blend: AUG-CC-PVTZ
  Basis Set: (AUG-CC-PVTZ AUX)
    Blend: AUG-CC-PVTZ-JKFIT
	 Reference Energy          =    -470.8353881831703234 [Eh]
	 Singles Energy            =      -0.0000000000000000 [Eh]
	 Same-Spin Energy          =      -0.4992865039991100 [Eh]
	 Opposite-Spin Energy      =      -1.5369444705927027 [Eh]
	 Correlation Energy        =      -2.0362309745918128 [Eh]
	 Total Energy              =    -472.8716191577621544 [Eh]

	 ================> DF-SCS-MP2 Energies <==================
	-----------------------------------------------------------
	 SCS Same-Spin Scale       =       0.3333333333333333 [-]
	 SCS Opposite-Spin Scale   =       1.2000000000000000 [-]
	 SCS Same-Spin Energy      =      -0.1664288346663700 [Eh]
	 SCS Opposite-Spin Energy  =      -1.8443333647112432 [Eh]
	 SCS Correlation Energy    =      -2.0107621993776132 [Eh]
	 SCS Total Energy          =    -472.8461503825479326 [Eh]
	-----------------------------------------------------------

  Dipole Moment: [D]
     X:     1.3991      Y:     0.0131      Z:    -0.0000     Total:     1.3992

*** Psi4 exiting successfully. Buy a developer a beer!
