                               Psi4 1.3.2 release

  ==> Input File <==

--------------------------------------------------------------------------
#psi4
#
memory 32 gb

molecule  {
0 1
  O       -1.2482290     1.5306510     0.0000030
  N        1.4640540     0.4968240    -0.0000070
  N        0.5594136    -1.5821979     0.0000097
  N       -1.9984820    -0.6503890    -0.0000010
  C        0.3259400    -0.2627350     0.0000100
  C        2.5213300    -0.3786110    -0.0000100
  C        1.5711040     1.9546380     0.0000020
  C       -1.0383320     0.3066720     0.0000020
  C        1.9690460    -1.6456460     0.0000000
  C       -3.4103270    -0.3314980    -0.0000060
  H        3.5447240    -0.0301030    -0.0000120
  H        1.0842430     2.3633630    -0.8839110
  H        1.0842880     2.3633490     0.8839480
  H        2.6322840     2.2067670    -0.0000220
  H        2.4866360    -2.5959740    -0.0000050
  H       -1.6732310    -1.6118380    -0.0000010
  H       -3.9026090    -0.7325290     0.8908020
  H       -3.9026030    -0.7325320    -0.8908160
  H       -3.4966990     0.7550430    -0.0000090
units angstrom
no_reorient  #important for SAPT in psi4, default
symmetry c1  #important for SAPT in psi4, default
}

set PROPERTIES_ORIGIN ["COM"]
properties('MP2/aug-cc-pvtz', properties = ['dipole'])
--------------------------------------------------------------------------

    Molecular point group: c1
  Charge       = 0
  Multiplicity = 1
  Basis Set: AUG-CC-PVTZ
    Blend: AUG-CC-PVTZ
  Basis Set: (AUG-CC-PVTZ AUX)
    Blend: AUG-CC-PVTZ-JKFIT

    Orbital Energies [Eh]
    ---------------------

    Doubly Occupied:

       1A    -20.522459     2A    -15.636692     3A    -15.584172
       4A    -15.570838     5A    -11.361403     6A    -11.307867
       7A    -11.275375     8A    -11.274941     9A    -11.259499
      10A    -11.258004    11A     -1.381266    12A     -1.342897
      13A     -1.234610    14A     -1.184972    15A     -1.036489
      16A     -0.977888    17A     -0.949831    18A     -0.841545
      19A     -0.814730    20A     -0.771458    21A     -0.732129
      22A     -0.658442    23A     -0.656034    24A     -0.645420
      25A     -0.618937    26A     -0.603039    27A     -0.594350
      28A     -0.582072    29A     -0.560767    30A     -0.558879
      31A     -0.545681    32A     -0.528925    33A     -0.464262
      34A     -0.433564    35A     -0.398147    36A     -0.386385
      37A     -0.325956

  @DF-RHF Final Energy:  -470.83177813417575

   => Energetics <=

    Nuclear Repulsion Energy =            526.5610844998312814
    One-Electron Energy =               -1685.0258787350799139
    Two-Electron Energy =                 687.6330161010727124
    Total Energy =                       -470.8317781341758064
  Basis Set: (AUG-CC-PVTZ AUX)
    Blend: AUG-CC-PVTZ-RI
    Molecular point group: c1

    Geometry (in Angstrom), charge = 0, multiplicity = 1:

       Center              X                  Y                   Z               Mass
    ------------   -----------------  -----------------  -----------------  -----------------
         O           -1.258942354899     1.545811654076     0.000002844785    15.994914619570
         N            1.453340645101     0.511984654076    -0.000007155215    14.003074004430
         N            0.548700245101    -1.567037245924     0.000009544785    14.003074004430
         N           -2.009195354899    -0.635228345924    -0.000001155215    14.003074004430
         C            0.315226645101    -0.247574345924     0.000009844785    12.000000000000
         C            2.510616645101    -0.363450345924    -0.000010155215    12.000000000000
         C            1.560390645101     1.969798654076     0.000001844785    12.000000000000
         C           -1.049045354899     0.321832654076     0.000001844785    12.000000000000
         C            1.958332645101    -1.630485345924    -0.000000155215    12.000000000000
         C           -3.421040354899    -0.316337345924    -0.000006155215    12.000000000000
         H            3.534010645101    -0.014942345924    -0.000012155215     1.007825032230
         H            1.073529645101     2.378523654076    -0.883911155215     1.007825032230
         H            1.073574645101     2.378509654076     0.883947844785     1.007825032230
         H            2.621570645101     2.221927654076    -0.000022155215     1.007825032230
         H            2.475922645101    -2.580813345924    -0.000005155215     1.007825032230
         H           -1.683944354899    -1.596677345924    -0.000001155215     1.007825032230
         H           -3.913322354899    -0.717368345924     0.890801844785     1.007825032230
         H           -3.913316354899    -0.717371345924    -0.890816155215     1.007825032230
         H           -3.507412354899     0.770203654076    -0.000009155215     1.007825032230

  Basis Set: AUG-CC-PVTZ
    Blend: AUG-CC-PVTZ
  Basis Set: (AUG-CC-PVTZ AUX)
    Blend: AUG-CC-PVTZ-JKFIT
	 Reference Energy          =    -470.8317781341757495 [Eh]
	 Singles Energy            =      -0.0000000000000000 [Eh]
	 Same-Spin Energy          =      -0.4992142169712773 [Eh]
	 Opposite-Spin Energy      =      -1.5381383590533457 [Eh]
	 Correlation Energy        =      -2.0373525760246229 [Eh]
	 Total Energy              =    -472.8691307102003520 [Eh]

	 ================> DF-SCS-MP2 Energies <==================
	-----------------------------------------------------------
	 SCS Same-Spin Scale       =       0.3333333333333333 [-]
	 SCS Opposite-Spin Scale   =       1.2000000000000000 [-]
	 SCS Same-Spin Energy      =      -0.1664047389904257 [Eh]
	 SCS Opposite-Spin Energy  =      -1.8457660308640147 [Eh]
	 SCS Correlation Energy    =      -2.0121707698544404 [Eh]
	 SCS Total Energy          =    -472.8439489040301851 [Eh]
	-----------------------------------------------------------

  Dipole Moment: [D]
     X:     1.4666      Y:     0.0575      Z:    -0.0000     Total:     1.4677

*** Psi4 exiting successfully. Buy a developer a beer!
