                               Psi4 1.3.2 release

  ==> Input File <==

--------------------------------------------------------------------------
#psi4
#
memory 32 gb

molecule  {
0 1
  O       -1.2482290     1.5306510     0.0000030
  N        1.4640540     0.4968240    -0.0000070
  N        0.6053200    -1.5732460     0.0000100
  N       -1.9984820    -0.6503890    -0.0000010
  C        0.3259400    -0.2627350     0.0000100
  C        2.5213300    -0.3786110    -0.0000100
  C        1.5711040     1.9546380     0.0000020
  C       -1.0383320     0.3066720     0.0000020
  C        2.0689054    -1.6509475    -0.0000007
  C       -3.4103270    -0.3314980    -0.0000060
  H        3.5447240    -0.0301030    -0.0000120
  H        1.0842430     2.3633630    -0.8839110
  H        1.0842880     2.3633490     0.8839480
  H        2.6322840     2.2067670    -0.0000220
  H        2.4866360    -2.5959740    -0.0000050
  H       -1.6732310    -1.6118380    -0.0000010
  H       -3.9026090    -0.7325290     0.8908020
  H       -3.9026030    -0.7325320    -0.8908160
  H       -3.4966990     0.7550430    -0.0000090
units angstrom
no_reorient  #important for SAPT in psi4, default
symmetry c1  #important for SAPT in psi4, default
}

set PROPERTIES_ORIGIN ["COM"]
properties('MP2/aug-cc-pvtz', properties = ['dipole'])
--------------------------------------------------------------------------

    Molecular point group: c1
  Charge       = 0
  Multiplicity = 1
  Basis Set: AUG-CC-PVTZ
    Blend: AUG-CC-PVTZ
  Basis Set: (AUG-CC-PVTZ AUX)
    Blend: AUG-CC-PVTZ-JKFIT

    Orbital Energies [Eh]
    ---------------------

    Doubly Occupied:

       1A    -20.524965     2A    -15.631298     3A    -15.586095
       4A    -15.567499     5A    -11.364283     6A    -11.308633
       7A    -11.274149     8A    -11.273698     9A    -11.259067
      10A    -11.254079    11A     -1.382234    12A     -1.338855
      13A     -1.235249    14A     -1.171274    15A     -1.041747
      16A     -0.973072    17A     -0.952936    18A     -0.848289
      19A     -0.814221    20A     -0.771889    21A     -0.732503
      22A     -0.659072    23A     -0.654437    24A     -0.646134
      25A     -0.619863    26A     -0.614757    27A     -0.590054
      28A     -0.583740    29A     -0.560997    30A     -0.556602
      31A     -0.546375    32A     -0.529368    33A     -0.455206
      34A     -0.432169    35A     -0.395911    36A     -0.379894
      37A     -0.335388

  @DF-RHF Final Energy:  -470.82515834973429

   => Energetics <=

    Nuclear Repulsion Energy =            525.5830980030413002
    One-Electron Energy =               -1683.0845119896453070
    Two-Electron Energy =                 686.6762556368696551
    Total Energy =                       -470.8251583497342381
  Basis Set: (AUG-CC-PVTZ AUX)
    Blend: AUG-CC-PVTZ-RI
    Molecular point group: c1

    Geometry (in Angstrom), charge = 0, multiplicity = 1:

       Center              X                  Y                   Z               Mass
    ------------   -----------------  -----------------  -----------------  -----------------
         O           -1.272180890337     1.545367747459     0.000002874978    15.994914619570
         N            1.440102109663     0.511540747459    -0.000007125022    14.003074004430
         N            0.581368109663    -1.558529252541     0.000009874978    14.003074004430
         N           -2.022433890337    -0.635672252541    -0.000001125022    14.003074004430
         C            0.301988109663    -0.248018252541     0.000009874978    12.000000000000
         C            2.497378109663    -0.363894252541    -0.000010125022    12.000000000000
         C            1.547152109663     1.969354747459     0.000001874978    12.000000000000
         C           -1.062283890337     0.321388747459     0.000001874978    12.000000000000
         C            2.044953509663    -1.636230752541    -0.000000825022    12.000000000000
         C           -3.434278890337    -0.316781252541    -0.000006125022    12.000000000000
         H            3.520772109663    -0.015386252541    -0.000012125022     1.007825032230
         H            1.060291109663     2.378079747459    -0.883911125022     1.007825032230
         H            1.060336109663     2.378065747459     0.883947874978     1.007825032230
         H            2.608332109663     2.221483747459    -0.000022125022     1.007825032230
         H            2.462684109663    -2.581257252541    -0.000005125022     1.007825032230
         H           -1.697182890337    -1.597121252541    -0.000001125022     1.007825032230
         H           -3.926560890337    -0.717812252541     0.890801874978     1.007825032230
         H           -3.926554890337    -0.717815252541    -0.890816125022     1.007825032230
         H           -3.520650890337     0.769759747459    -0.000009125022     1.007825032230

  Basis Set: AUG-CC-PVTZ
    Blend: AUG-CC-PVTZ
  Basis Set: (AUG-CC-PVTZ AUX)
    Blend: AUG-CC-PVTZ-JKFIT
	 Reference Energy          =    -470.8251583497342949 [Eh]
	 Singles Energy            =      -0.0000000000000000 [Eh]
	 Same-Spin Energy          =      -0.4983818719828172 [Eh]
	 Opposite-Spin Energy      =      -1.5378855626686903 [Eh]
	 Correlation Energy        =      -2.0362674346515073 [Eh]
	 Total Energy              =    -472.8614257843858013 [Eh]

	 ================> DF-SCS-MP2 Energies <==================
	-----------------------------------------------------------
	 SCS Same-Spin Scale       =       0.3333333333333333 [-]
	 SCS Opposite-Spin Scale   =       1.2000000000000000 [-]
	 SCS Same-Spin Energy      =      -0.1661272906609391 [Eh]
	 SCS Opposite-Spin Energy  =      -1.8454626752024281 [Eh]
	 SCS Correlation Energy    =      -2.0115899658633674 [Eh]
	 SCS Total Energy          =    -472.8367483155976743 [Eh]
	-----------------------------------------------------------

  Dipole Moment: [D]
     X:     1.3371      Y:     0.0237      Z:    -0.0000     Total:     1.3373

*** Psi4 exiting successfully. Buy a developer a beer!
