                               Psi4 1.4a3.dev225

  ==> Input File <==

--------------------------------------------------------------------------
#psi4
#
memory 32 gb

molecule  {
0 1
  O       -1.2482290     1.5306510     0.0000030
  N        1.4640540     0.4968240    -0.0000070
  N        0.6053200    -1.5732460     0.0000100
  N       -1.9984820    -0.6503890    -0.0000010
  C        0.3259400    -0.2627350     0.0000100
  C        2.5213300    -0.3786110    -0.0000100
  C        1.5725687     1.9745843     0.0000021
  C       -1.0383320     0.3066720     0.0000020
  C        1.9690460    -1.6456460     0.0000000
  C       -3.4103270    -0.3314980    -0.0000060
  H        3.5447240    -0.0301030    -0.0000120
  H        1.0842430     2.3633630    -0.8839110
  H        1.0842880     2.3633490     0.8839480
  H        2.6322840     2.2067670    -0.0000220
  H        2.4866360    -2.5959740    -0.0000050
  H       -1.6732310    -1.6118380    -0.0000010
  H       -3.9026090    -0.7325290     0.8908020
  H       -3.9026030    -0.7325320    -0.8908160
  H       -3.4966990     0.7550430    -0.0000090
units angstrom
no_reorient  #important for SAPT in psi4, default
symmetry c1  #important for SAPT in psi4, default
}

set PROPERTIES_ORIGIN ["COM"]
properties('MP2/aug-cc-pvtz', properties = ['dipole'])
--------------------------------------------------------------------------

    Molecular point group: c1
  Charge       = 0
  Multiplicity = 1
  Basis Set: AUG-CC-PVTZ
    Blend: AUG-CC-PVTZ
  Basis Set: (AUG-CC-PVTZ AUX)
    Blend: AUG-CC-PVTZ-JKFIT

    Orbital Energies [Eh]
    ---------------------

    Doubly Occupied:

       1A    -20.522097     2A    -15.637112     3A    -15.584587
       4A    -15.564746     5A    -11.361879     6A    -11.304084
       7A    -11.275661     8A    -11.271887     9A    -11.258168
      10A    -11.254710    11A     -1.381085    12A     -1.344577
      13A     -1.234162    14A     -1.187882    15A     -1.034972
      16A     -0.979591    17A     -0.950430    18A     -0.840391
      19A     -0.813388    20A     -0.772422    21A     -0.732876
      22A     -0.658437    23A     -0.655558    24A     -0.645457
      25A     -0.619147    26A     -0.606142    27A     -0.591965
      28A     -0.583401    29A     -0.565850    30A     -0.562827
      31A     -0.545524    32A     -0.530116    33A     -0.457313
      34A     -0.433872    35A     -0.399411    36A     -0.388630
      37A     -0.322490

  @DF-RHF Final Energy:  -470.83495106180413

   => Energetics <=

    Nuclear Repulsion Energy =            526.7406359450338869
    One-Electron Energy =               -1685.4054742454875395
    Two-Electron Energy =                 687.8298872386493485
    Total Energy =                       -470.8349510618041904
  Basis Set: (AUG-CC-PVTZ AUX)
    Blend: AUG-CC-PVTZ-RI
    Molecular point group: c1

    Geometry (in Angstrom), charge = 0, multiplicity = 1:

       Center              X                  Y                   Z               Mass
    ------------   -----------------  -----------------  -----------------  -----------------
         O           -1.263690938014     1.543189249855     0.000002805950    15.994914619570
         N            1.448592061986     0.509362249855    -0.000007194050    14.003074004430
         N            0.589858061986    -1.560707750145     0.000009805950    14.003074004430
         N           -2.013943938014    -0.637850750145    -0.000001194050    14.003074004430
         C            0.310478061986    -0.250196750145     0.000009805950    12.000000000000
         C            2.505868061986    -0.366072750145    -0.000010194050    12.000000000000
         C            1.557106761986     1.987122549855     0.000001905950    12.000000000000
         C           -1.053793938014     0.319210249855     0.000001805950    12.000000000000
         C            1.953584061986    -1.633107750145    -0.000000194050    12.000000000000
         C           -3.425788938014    -0.318959750145    -0.000006194050    12.000000000000
         H            3.529262061986    -0.017564750145    -0.000012194050     1.007825032230
         H            1.068781061986     2.375901249855    -0.883911194050     1.007825032230
         H            1.068826061986     2.375887249855     0.883947805950     1.007825032230
         H            2.616822061986     2.219305249855    -0.000022194050     1.007825032230
         H            2.471174061986    -2.583435750145    -0.000005194050     1.007825032230
         H           -1.688692938014    -1.599299750145    -0.000001194050     1.007825032230
         H           -3.918070938014    -0.719990750145     0.890801805950     1.007825032230
         H           -3.918064938014    -0.719993750145    -0.890816194050     1.007825032230
         H           -3.512160938014     0.767581249855    -0.000009194050     1.007825032230

  Basis Set: AUG-CC-PVTZ
    Blend: AUG-CC-PVTZ
  Basis Set: (AUG-CC-PVTZ AUX)
    Blend: AUG-CC-PVTZ-JKFIT
	 Reference Energy          =    -470.8349510618041336 [Eh]
	 Singles Energy            =      -0.0000000000000000 [Eh]
	 Same-Spin Energy          =      -0.4992190723986305 [Eh]
	 Opposite-Spin Energy      =      -1.5370461976283898 [Eh]
	 Correlation Energy        =      -2.0362652700270205 [Eh]
	 Total Energy              =    -472.8712163318311354 [Eh]

	 ================> DF-SCS-MP2 Energies <==================
	-----------------------------------------------------------
	 SCS Same-Spin Scale       =       0.3333333333333333 [-]
	 SCS Opposite-Spin Scale   =       1.2000000000000000 [-]
	 SCS Same-Spin Energy      =      -0.1664063574662102 [Eh]
	 SCS Opposite-Spin Energy  =      -1.8444554371540676 [Eh]
	 SCS Correlation Energy    =      -2.0108617946202778 [Eh]
	 SCS Total Energy          =    -472.8458128564244021 [Eh]
	-----------------------------------------------------------

  Dipole Moment: [D]
     X:     1.4052      Y:     0.0657      Z:    -0.0000     Total:     1.4068

*** Psi4 exiting successfully. Buy a developer a beer!
