                               Psi4 1.3.2 release

  ==> Input File <==

--------------------------------------------------------------------------
#psi4
#
memory 32 gb

molecule  {
0 1
  O       -1.3330982     1.5130278     0.0000024
  N        1.4640540     0.4968240    -0.0000070
  N        0.6053200    -1.5732460     0.0000100
  N       -1.9984820    -0.6503890    -0.0000010
  C        0.3259400    -0.2627350     0.0000100
  C        2.5213300    -0.3786110    -0.0000100
  C        1.5711040     1.9546380     0.0000020
  C       -1.0383320     0.3066720     0.0000020
  C        1.9690460    -1.6456460     0.0000000
  C       -3.4103270    -0.3314980    -0.0000060
  H        3.5447240    -0.0301030    -0.0000120
  H        1.0842430     2.3633630    -0.8839110
  H        1.0842880     2.3633490     0.8839480
  H        2.6322840     2.2067670    -0.0000220
  H        2.4866360    -2.5959740    -0.0000050
  H       -1.6732310    -1.6118380    -0.0000010
  H       -3.9026090    -0.7325290     0.8908020
  H       -3.9026030    -0.7325320    -0.8908160
  H       -3.4966990     0.7550430    -0.0000090
units angstrom
no_reorient  #important for SAPT in psi4, default
symmetry c1  #important for SAPT in psi4, default
}

set PROPERTIES_ORIGIN ["COM"]
properties('MP2/aug-cc-pvtz', properties = ['dipole'])
--------------------------------------------------------------------------

    Molecular point group: c1
  Charge       = 0
  Multiplicity = 1
  Basis Set: AUG-CC-PVTZ
    Blend: AUG-CC-PVTZ
  Basis Set: (AUG-CC-PVTZ AUX)
    Blend: AUG-CC-PVTZ-JKFIT

    Orbital Energies [Eh]
    ---------------------

    Doubly Occupied:

       1A    -20.520178     2A    -15.640375     3A    -15.580237
       4A    -15.568209     5A    -11.361112     6A    -11.308430
       7A    -11.277838     8A    -11.274830     9A    -11.257552
      10A    -11.254511    11A     -1.381348    12A     -1.349157
      13A     -1.229302    14A     -1.192522    15A     -1.038282
      16A     -0.981328    17A     -0.949202    18A     -0.842193
      19A     -0.816315    20A     -0.770087    21A     -0.736404
      22A     -0.660540    23A     -0.658083    24A     -0.644077
      25A     -0.617255    26A     -0.606637    27A     -0.597722
      28A     -0.582717    29A     -0.566549    30A     -0.561850
      31A     -0.540859    32A     -0.528716    33A     -0.459742
      34A     -0.433623    35A     -0.400196    36A     -0.386154
      37A     -0.325323

  @DF-RHF Final Energy:  -470.83375107527849

   => Energetics <=

    Nuclear Repulsion Energy =            526.6810299216114117
    One-Electron Energy =               -1685.2306510600067213
    Two-Electron Energy =                 687.7158700631167676
    Total Energy =                       -470.8337510752784283
  Basis Set: (AUG-CC-PVTZ AUX)
    Blend: AUG-CC-PVTZ-RI
    Molecular point group: c1

    Geometry (in Angstrom), charge = 0, multiplicity = 1:

       Center              X                  Y                   Z               Mass
    ------------   -----------------  -----------------  -----------------  -----------------
         O           -1.338672981162     1.529313947185     0.000002283584    15.994914619570
         N            1.458479218838     0.513110147185    -0.000007116416    14.003074004430
         N            0.599745218838    -1.556959852815     0.000009883584    14.003074004430
         N           -2.004056781162    -0.634102852815    -0.000001116416    14.003074004430
         C            0.320365218838    -0.246448852815     0.000009883584    12.000000000000
         C            2.515755218838    -0.362324852815    -0.000010116416    12.000000000000
         C            1.565529218838     1.970924147185     0.000001883584    12.000000000000
         C           -1.043906781162     0.322958147185     0.000001883584    12.000000000000
         C            1.963471218838    -1.629359852815    -0.000000116416    12.000000000000
         C           -3.415901781162    -0.315211852815    -0.000006116416    12.000000000000
         H            3.539149218838    -0.013816852815    -0.000012116416     1.007825032230
         H            1.078668218838     2.379649147185    -0.883911116416     1.007825032230
         H            1.078713218838     2.379635147185     0.883947883584     1.007825032230
         H            2.626709218838     2.223053147185    -0.000022116416     1.007825032230
         H            2.481061218838    -2.579687852815    -0.000005116416     1.007825032230
         H           -1.678805781162    -1.595551852815    -0.000001116416     1.007825032230
         H           -3.908183781162    -0.716242852815     0.890801883584     1.007825032230
         H           -3.908177781162    -0.716245852815    -0.890816116416     1.007825032230
         H           -3.502273781162     0.771329147185    -0.000009116416     1.007825032230

  Basis Set: AUG-CC-PVTZ
    Blend: AUG-CC-PVTZ
  Basis Set: (AUG-CC-PVTZ AUX)
    Blend: AUG-CC-PVTZ-JKFIT
	 Reference Energy          =    -470.8337510752784851 [Eh]
	 Singles Energy            =      -0.0000000000000000 [Eh]
	 Same-Spin Energy          =      -0.4994557395418984 [Eh]
	 Opposite-Spin Energy      =      -1.5372182624688882 [Eh]
	 Correlation Energy        =      -2.0366740020107867 [Eh]
	 Total Energy              =    -472.8704250772892692 [Eh]

	 ================> DF-SCS-MP2 Energies <==================
	-----------------------------------------------------------
	 SCS Same-Spin Scale       =       0.3333333333333333 [-]
	 SCS Opposite-Spin Scale   =       1.2000000000000000 [-]
	 SCS Same-Spin Energy      =      -0.1664852465139661 [Eh]
	 SCS Opposite-Spin Energy  =      -1.8446619149626657 [Eh]
	 SCS Correlation Energy    =      -2.0111471614766319 [Eh]
	 SCS Total Energy          =    -472.8448982367551139 [Eh]
	-----------------------------------------------------------

  Dipole Moment: [D]
     X:     1.7240      Y:     0.0442      Z:    -0.0000     Total:     1.7246

*** Psi4 exiting successfully. Buy a developer a beer!
