                               Psi4 1.3.2 release

  ==> Input File <==

--------------------------------------------------------------------------
#psi4
#
memory 32 gb

molecule  {
0 1
  O       -1.2482290     1.5306510     0.0000030
  N        1.4640540     0.4968240    -0.0000070
  N        0.6053200    -1.5732460     0.0000100
  N       -1.9984820    -0.6503890    -0.0000010
  C        0.3259400    -0.2627350     0.0000100
  C        2.5213300    -0.3786110    -0.0000100
  C        1.5711040     1.9546380     0.0000020
  C       -1.0383320     0.3066720     0.0000020
  C        1.9690460    -1.6456460     0.0000000
  C       -3.4103270    -0.3314980    -0.0000060
  H        3.5447240    -0.0301030    -0.0000120
  H        1.0842430     2.3633630    -0.8839110
  H        1.0842880     2.3633490     0.8839480
  H        2.6322840     2.2067670    -0.0000220
  H        2.5822966    -2.7716130    -0.0000059
  H       -1.6732310    -1.6118380    -0.0000010
  H       -3.9026090    -0.7325290     0.8908020
  H       -3.9026030    -0.7325320    -0.8908160
  H       -3.4966990     0.7550430    -0.0000090
units angstrom
no_reorient  #important for SAPT in psi4, default
symmetry c1  #important for SAPT in psi4, default
}

set PROPERTIES_ORIGIN ["COM"]
properties('MP2/aug-cc-pvtz', properties = ['dipole'])
--------------------------------------------------------------------------

    Molecular point group: c1
  Charge       = 0
  Multiplicity = 1
  Basis Set: AUG-CC-PVTZ
    Blend: AUG-CC-PVTZ
  Basis Set: (AUG-CC-PVTZ AUX)
    Blend: AUG-CC-PVTZ-JKFIT

    Orbital Energies [Eh]
    ---------------------

    Doubly Occupied:

       1A    -20.523052     2A    -15.639157     3A    -15.585470
       4A    -15.567720     5A    -11.363083     6A    -11.306555
       7A    -11.276409     8A    -11.275709     9A    -11.274233
      10A    -11.258750    11A     -1.382607    12A     -1.347830
      13A     -1.235325    14A     -1.191725    15A     -1.034986
      16A     -0.980095    17A     -0.949503    18A     -0.837727
      19A     -0.805537    20A     -0.773710    21A     -0.730081
      22A     -0.659204    23A     -0.657384    24A     -0.644650
      25A     -0.619708    26A     -0.599063    27A     -0.590997
      28A     -0.579548    29A     -0.561196    30A     -0.547229
      31A     -0.542292    32A     -0.530828    33A     -0.455936
      34A     -0.434748    35A     -0.400326    36A     -0.389714
      37A     -0.324253

  @DF-RHF Final Energy:  -470.81225419575878

   => Energetics <=

    Nuclear Repulsion Energy =            526.1754732450511938
    One-Electron Energy =               -1684.2227769888434068
    Two-Electron Energy =                 687.2350495480335439
    Total Energy =                       -470.8122541957587828
  Basis Set: (AUG-CC-PVTZ AUX)
    Blend: AUG-CC-PVTZ-RI
    Molecular point group: c1

    Geometry (in Angstrom), charge = 0, multiplicity = 1:

       Center              X                  Y                   Z               Mass
    ------------   -----------------  -----------------  -----------------  -----------------
         O           -1.264257776020     1.546183104195     0.000002821100    15.994914619570
         N            1.448025223980     0.512356104195    -0.000007178900    14.003074004430
         N            0.589291223980    -1.557713895805     0.000009821100    14.003074004430
         N           -2.014510776020    -0.634856895805    -0.000001178900    14.003074004430
         C            0.309911223980    -0.247202895805     0.000009821100    12.000000000000
         C            2.505301223980    -0.363078895805    -0.000010178900    12.000000000000
         C            1.555075223980     1.970170104195     0.000001821100    12.000000000000
         C           -1.054360776020     0.322204104195     0.000001821100    12.000000000000
         C            1.953017223980    -1.630113895805    -0.000000178900    12.000000000000
         C           -3.426355776020    -0.315965895805    -0.000006178900    12.000000000000
         H            3.528695223980    -0.014570895805    -0.000012178900     1.007825032230
         H            1.068214223980     2.378895104195    -0.883911178900     1.007825032230
         H            1.068259223980     2.378881104195     0.883947821100     1.007825032230
         H            2.616255223980     2.222299104195    -0.000022178900     1.007825032230
         H            2.566267823980    -2.756080895805    -0.000006078900     1.007825032230
         H           -1.689259776020    -1.596305895805    -0.000001178900     1.007825032230
         H           -3.918637776020    -0.716996895805     0.890801821100     1.007825032230
         H           -3.918631776020    -0.716999895805    -0.890816178900     1.007825032230
         H           -3.512727776020     0.770575104195    -0.000009178900     1.007825032230

  Basis Set: AUG-CC-PVTZ
    Blend: AUG-CC-PVTZ
  Basis Set: (AUG-CC-PVTZ AUX)
    Blend: AUG-CC-PVTZ-JKFIT
	 Reference Energy          =    -470.8122541957587828 [Eh]
	 Singles Energy            =      -0.0000000000000000 [Eh]
	 Same-Spin Energy          =      -0.4998480609487690 [Eh]
	 Opposite-Spin Energy      =      -1.5392352166662580 [Eh]
	 Correlation Energy        =      -2.0390832776150267 [Eh]
	 Total Energy              =    -472.8513374733738033 [Eh]

	 ================> DF-SCS-MP2 Energies <==================
	-----------------------------------------------------------
	 SCS Same-Spin Scale       =       0.3333333333333333 [-]
	 SCS Opposite-Spin Scale   =       1.2000000000000000 [-]
	 SCS Same-Spin Energy      =      -0.1666160203162563 [Eh]
	 SCS Opposite-Spin Energy  =      -1.8470822599995094 [Eh]
	 SCS Correlation Energy    =      -2.0136982803157659 [Eh]
	 SCS Total Energy          =    -472.8259524760745762 [Eh]
	-----------------------------------------------------------

  Dipole Moment: [D]
     X:     1.3311      Y:     0.0540      Z:    -0.0000     Total:     1.3322

*** Psi4 exiting successfully. Buy a developer a beer!
