                               Psi4 1.4a3.dev225

  ==> Input File <==

--------------------------------------------------------------------------
#psi4
#
memory 32 gb

molecule  {
0 1
  O       -1.2482290     1.5306510     0.0000030
  N        1.4640540     0.4968240    -0.0000070
  N        0.6053200    -1.5732460     0.0000100
  N       -1.9984820    -0.6503890    -0.0000010
  C        0.3259400    -0.2627350     0.0000100
  C        2.5598417    -0.4104991    -0.0000101
  C        1.5711040     1.9546380     0.0000020
  C       -1.0383320     0.3066720     0.0000020
  C        1.9690460    -1.6456460     0.0000000
  C       -3.4103270    -0.3314980    -0.0000060
  H        3.5447240    -0.0301030    -0.0000120
  H        1.0842430     2.3633630    -0.8839110
  H        1.0842880     2.3633490     0.8839480
  H        2.6322840     2.2067670    -0.0000220
  H        2.4866360    -2.5959740    -0.0000050
  H       -1.6732310    -1.6118380    -0.0000010
  H       -3.9026090    -0.7325290     0.8908020
  H       -3.9026030    -0.7325320    -0.8908160
  H       -3.4966990     0.7550430    -0.0000090
units angstrom
no_reorient  #important for SAPT in psi4, default
symmetry c1  #important for SAPT in psi4, default
}

set PROPERTIES_ORIGIN ["COM"]
properties('MP2/aug-cc-pvtz', properties = ['dipole'])
--------------------------------------------------------------------------

    Molecular point group: c1
  Charge       = 0
  Multiplicity = 1
  Basis Set: AUG-CC-PVTZ
    Blend: AUG-CC-PVTZ
  Basis Set: (AUG-CC-PVTZ AUX)
    Blend: AUG-CC-PVTZ-JKFIT

    Orbital Energies [Eh]
    ---------------------

    Doubly Occupied:

       1A    -20.524205     2A    -15.634527     3A    -15.586569
       4A    -15.563776     5A    -11.363845     6A    -11.309119
       7A    -11.272470     8A    -11.271719     9A    -11.259340
      10A    -11.257146    11A     -1.381744    12A     -1.338118
      13A     -1.235506    14A     -1.185978    15A     -1.036954
      16A     -0.976224    17A     -0.951604    18A     -0.841976
      19A     -0.813768    20A     -0.774073    21A     -0.731736
      22A     -0.658941    23A     -0.651941    24A     -0.648162
      25A     -0.619292    26A     -0.608118    27A     -0.596688
      28A     -0.584644    29A     -0.558954    30A     -0.555233
      31A     -0.546802    32A     -0.529508    33A     -0.458851
      34A     -0.435105    35A     -0.396683    36A     -0.387306
      37A     -0.328541

  @DF-RHF Final Energy:  -470.83178562001700

   => Energetics <=

    Nuclear Repulsion Energy =            526.1814754094768887
    One-Electron Energy =               -1684.2761913430708773
    Two-Electron Energy =                 687.2629303135769305
    Total Energy =                       -470.8317856200170581
  Basis Set: (AUG-CC-PVTZ AUX)
    Blend: AUG-CC-PVTZ-RI
    Molecular point group: c1

    Geometry (in Angstrom), charge = 0, multiplicity = 1:

       Center              X                  Y                   Z               Mass
    ------------   -----------------  -----------------  -----------------  -----------------
         O           -1.266887525470     1.547661762954     0.000002823207    15.994914619570
         N            1.445395474530     0.513834762954    -0.000007176793    14.003074004430
         N            0.586661474530    -1.556235237046     0.000009823207    14.003074004430
         N           -2.017140525470    -0.633378237046    -0.000001176793    14.003074004430
         C            0.307281474530    -0.245724237046     0.000009823207    12.000000000000
         C            2.541183174530    -0.393488337046    -0.000010276793    12.000000000000
         C            1.552445474530     1.971648762954     0.000001823207    12.000000000000
         C           -1.056990525470     0.323682762954     0.000001823207    12.000000000000
         C            1.950387474530    -1.628635237046    -0.000000176793    12.000000000000
         C           -3.428985525470    -0.314487237046    -0.000006176793    12.000000000000
         H            3.526065474530    -0.013092237046    -0.000012176793     1.007825032230
         H            1.065584474530     2.380373762954    -0.883911176793     1.007825032230
         H            1.065629474530     2.380359762954     0.883947823207     1.007825032230
         H            2.613625474530     2.223777762954    -0.000022176793     1.007825032230
         H            2.467977474530    -2.578963237046    -0.000005176793     1.007825032230
         H           -1.691889525470    -1.594827237046    -0.000001176793     1.007825032230
         H           -3.921267525470    -0.715518237046     0.890801823207     1.007825032230
         H           -3.921261525470    -0.715521237046    -0.890816176793     1.007825032230
         H           -3.515357525470     0.772053762954    -0.000009176793     1.007825032230

  Basis Set: AUG-CC-PVTZ
    Blend: AUG-CC-PVTZ
  Basis Set: (AUG-CC-PVTZ AUX)
    Blend: AUG-CC-PVTZ-JKFIT
	 Reference Energy          =    -470.8317856200170013 [Eh]
	 Singles Energy            =      -0.0000000000000000 [Eh]
	 Same-Spin Energy          =      -0.4990526632912453 [Eh]
	 Opposite-Spin Energy      =      -1.5376450709707359 [Eh]
	 Correlation Energy        =      -2.0366977342619812 [Eh]
	 Total Energy              =    -472.8684833542789647 [Eh]

	 ================> DF-SCS-MP2 Energies <==================
	-----------------------------------------------------------
	 SCS Same-Spin Scale       =       0.3333333333333333 [-]
	 SCS Opposite-Spin Scale   =       1.2000000000000000 [-]
	 SCS Same-Spin Energy      =      -0.1663508877637484 [Eh]
	 SCS Opposite-Spin Energy  =      -1.8451740851648830 [Eh]
	 SCS Correlation Energy    =      -2.0115249729286315 [Eh]
	 SCS Total Energy          =    -472.8433105929456133 [Eh]
	-----------------------------------------------------------

  Dipole Moment: [D]
     X:     1.3452      Y:    -0.0340      Z:    -0.0000     Total:     1.3456

*** Psi4 exiting successfully. Buy a developer a beer!
