                               Psi4 1.4a3.dev225

  ==> Input File <==

--------------------------------------------------------------------------
#psi4
#
memory 32 gb

molecule  {
0 1
  O       -1.2482290     1.5306510     0.0000030
  N        1.4640540     0.4968240    -0.0000070
  N        0.6053200    -1.5732460     0.0000100
  N       -1.9984820    -0.6503890    -0.0000010
  C        0.3155151    -0.2138339     0.0000100
  C        2.5213300    -0.3786110    -0.0000100
  C        1.5711040     1.9546380     0.0000020
  C       -1.0383320     0.3066720     0.0000020
  C        1.9690460    -1.6456460     0.0000000
  C       -3.4103270    -0.3314980    -0.0000060
  H        3.5447240    -0.0301030    -0.0000120
  H        1.0842430     2.3633630    -0.8839110
  H        1.0842880     2.3633490     0.8839480
  H        2.6322840     2.2067670    -0.0000220
  H        2.4866360    -2.5959740    -0.0000050
  H       -1.6732310    -1.6118380    -0.0000010
  H       -3.9026090    -0.7325290     0.8908020
  H       -3.9026030    -0.7325320    -0.8908160
  H       -3.4966990     0.7550430    -0.0000090
units angstrom
no_reorient  #important for SAPT in psi4, default
symmetry c1  #important for SAPT in psi4, default
}

set PROPERTIES_ORIGIN ["COM"]
properties('MP2/aug-cc-pvtz', properties = ['dipole'])
--------------------------------------------------------------------------

    Molecular point group: c1
  Charge       = 0
  Multiplicity = 1
  Basis Set: AUG-CC-PVTZ
    Blend: AUG-CC-PVTZ
  Basis Set: (AUG-CC-PVTZ AUX)
    Blend: AUG-CC-PVTZ-JKFIT

    Orbital Energies [Eh]
    ---------------------

    Doubly Occupied:

       1A    -20.520405     2A    -15.643981     3A    -15.584270
       4A    -15.566930     5A    -11.360317     6A    -11.304779
       7A    -11.275891     8A    -11.272562     9A    -11.258103
      10A    -11.257563    11A     -1.382366    12A     -1.345633
      13A     -1.233552    14A     -1.182636    15A     -1.038361
      16A     -0.980539    17A     -0.951985    18A     -0.846384
      19A     -0.813409    20A     -0.772380    21A     -0.735608
      22A     -0.661445    23A     -0.658357    24A     -0.645837
      25A     -0.619151    26A     -0.605211    27A     -0.593211
      28A     -0.586904    29A     -0.563662    30A     -0.558877
      31A     -0.545242    32A     -0.529270    33A     -0.450892
      34A     -0.436026    35A     -0.396833    36A     -0.387935
      37A     -0.321753

  @DF-RHF Final Energy:  -470.82915381199041

   => Energetics <=

    Nuclear Repulsion Energy =            527.1318306644326412
    One-Electron Energy =               -1686.1454530092746609
    Two-Electron Energy =                 688.1844685328517244
    Total Energy =                       -470.8291538119904089
  Basis Set: (AUG-CC-PVTZ AUX)
    Blend: AUG-CC-PVTZ-RI
    Molecular point group: c1

    Geometry (in Angstrom), charge = 0, multiplicity = 1:

       Center              X                  Y                   Z               Mass
    ------------   -----------------  -----------------  -----------------  -----------------
         O           -1.262665048031     1.540690895050     0.000002814578    15.994914619570
         N            1.449617951969     0.506863895050    -0.000007185422    14.003074004430
         N            0.590883951969    -1.563206104950     0.000009814578    14.003074004430
         N           -2.012918048031    -0.640349104950    -0.000001185422    14.003074004430
         C            0.301079051969    -0.203794004950     0.000009814578    12.000000000000
         C            2.506893951969    -0.368571104950    -0.000010185422    12.000000000000
         C            1.556667951969     1.964677895050     0.000001814578    12.000000000000
         C           -1.052768048031     0.316711895050     0.000001814578    12.000000000000
         C            1.954609951969    -1.635606104950    -0.000000185422    12.000000000000
         C           -3.424763048031    -0.321458104950    -0.000006185422    12.000000000000
         H            3.530287951969    -0.020063104950    -0.000012185422     1.007825032230
         H            1.069806951969     2.373402895050    -0.883911185422     1.007825032230
         H            1.069851951969     2.373388895050     0.883947814578     1.007825032230
         H            2.617847951969     2.216806895050    -0.000022185422     1.007825032230
         H            2.472199951969    -2.585934104950    -0.000005185422     1.007825032230
         H           -1.687667048031    -1.601798104950    -0.000001185422     1.007825032230
         H           -3.917045048031    -0.722489104950     0.890801814578     1.007825032230
         H           -3.917039048031    -0.722492104950    -0.890816185422     1.007825032230
         H           -3.511135048031     0.765082895050    -0.000009185422     1.007825032230

  Basis Set: AUG-CC-PVTZ
    Blend: AUG-CC-PVTZ
  Basis Set: (AUG-CC-PVTZ AUX)
    Blend: AUG-CC-PVTZ-JKFIT
	 Reference Energy          =    -470.8291538119904089 [Eh]
	 Singles Energy            =      -0.0000000000000000 [Eh]
	 Same-Spin Energy          =      -0.5005453424422674 [Eh]
	 Opposite-Spin Energy      =      -1.5390952190879599 [Eh]
	 Correlation Energy        =      -2.0396405615302271 [Eh]
	 Total Energy              =    -472.8687943735206431 [Eh]

	 ================> DF-SCS-MP2 Energies <==================
	-----------------------------------------------------------
	 SCS Same-Spin Scale       =       0.3333333333333333 [-]
	 SCS Opposite-Spin Scale   =       1.2000000000000000 [-]
	 SCS Same-Spin Energy      =      -0.1668484474807558 [Eh]
	 SCS Opposite-Spin Energy  =      -1.8469142629055517 [Eh]
	 SCS Correlation Energy    =      -2.0137627103863074 [Eh]
	 SCS Total Energy          =    -472.8429165223766972 [Eh]
	-----------------------------------------------------------

  Dipole Moment: [D]
     X:     1.5259      Y:     0.0418      Z:    -0.0000     Total:     1.5265

*** Psi4 exiting successfully. Buy a developer a beer!
