                               Psi4 1.3.2 release

  ==> Input File <==

--------------------------------------------------------------------------
#psi4
#
memory 32 gb

molecule  {
0 1
  O       -1.2482290     1.5306510     0.0000030
  N        1.4640540     0.4968240    -0.0000070
  N        0.6053200    -1.5732460     0.0000100
  N       -1.9984820    -0.6503890    -0.0000010
  C        0.3259400    -0.2627350     0.0000100
  C        2.5213300    -0.3786110    -0.0000100
  C        1.5711040     1.9546380     0.0000020
  C       -1.0383320     0.3066720     0.0000020
  C        1.8891305    -1.8289859     0.0000014
  C       -3.4103270    -0.3314980    -0.0000060
  H        3.5447240    -0.0301030    -0.0000120
  H        1.0842430     2.3633630    -0.8839110
  H        1.0842880     2.3633490     0.8839480
  H        2.6322840     2.2067670    -0.0000220
  H        2.4866360    -2.5959740    -0.0000050
  H       -1.6732310    -1.6118380    -0.0000010
  H       -3.9026090    -0.7325290     0.8908020
  H       -3.9026030    -0.7325320    -0.8908160
  H       -3.4966990     0.7550430    -0.0000090
units angstrom
no_reorient  #important for SAPT in psi4, default
symmetry c1  #important for SAPT in psi4, default
}

set PROPERTIES_ORIGIN ["COM"]
properties('MP2/aug-cc-pvtz', properties = ['dipole'])
--------------------------------------------------------------------------

    Molecular point group: c1
  Charge       = 0
  Multiplicity = 1
  Basis Set: AUG-CC-PVTZ
    Blend: AUG-CC-PVTZ
  Basis Set: (AUG-CC-PVTZ AUX)
    Blend: AUG-CC-PVTZ-JKFIT

    Orbital Energies [Eh]
    ---------------------

    Doubly Occupied:

       1A    -20.515686     2A    -15.653841     3A    -15.579049
       4A    -15.570344     5A    -11.357318     6A    -11.294975
       7A    -11.290786     8A    -11.279132     9A    -11.270886
      10A    -11.254888    11A     -1.376742    12A     -1.342599
      13A     -1.231416    14A     -1.204178    15A     -1.020368
      16A     -0.984929    17A     -0.945184    18A     -0.845170
      19A     -0.822998    20A     -0.768578    21A     -0.731132
      22A     -0.675210    23A     -0.655348    24A     -0.654082
      25A     -0.630266    26A     -0.615996    27A     -0.585704
      28A     -0.575676    29A     -0.570288    30A     -0.560303
      31A     -0.541310    32A     -0.524891    33A     -0.439725
      34A     -0.422649    35A     -0.413547    36A     -0.387881
      37A     -0.295497

  @DF-RHF Final Energy:  -470.78704373626528

   => Energetics <=

    Nuclear Repulsion Energy =            524.9574505897045356
    One-Electron Energy =               -1681.7118417753695212
    Two-Electron Energy =                 685.9673474493998810
    Total Energy =                       -470.7870437362652183
  Basis Set: (AUG-CC-PVTZ AUX)
    Blend: AUG-CC-PVTZ-RI
    Molecular point group: c1

    Geometry (in Angstrom), charge = 0, multiplicity = 1:

       Center              X                  Y                   Z               Mass
    ------------   -----------------  -----------------  -----------------  -----------------
         O           -1.256669075881     1.560729728619     0.000002693780    15.994914619570
         N            1.455613924119     0.526902728619    -0.000007306220    14.003074004430
         N            0.596879924119    -1.543167271381     0.000009693780    14.003074004430
         N           -2.006922075881    -0.620310271381    -0.000001306220    14.003074004430
         C            0.317499924119    -0.232656271381     0.000009693780    12.000000000000
         C            2.512889924119    -0.348532271381    -0.000010306220    12.000000000000
         C            1.562663924119     1.984716728619     0.000001693780    12.000000000000
         C           -1.046772075881     0.336750728619     0.000001693780    12.000000000000
         C            1.880690424119    -1.798907171381     0.000001093780    12.000000000000
         C           -3.418767075881    -0.301419271381    -0.000006306220    12.000000000000
         H            3.536283924119    -0.000024271381    -0.000012306220     1.007825032230
         H            1.075802924119     2.393441728619    -0.883911306220     1.007825032230
         H            1.075847924119     2.393427728619     0.883947693780     1.007825032230
         H            2.623843924119     2.236845728619    -0.000022306220     1.007825032230
         H            2.478195924119    -2.565895271381    -0.000005306220     1.007825032230
         H           -1.681671075881    -1.581759271381    -0.000001306220     1.007825032230
         H           -3.911049075881    -0.702450271381     0.890801693780     1.007825032230
         H           -3.911043075881    -0.702453271381    -0.890816306220     1.007825032230
         H           -3.505139075881     0.785121728619    -0.000009306220     1.007825032230

  Basis Set: AUG-CC-PVTZ
    Blend: AUG-CC-PVTZ
  Basis Set: (AUG-CC-PVTZ AUX)
    Blend: AUG-CC-PVTZ-JKFIT
	 Reference Energy          =    -470.7870437362652751 [Eh]
	 Singles Energy            =      -0.0000000000000000 [Eh]
	 Same-Spin Energy          =      -0.5021655187814218 [Eh]
	 Opposite-Spin Energy      =      -1.5416736492807681 [Eh]
	 Correlation Energy        =      -2.0438391680621901 [Eh]
	 Total Energy              =    -472.8308829043274386 [Eh]

	 ================> DF-SCS-MP2 Energies <==================
	-----------------------------------------------------------
	 SCS Same-Spin Scale       =       0.3333333333333333 [-]
	 SCS Opposite-Spin Scale   =       1.2000000000000000 [-]
	 SCS Same-Spin Energy      =      -0.1673885062604739 [Eh]
	 SCS Opposite-Spin Energy  =      -1.8500083791369217 [Eh]
	 SCS Correlation Energy    =      -2.0173968853973956 [Eh]
	 SCS Total Energy          =    -472.8044406216626498 [Eh]
	-----------------------------------------------------------

  Dipole Moment: [D]
     X:     1.4527      Y:    -0.1909      Z:    -0.0000     Total:     1.4652

*** Psi4 exiting successfully. Buy a developer a beer!
