                               Psi4 1.3.2 release

  ==> Input File <==

--------------------------------------------------------------------------
#psi4
#
memory 32 gb

molecule  {
0 1
  O       -1.2482290     1.5306510     0.0000030
  N        1.4640540     0.4968240    -0.0000070
  N        0.6053200    -1.5732460     0.0000100
  N       -1.9984820    -0.6503890    -0.0000010
  C        0.3467899    -0.3605373     0.0000100
  C        2.5213300    -0.3786110    -0.0000100
  C        1.5711040     1.9546380     0.0000020
  C       -1.0383320     0.3066720     0.0000020
  C        1.9690460    -1.6456460     0.0000000
  C       -3.4103270    -0.3314980    -0.0000060
  H        3.5447240    -0.0301030    -0.0000120
  H        1.0842430     2.3633630    -0.8839110
  H        1.0842880     2.3633490     0.8839480
  H        2.6322840     2.2067670    -0.0000220
  H        2.4866360    -2.5959740    -0.0000050
  H       -1.6732310    -1.6118380    -0.0000010
  H       -3.9026090    -0.7325290     0.8908020
  H       -3.9026030    -0.7325320    -0.8908160
  H       -3.4966990     0.7550430    -0.0000090
units angstrom
no_reorient  #important for SAPT in psi4, default
symmetry c1  #important for SAPT in psi4, default
}

set PROPERTIES_ORIGIN ["COM"]
properties('MP2/aug-cc-pvtz', properties = ['dipole'])
--------------------------------------------------------------------------

    Molecular point group: c1
  Charge       = 0
  Multiplicity = 1
  Basis Set: AUG-CC-PVTZ
    Blend: AUG-CC-PVTZ
  Basis Set: (AUG-CC-PVTZ AUX)
    Blend: AUG-CC-PVTZ-JKFIT

    Orbital Energies [Eh]
    ---------------------

    Doubly Occupied:

       1A    -20.525693     2A    -15.624895     3A    -15.585796
       4A    -15.561295     5A    -11.364957     6A    -11.304511
       7A    -11.273122     8A    -11.272459     9A    -11.258613
      10A    -11.251424    11A     -1.381851    12A     -1.353252
      13A     -1.236718    14A     -1.207361    15A     -1.032098
      16A     -0.976458    17A     -0.946687    18A     -0.832073
      19A     -0.817032    20A     -0.772887    21A     -0.732933
      22A     -0.657202    23A     -0.653320    24A     -0.645504
      25A     -0.618943    26A     -0.608835    27A     -0.598006
      28A     -0.571080    29A     -0.565163    30A     -0.561915
      31A     -0.546485    32A     -0.531440    33A     -0.471819
      34A     -0.426072    35A     -0.407661    36A     -0.391103
      37A     -0.323014

  @DF-RHF Final Energy:  -470.82658302327116

   => Energetics <=

    Nuclear Repulsion Energy =            527.2533731110721646
    One-Electron Energy =               -1686.3805581436004104
    Two-Electron Energy =                 688.3006020092572044
    Total Energy =                       -470.8265830232711551
  Basis Set: (AUG-CC-PVTZ AUX)
    Blend: AUG-CC-PVTZ-RI
    Molecular point group: c1

    Geometry (in Angstrom), charge = 0, multiplicity = 1:

       Center              X                  Y                   Z               Mass
    ------------   -----------------  -----------------  -----------------  -----------------
         O           -1.265363583225     1.553349146679     0.000002814578    15.994914619570
         N            1.446919416775     0.519522146679    -0.000007185422    14.003074004430
         N            0.588185416775    -1.550547853321     0.000009814578    14.003074004430
         N           -2.015616583225    -0.627690853321    -0.000001185422    14.003074004430
         C            0.329655316775    -0.337839153321     0.000009814578    12.000000000000
         C            2.504195416775    -0.355912853321    -0.000010185422    12.000000000000
         C            1.553969416775     1.977336146679     0.000001814578    12.000000000000
         C           -1.055466583225     0.329370146679     0.000001814578    12.000000000000
         C            1.951911416775    -1.622947853321    -0.000000185422    12.000000000000
         C           -3.427461583225    -0.308799853321    -0.000006185422    12.000000000000
         H            3.527589416775    -0.007404853321    -0.000012185422     1.007825032230
         H            1.067108416775     2.386061146679    -0.883911185422     1.007825032230
         H            1.067153416775     2.386047146679     0.883947814578     1.007825032230
         H            2.615149416775     2.229465146679    -0.000022185422     1.007825032230
         H            2.469501416775    -2.573275853321    -0.000005185422     1.007825032230
         H           -1.690365583225    -1.589139853321    -0.000001185422     1.007825032230
         H           -3.919743583225    -0.709830853321     0.890801814578     1.007825032230
         H           -3.919737583225    -0.709833853321    -0.890816185422     1.007825032230
         H           -3.513833583225     0.777741146679    -0.000009185422     1.007825032230

  Basis Set: AUG-CC-PVTZ
    Blend: AUG-CC-PVTZ
  Basis Set: (AUG-CC-PVTZ AUX)
    Blend: AUG-CC-PVTZ-JKFIT
	 Reference Energy          =    -470.8265830232711551 [Eh]
	 Singles Energy            =      -0.0000000000000000 [Eh]
	 Same-Spin Energy          =      -0.4972444140171123 [Eh]
	 Opposite-Spin Energy      =      -1.5340358463396839 [Eh]
	 Correlation Energy        =      -2.0312802603567963 [Eh]
	 Total Energy              =    -472.8578632836279780 [Eh]

	 ================> DF-SCS-MP2 Energies <==================
	-----------------------------------------------------------
	 SCS Same-Spin Scale       =       0.3333333333333333 [-]
	 SCS Opposite-Spin Scale   =       1.2000000000000000 [-]
	 SCS Same-Spin Energy      =      -0.1657481380057041 [Eh]
	 SCS Opposite-Spin Energy  =      -1.8408430156076205 [Eh]
	 SCS Correlation Energy    =      -2.0065911536133245 [Eh]
	 SCS Total Energy          =    -472.8331741768844836 [Eh]
	-----------------------------------------------------------

  Dipole Moment: [D]
     X:     1.1114      Y:    -0.1019      Z:    -0.0000     Total:     1.1160

*** Psi4 exiting successfully. Buy a developer a beer!
