                               Psi4 1.4a3.dev225

  ==> Input File <==

--------------------------------------------------------------------------
#psi4
#
memory 32 gb

molecule  {
0 1
  O       -1.2482290     1.5306510     0.0000030
  N        1.4640540     0.4968240    -0.0000070
  N        0.6053200    -1.5732460     0.0000100
  N       -1.9984820    -0.6503890    -0.0000010
  C        0.3259400    -0.2627350     0.0000100
  C        2.5213300    -0.3786110    -0.0000100
  C        1.5711040     1.9546380     0.0000020
  C       -1.0383320     0.3066720     0.0000020
  C        1.9490671    -1.6914810     0.0000004
  C       -3.4103270    -0.3314980    -0.0000060
  H        3.5447240    -0.0301030    -0.0000120
  H        1.0842430     2.3633630    -0.8839110
  H        1.0842880     2.3633490     0.8839480
  H        2.6322840     2.2067670    -0.0000220
  H        2.4866360    -2.5959740    -0.0000050
  H       -1.6732310    -1.6118380    -0.0000010
  H       -3.9026090    -0.7325290     0.8908020
  H       -3.9026030    -0.7325320    -0.8908160
  H       -3.4966990     0.7550430    -0.0000090
units angstrom
no_reorient  #important for SAPT in psi4, default
symmetry c1  #important for SAPT in psi4, default
}

set PROPERTIES_ORIGIN ["COM"]
properties('MP2/aug-cc-pvtz', properties = ['dipole'])
--------------------------------------------------------------------------

    Molecular point group: c1
  Charge       = 0
  Multiplicity = 1
  Basis Set: AUG-CC-PVTZ
    Blend: AUG-CC-PVTZ
  Basis Set: (AUG-CC-PVTZ AUX)
    Blend: AUG-CC-PVTZ-JKFIT

    Orbital Energies [Eh]
    ---------------------

    Doubly Occupied:

       1A    -20.520724     2A    -15.642178     3A    -15.583440
       4A    -15.566235     5A    -11.361047     6A    -11.302398
       7A    -11.278135     8A    -11.276089     9A    -11.259064
      10A    -11.257500    11A     -1.380493    12A     -1.345361
      13A     -1.233731    14A     -1.194630    15A     -1.030287
      16A     -0.980810    17A     -0.949195    18A     -0.838722
      19A     -0.818792    20A     -0.771591    21A     -0.734418
      22A     -0.659558    23A     -0.656001    24A     -0.646713
      25A     -0.618395    26A     -0.615424    27A     -0.592082
      28A     -0.582850    29A     -0.568205    30A     -0.560167
      31A     -0.544716    32A     -0.528608    33A     -0.453715
      34A     -0.432186    35A     -0.402036    36A     -0.389376
      37A     -0.314954

  @DF-RHF Final Energy:  -470.83092276767843

   => Energetics <=

    Nuclear Repulsion Energy =            526.5671344239568725
    One-Electron Energy =               -1685.0164590816148120
    Two-Electron Energy =                 687.6184018899796229
    Total Energy =                       -470.8309227676784303
  Basis Set: (AUG-CC-PVTZ AUX)
    Blend: AUG-CC-PVTZ-RI
    Molecular point group: c1

    Geometry (in Angstrom), charge = 0, multiplicity = 1:

       Center              X                  Y                   Z               Mass
    ------------   -----------------  -----------------  -----------------  -----------------
         O           -1.261840684478     1.548865166350     0.000002780064    15.994914619570
         N            1.450442315522     0.515038166350    -0.000007219936    14.003074004430
         N            0.591708315522    -1.555031833650     0.000009780064    14.003074004430
         N           -2.012093684478    -0.632174833650    -0.000001219936    14.003074004430
         C            0.312328315522    -0.244520833650     0.000009780064    12.000000000000
         C            2.507718315522    -0.360396833650    -0.000010219936    12.000000000000
         C            1.557492315522     1.972852166350     0.000001780064    12.000000000000
         C           -1.051943684478     0.324886166350     0.000001780064    12.000000000000
         C            1.935455415522    -1.673266833650     0.000000180064    12.000000000000
         C           -3.423938684478    -0.313283833650    -0.000006219936    12.000000000000
         H            3.531112315522    -0.011888833650    -0.000012219936     1.007825032230
         H            1.070631315522     2.381577166350    -0.883911219936     1.007825032230
         H            1.070676315522     2.381563166350     0.883947780064     1.007825032230
         H            2.618672315522     2.224981166350    -0.000022219936     1.007825032230
         H            2.473024315522    -2.577759833650    -0.000005219936     1.007825032230
         H           -1.686842684478    -1.593623833650    -0.000001219936     1.007825032230
         H           -3.916220684478    -0.714314833650     0.890801780064     1.007825032230
         H           -3.916214684478    -0.714317833650    -0.890816219936     1.007825032230
         H           -3.510310684478     0.773257166350    -0.000009219936     1.007825032230

  Basis Set: AUG-CC-PVTZ
    Blend: AUG-CC-PVTZ
  Basis Set: (AUG-CC-PVTZ AUX)
    Blend: AUG-CC-PVTZ-JKFIT
	 Reference Energy          =    -470.8309227676784303 [Eh]
	 Singles Energy            =      -0.0000000000000000 [Eh]
	 Same-Spin Energy          =      -0.5000000699301184 [Eh]
	 Opposite-Spin Energy      =      -1.5379149684671909 [Eh]
	 Correlation Energy        =      -2.0379150383973093 [Eh]
	 Total Energy              =    -472.8688378060757600 [Eh]

	 ================> DF-SCS-MP2 Energies <==================
	-----------------------------------------------------------
	 SCS Same-Spin Scale       =       0.3333333333333333 [-]
	 SCS Opposite-Spin Scale   =       1.2000000000000000 [-]
	 SCS Same-Spin Energy      =      -0.1666666899767061 [Eh]
	 SCS Opposite-Spin Energy  =      -1.8454979621606289 [Eh]
	 SCS Correlation Energy    =      -2.0121646521373351 [Eh]
	 SCS Total Energy          =    -472.8430874198157881 [Eh]
	-----------------------------------------------------------

  Dipole Moment: [D]
     X:     1.4282      Y:    -0.0287      Z:    -0.0000     Total:     1.4285

*** Psi4 exiting successfully. Buy a developer a beer!
