                               Psi4 1.3.2 release

  ==> Input File <==

--------------------------------------------------------------------------
#psi4
#
memory 32 gb

molecule  {
0 1
  O       -1.2482290     1.5306510     0.0000030
  N        1.4771368     0.4768455    -0.0000066
  N        0.6053200    -1.5732460     0.0000100
  N       -1.9984820    -0.6503890    -0.0000010
  C        0.3259400    -0.2627350     0.0000100
  C        2.5213300    -0.3786110    -0.0000100
  C        1.5711040     1.9546380     0.0000020
  C       -1.0383320     0.3066720     0.0000020
  C        1.9690460    -1.6456460     0.0000000
  C       -3.4103270    -0.3314980    -0.0000060
  H        3.5447240    -0.0301030    -0.0000120
  H        1.0842430     2.3633630    -0.8839110
  H        1.0842880     2.3633490     0.8839480
  H        2.6322840     2.2067670    -0.0000220
  H        2.4866360    -2.5959740    -0.0000050
  H       -1.6732310    -1.6118380    -0.0000010
  H       -3.9026090    -0.7325290     0.8908020
  H       -3.9026030    -0.7325320    -0.8908160
  H       -3.4966990     0.7550430    -0.0000090
units angstrom
no_reorient  #important for SAPT in psi4, default
symmetry c1  #important for SAPT in psi4, default
}

set PROPERTIES_ORIGIN ["COM"]
properties('MP2/aug-cc-pvtz', properties = ['dipole'])
--------------------------------------------------------------------------

    Molecular point group: c1
  Charge       = 0
  Multiplicity = 1
  Basis Set: AUG-CC-PVTZ
    Blend: AUG-CC-PVTZ
  Basis Set: (AUG-CC-PVTZ AUX)
    Blend: AUG-CC-PVTZ-JKFIT

    Orbital Energies [Eh]
    ---------------------

    Doubly Occupied:

       1A    -20.521751     2A    -15.638159     3A    -15.584484
       4A    -15.565222     5A    -11.362269     6A    -11.302467
       7A    -11.277078     8A    -11.271244     9A    -11.258145
      10A    -11.253376    11A     -1.381809    12A     -1.349520
      13A     -1.234263    14A     -1.188849    15A     -1.037277
      16A     -0.978399    17A     -0.950105    18A     -0.840957
      19A     -0.815476    20A     -0.772556    21A     -0.735103
      22A     -0.662192    23A     -0.656225    24A     -0.645282
      25A     -0.618921    26A     -0.604262    27A     -0.590540
      28A     -0.583967    29A     -0.565998    30A     -0.561226
      31A     -0.545478    32A     -0.530834    33A     -0.457211
      34A     -0.433700    35A     -0.400579    36A     -0.388965
      37A     -0.321717

  @DF-RHF Final Energy:  -470.83497214879486

   => Energetics <=

    Nuclear Repulsion Energy =            527.2315371689853691
    One-Electron Energy =               -1686.3618051232372181
    Two-Electron Energy =                 688.2952958054570445
    Total Energy =                       -470.8349721487948045
  Basis Set: (AUG-CC-PVTZ AUX)
    Blend: AUG-CC-PVTZ-RI
    Molecular point group: c1

    Geometry (in Angstrom), charge = 0, multiplicity = 1:

       Center              X                  Y                   Z               Mass
    ------------   -----------------  -----------------  -----------------  -----------------
         O           -1.264881831692     1.546921895184     0.000002774303    15.994914619570
         N            1.460483968308     0.493116395184    -0.000006825697    14.003074004430
         N            0.588667168308    -1.556975104816     0.000009774303    14.003074004430
         N           -2.015134831692    -0.634118104816    -0.000001225697    14.003074004430
         C            0.309287168308    -0.246464104816     0.000009774303    12.000000000000
         C            2.504677168308    -0.362340104816    -0.000010225697    12.000000000000
         C            1.554451168308     1.970908895184     0.000001774303    12.000000000000
         C           -1.054984831692     0.322942895184     0.000001774303    12.000000000000
         C            1.952393168308    -1.629375104816    -0.000000225697    12.000000000000
         C           -3.426979831692    -0.315227104816    -0.000006225697    12.000000000000
         H            3.528071168308    -0.013832104816    -0.000012225697     1.007825032230
         H            1.067590168308     2.379633895184    -0.883911225697     1.007825032230
         H            1.067635168308     2.379619895184     0.883947774303     1.007825032230
         H            2.615631168308     2.223037895184    -0.000022225697     1.007825032230
         H            2.469983168308    -2.579703104816    -0.000005225697     1.007825032230
         H           -1.689883831692    -1.595567104816    -0.000001225697     1.007825032230
         H           -3.919261831692    -0.716258104816     0.890801774303     1.007825032230
         H           -3.919255831692    -0.716261104816    -0.890816225697     1.007825032230
         H           -3.513351831692     0.771313895184    -0.000009225697     1.007825032230

  Basis Set: AUG-CC-PVTZ
    Blend: AUG-CC-PVTZ
  Basis Set: (AUG-CC-PVTZ AUX)
    Blend: AUG-CC-PVTZ-JKFIT
	 Reference Energy          =    -470.8349721487948614 [Eh]
	 Singles Energy            =      -0.0000000000000000 [Eh]
	 Same-Spin Energy          =      -0.4993226999603155 [Eh]
	 Opposite-Spin Energy      =      -1.5367543601062499 [Eh]
	 Correlation Energy        =      -2.0360770600665656 [Eh]
	 Total Energy              =    -472.8710492088614501 [Eh]

	 ================> DF-SCS-MP2 Energies <==================
	-----------------------------------------------------------
	 SCS Same-Spin Scale       =       0.3333333333333333 [-]
	 SCS Opposite-Spin Scale   =       1.2000000000000000 [-]
	 SCS Same-Spin Energy      =      -0.1664408999867718 [Eh]
	 SCS Opposite-Spin Energy  =      -1.8441052321274998 [Eh]
	 SCS Correlation Energy    =      -2.0105461321142717 [Eh]
	 SCS Total Energy          =    -472.8455182809091184 [Eh]
	-----------------------------------------------------------

  Dipole Moment: [D]
     X:     1.4094      Y:     0.0747      Z:    -0.0000     Total:     1.4114

*** Psi4 exiting successfully. Buy a developer a beer!
