                               Psi4 1.3.2 release

  ==> Input File <==

--------------------------------------------------------------------------
#psi4
#
memory 32 gb

molecule  {
0 1
  O       -1.2695584     1.5268014     0.0000028
  N        1.4640540     0.4968240    -0.0000070
  N        0.6053200    -1.5732460     0.0000100
  N       -1.9984820    -0.6503890    -0.0000010
  C        0.3259400    -0.2627350     0.0000100
  C        2.5213300    -0.3786110    -0.0000100
  C        1.5711040     1.9546380     0.0000020
  C       -1.0383320     0.3066720     0.0000020
  C        1.9690460    -1.6456460     0.0000000
  C       -3.4103270    -0.3314980    -0.0000060
  H        3.5447240    -0.0301030    -0.0000120
  H        1.0842430     2.3633630    -0.8839110
  H        1.0842880     2.3633490     0.8839480
  H        2.6322840     2.2067670    -0.0000220
  H        2.4866360    -2.5959740    -0.0000050
  H       -1.6732310    -1.6118380    -0.0000010
  H       -3.9026090    -0.7325290     0.8908020
  H       -3.9026030    -0.7325320    -0.8908160
  H       -3.4966990     0.7550430    -0.0000090
units angstrom
no_reorient  #important for SAPT in psi4, default
symmetry c1  #important for SAPT in psi4, default
}

set PROPERTIES_ORIGIN ["COM"]
properties('MP2/aug-cc-pvtz', properties = ['dipole'])
--------------------------------------------------------------------------

    Molecular point group: c1
  Charge       = 0
  Multiplicity = 1
  Basis Set: AUG-CC-PVTZ
    Blend: AUG-CC-PVTZ
  Basis Set: (AUG-CC-PVTZ AUX)
    Blend: AUG-CC-PVTZ-JKFIT

    Orbital Energies [Eh]
    ---------------------

    Doubly Occupied:

       1A    -20.521797     2A    -15.638482     3A    -15.583678
       4A    -15.566179     5A    -11.361898     6A    -11.305774
       7A    -11.275644     8A    -11.273128     9A    -11.257389
      10A    -11.255918    11A     -1.381548    12A     -1.347104
      13A     -1.233298    14A     -1.191200    15A     -1.036471
      16A     -0.979871    17A     -0.950194    18A     -0.841206
      19A     -0.814987    20A     -0.772234    21A     -0.735117
      22A     -0.659793    23A     -0.656721    24A     -0.645303
      25A     -0.618681    26A     -0.605577    27A     -0.596141
      28A     -0.583314    29A     -0.564330    30A     -0.560591
      31A     -0.544513    32A     -0.529676    33A     -0.458451
      34A     -0.433881    35A     -0.399353    36A     -0.388288
      37A     -0.323697

  @DF-RHF Final Energy:  -470.83517173373713

   => Energetics <=

    Nuclear Repulsion Energy =            527.0063151064807698
    One-Electron Energy =               -1685.9001231431054748
    Two-Electron Energy =                 688.0586363028875212
    Total Energy =                       -470.8351717337371838
  Basis Set: (AUG-CC-PVTZ AUX)
    Blend: AUG-CC-PVTZ-RI
    Molecular point group: c1

    Geometry (in Angstrom), charge = 0, multiplicity = 1:

       Center              X                  Y                   Z               Mass
    ------------   -----------------  -----------------  -----------------  -----------------
         O           -1.282440870375     1.541503450475     0.000002637580    15.994914619570
         N            1.451171529625     0.511526050475    -0.000007162420    14.003074004430
         N            0.592437529625    -1.558543949525     0.000009837580    14.003074004430
         N           -2.011364470375    -0.635686949525    -0.000001162420    14.003074004430
         C            0.313057529625    -0.248032949525     0.000009837580    12.000000000000
         C            2.508447529625    -0.363908949525    -0.000010162420    12.000000000000
         C            1.558221529625     1.969340050475     0.000001837580    12.000000000000
         C           -1.051214470375     0.321374050475     0.000001837580    12.000000000000
         C            1.956163529625    -1.630943949525    -0.000000162420    12.000000000000
         C           -3.423209470375    -0.316795949525    -0.000006162420    12.000000000000
         H            3.531841529625    -0.015400949525    -0.000012162420     1.007825032230
         H            1.071360529625     2.378065050475    -0.883911162420     1.007825032230
         H            1.071405529625     2.378051050475     0.883947837580     1.007825032230
         H            2.619401529625     2.221469050475    -0.000022162420     1.007825032230
         H            2.473753529625    -2.581271949525    -0.000005162420     1.007825032230
         H           -1.686113470375    -1.597135949525    -0.000001162420     1.007825032230
         H           -3.915491470375    -0.717826949525     0.890801837580     1.007825032230
         H           -3.915485470375    -0.717829949525    -0.890816162420     1.007825032230
         H           -3.509581470375     0.769745050475    -0.000009162420     1.007825032230

  Basis Set: AUG-CC-PVTZ
    Blend: AUG-CC-PVTZ
  Basis Set: (AUG-CC-PVTZ AUX)
    Blend: AUG-CC-PVTZ-JKFIT
	 Reference Energy          =    -470.8351717337371269 [Eh]
	 Singles Energy            =      -0.0000000000000000 [Eh]
	 Same-Spin Energy          =      -0.4993434644897128 [Eh]
	 Opposite-Spin Energy      =      -1.5370893623973934 [Eh]
	 Correlation Energy        =      -2.0364328268871064 [Eh]
	 Total Energy              =    -472.8716045606242346 [Eh]

	 ================> DF-SCS-MP2 Energies <==================
	-----------------------------------------------------------
	 SCS Same-Spin Scale       =       0.3333333333333333 [-]
	 SCS Opposite-Spin Scale   =       1.2000000000000000 [-]
	 SCS Same-Spin Energy      =      -0.1664478214965709 [Eh]
	 SCS Opposite-Spin Energy  =      -1.8445072348768718 [Eh]
	 SCS Correlation Energy    =      -2.0109550563734429 [Eh]
	 SCS Total Energy          =    -472.8461267901105884 [Eh]
	-----------------------------------------------------------

  Dipole Moment: [D]
     X:     1.4777      Y:     0.0202      Z:    -0.0000     Total:     1.4779

*** Psi4 exiting successfully. Buy a developer a beer!
