                               Psi4 1.4a3.dev225

  ==> Input File <==

--------------------------------------------------------------------------
#psi4
#
memory 32 gb

molecule  {
0 1
  O       -1.2482290     1.5306510     0.0000030
  N        1.4640540     0.4968240    -0.0000070
  N        0.6053200    -1.5732460     0.0000100
  N       -1.9984820    -0.6503890    -0.0000010
  C        0.3259400    -0.2627350     0.0000100
  C        2.5213300    -0.3786110    -0.0000100
  C        1.5711040     1.9546380     0.0000020
  C       -1.0383320     0.3066720     0.0000020
  C        1.9191163    -1.6429952     0.0000004
  C       -3.4103270    -0.3314980    -0.0000060
  H        3.5447240    -0.0301030    -0.0000120
  H        1.0842430     2.3633630    -0.8839110
  H        1.0842880     2.3633490     0.8839480
  H        2.6322840     2.2067670    -0.0000220
  H        2.4866360    -2.5959740    -0.0000050
  H       -1.6732310    -1.6118380    -0.0000010
  H       -3.9026090    -0.7325290     0.8908020
  H       -3.9026030    -0.7325320    -0.8908160
  H       -3.4966990     0.7550430    -0.0000090
units angstrom
no_reorient  #important for SAPT in psi4, default
symmetry c1  #important for SAPT in psi4, default
}

set PROPERTIES_ORIGIN ["COM"]
properties('MP2/aug-cc-pvtz', properties = ['dipole'])
--------------------------------------------------------------------------

    Molecular point group: c1
  Charge       = 0
  Multiplicity = 1
  Basis Set: AUG-CC-PVTZ
    Blend: AUG-CC-PVTZ
  Basis Set: (AUG-CC-PVTZ AUX)
    Blend: AUG-CC-PVTZ-JKFIT

    Orbital Energies [Eh]
    ---------------------

    Doubly Occupied:

       1A    -20.520670     2A    -15.641748     3A    -15.583996
       4A    -15.563912     5A    -11.360911     6A    -11.302693
       7A    -11.275660     8A    -11.272202     9A    -11.257840
      10A    -11.256565    11A     -1.381977    12A     -1.350976
      13A     -1.234576    14A     -1.202034    15A     -1.032958
      16A     -0.983253    17A     -0.949094    18A     -0.837203
      19A     -0.814886    20A     -0.773621    21A     -0.737127
      22A     -0.659593    23A     -0.657563    24A     -0.645683
      25A     -0.618699    26A     -0.608083    27A     -0.593957
      28A     -0.581887    29A     -0.563264    30A     -0.562860
      31A     -0.544975    32A     -0.530189    33A     -0.456984
      34A     -0.433510    35A     -0.405078    36A     -0.390385
      37A     -0.316970

  @DF-RHF Final Energy:  -470.83218374515616

   => Energetics <=

    Nuclear Repulsion Energy =            527.9565277217434414
    One-Electron Energy =               -1687.7702623555715036
    Two-Electron Energy =                 688.9815508886719044
    Total Energy =                       -470.8321837451561578
  Basis Set: (AUG-CC-PVTZ AUX)
    Blend: AUG-CC-PVTZ-RI
    Molecular point group: c1

    Geometry (in Angstrom), charge = 0, multiplicity = 1:

       Center              X                  Y                   Z               Mass
    ------------   -----------------  -----------------  -----------------  -----------------
         O           -1.259256390161     1.544681586032     0.000002780064    15.994914619570
         N            1.453026609839     0.510854586032    -0.000007219936    14.003074004430
         N            0.594292609839    -1.559215413968     0.000009780064    14.003074004430
         N           -2.009509390161    -0.636358413968    -0.000001219936    14.003074004430
         C            0.314912609839    -0.248704413968     0.000009780064    12.000000000000
         C            2.510302609839    -0.364580413968    -0.000010219936    12.000000000000
         C            1.560076609839     1.968668586032     0.000001780064    12.000000000000
         C           -1.049359390161     0.320702586032     0.000001780064    12.000000000000
         C            1.908088909839    -1.628964613968     0.000000180064    12.000000000000
         C           -3.421354390161    -0.317467413968    -0.000006219936    12.000000000000
         H            3.533696609839    -0.016072413968    -0.000012219936     1.007825032230
         H            1.073215609839     2.377393586032    -0.883911219936     1.007825032230
         H            1.073260609839     2.377379586032     0.883947780064     1.007825032230
         H            2.621256609839     2.220797586032    -0.000022219936     1.007825032230
         H            2.475608609839    -2.581943413968    -0.000005219936     1.007825032230
         H           -1.684258390161    -1.597807413968    -0.000001219936     1.007825032230
         H           -3.913636390161    -0.718498413968     0.890801780064     1.007825032230
         H           -3.913630390161    -0.718501413968    -0.890816219936     1.007825032230
         H           -3.507726390161     0.769073586032    -0.000009219936     1.007825032230

  Basis Set: AUG-CC-PVTZ
    Blend: AUG-CC-PVTZ
  Basis Set: (AUG-CC-PVTZ AUX)
    Blend: AUG-CC-PVTZ-JKFIT
	 Reference Energy          =    -470.8321837451561578 [Eh]
	 Singles Energy            =      -0.0000000000000000 [Eh]
	 Same-Spin Energy          =      -0.4998963723837379 [Eh]
	 Opposite-Spin Energy      =      -1.5370627885038737 [Eh]
	 Correlation Energy        =      -2.0369591608876116 [Eh]
	 Total Energy              =    -472.8691429060437486 [Eh]

	 ================> DF-SCS-MP2 Energies <==================
	-----------------------------------------------------------
	 SCS Same-Spin Scale       =       0.3333333333333333 [-]
	 SCS Opposite-Spin Scale   =       1.2000000000000000 [-]
	 SCS Same-Spin Energy      =      -0.1666321241279126 [Eh]
	 SCS Opposite-Spin Energy  =      -1.8444753462046484 [Eh]
	 SCS Correlation Energy    =      -2.0111074703325609 [Eh]
	 SCS Total Energy          =    -472.8432912154887049 [Eh]
	-----------------------------------------------------------

  Dipole Moment: [D]
     X:     1.4056      Y:     0.0037      Z:    -0.0000     Total:     1.4056

*** Psi4 exiting successfully. Buy a developer a beer!
