                               Psi4 1.3.2 release

  ==> Input File <==

--------------------------------------------------------------------------
#psi4
#
memory 32 gb

molecule  {
0 1
  O       -1.2482290     1.5306510     0.0000030
  N        1.4640540     0.4968240    -0.0000070
  N        0.6053200    -1.5732460     0.0000100
  N       -1.9984820    -0.6503890    -0.0000010
  C        0.3259400    -0.2627350     0.0000100
  C        2.5213300    -0.3786110    -0.0000100
  C        1.5711040     1.9546380     0.0000020
  C       -1.0383320     0.3066720     0.0000020
  C        1.9690460    -1.6456460     0.0000000
  C       -3.4103270    -0.3314980    -0.0000060
  H        3.3554007    -0.0945754    -0.0000116
  H        1.0842430     2.3633630    -0.8839110
  H        1.0842880     2.3633490     0.8839480
  H        2.6322840     2.2067670    -0.0000220
  H        2.4866360    -2.5959740    -0.0000050
  H       -1.6732310    -1.6118380    -0.0000010
  H       -3.9026090    -0.7325290     0.8908020
  H       -3.9026030    -0.7325320    -0.8908160
  H       -3.4966990     0.7550430    -0.0000090
units angstrom
no_reorient  #important for SAPT in psi4, default
symmetry c1  #important for SAPT in psi4, default
}

set PROPERTIES_ORIGIN ["COM"]
properties('MP2/aug-cc-pvtz', properties = ['dipole'])
--------------------------------------------------------------------------

    Molecular point group: c1
  Charge       = 0
  Multiplicity = 1
  Basis Set: AUG-CC-PVTZ
    Blend: AUG-CC-PVTZ
  Basis Set: (AUG-CC-PVTZ AUX)
    Blend: AUG-CC-PVTZ-JKFIT

    Orbital Energies [Eh]
    ---------------------

    Doubly Occupied:

       1A    -20.522286     2A    -15.636879     3A    -15.584747
       4A    -15.564636     5A    -11.362024     6A    -11.304464
       7A    -11.275227     8A    -11.258268     9A    -11.255045
      10A    -11.249848    11A     -1.381540    12A     -1.346064
      13A     -1.234585    14A     -1.190713    15A     -1.043688
      16A     -0.980538    17A     -0.954220    18A     -0.848593
      19A     -0.831879    20A     -0.775293    21A     -0.737654
      22A     -0.684053    23A     -0.656005    24A     -0.647198
      25A     -0.619101    26A     -0.612049    27A     -0.598098
      28A     -0.584591    29A     -0.563645    30A     -0.560054
      31A     -0.545707    32A     -0.529832    33A     -0.458222
      34A     -0.433833    35A     -0.398841    36A     -0.388595
      37A     -0.323236

  @DF-RHF Final Energy:  -470.79905752982120

   => Energetics <=

    Nuclear Repulsion Energy =            528.3484011536173739
    One-Electron Energy =               -1688.4124118017480214
    Two-Electron Energy =                 689.2649531183093359
    Total Energy =                       -470.7990575298211979
  Basis Set: (AUG-CC-PVTZ AUX)
    Blend: AUG-CC-PVTZ-RI
    Molecular point group: c1

    Geometry (in Angstrom), charge = 0, multiplicity = 1:

       Center              X                  Y                   Z               Mass
    ------------   -----------------  -----------------  -----------------  -----------------
         O           -1.262192596707     1.545377518467     0.000002811680    15.994914619570
         N            1.450090403293     0.511550518467    -0.000007188320    14.003074004430
         N            0.591356403293    -1.558519481533     0.000009811680    14.003074004430
         N           -2.012445596707    -0.635662481533    -0.000001188320    14.003074004430
         C            0.311976403293    -0.248008481533     0.000009811680    12.000000000000
         C            2.507366403293    -0.363884481533    -0.000010188320    12.000000000000
         C            1.557140403293     1.969364518467     0.000001811680    12.000000000000
         C           -1.052295596707     0.321398518467     0.000001811680    12.000000000000
         C            1.955082403293    -1.630919481533    -0.000000188320    12.000000000000
         C           -3.424290596707    -0.316771481533    -0.000006188320    12.000000000000
         H            3.341437103293    -0.079848881533    -0.000011788320     1.007825032230
         H            1.070279403293     2.378089518467    -0.883911188320     1.007825032230
         H            1.070324403293     2.378075518467     0.883947811680     1.007825032230
         H            2.618320403293     2.221493518467    -0.000022188320     1.007825032230
         H            2.472672403293    -2.581247481533    -0.000005188320     1.007825032230
         H           -1.687194596707    -1.597111481533    -0.000001188320     1.007825032230
         H           -3.916572596707    -0.717802481533     0.890801811680     1.007825032230
         H           -3.916566596707    -0.717805481533    -0.890816188320     1.007825032230
         H           -3.510662596707     0.769769518467    -0.000009188320     1.007825032230

  Basis Set: AUG-CC-PVTZ
    Blend: AUG-CC-PVTZ
  Basis Set: (AUG-CC-PVTZ AUX)
    Blend: AUG-CC-PVTZ-JKFIT
	 Reference Energy          =    -470.7990575298211979 [Eh]
	 Singles Energy            =      -0.0000000000000000 [Eh]
	 Same-Spin Energy          =      -0.4990253831378659 [Eh]
	 Opposite-Spin Energy      =      -1.5364903423077929 [Eh]
	 Correlation Energy        =      -2.0355157254456588 [Eh]
	 Total Energy              =    -472.8345732552668323 [Eh]

	 ================> DF-SCS-MP2 Energies <==================
	-----------------------------------------------------------
	 SCS Same-Spin Scale       =       0.3333333333333333 [-]
	 SCS Opposite-Spin Scale   =       1.2000000000000000 [-]
	 SCS Same-Spin Energy      =      -0.1663417943792886 [Eh]
	 SCS Opposite-Spin Energy  =      -1.8437884107693514 [Eh]
	 SCS Correlation Energy    =      -2.0101302051486400 [Eh]
	 SCS Total Energy          =    -472.8091877349698393 [Eh]
	-----------------------------------------------------------

  Dipole Moment: [D]
     X:     1.3699      Y:     0.0118      Z:    -0.0000     Total:     1.3699

*** Psi4 exiting successfully. Buy a developer a beer!
