                               Psi4 1.4a3.dev225

  ==> Input File <==

--------------------------------------------------------------------------
#psi4
#
memory 32 gb

molecule  {
0 1
  O       -1.2482290     1.5306510     0.0000030
  N        1.4640540     0.4968240    -0.0000070
  N        0.6053200    -1.5732460     0.0000100
  N       -1.9984820    -0.6503890    -0.0000010
  C        0.3259400    -0.2627350     0.0000100
  C        2.5213300    -0.3786110    -0.0000100
  C        1.5711040     1.9546380     0.0000020
  C       -1.0198751     0.2989686     0.0000021
  C        1.9690460    -1.6456460     0.0000000
  C       -3.4103270    -0.3314980    -0.0000060
  H        3.5447240    -0.0301030    -0.0000120
  H        1.0842430     2.3633630    -0.8839110
  H        1.0842880     2.3633490     0.8839480
  H        2.6322840     2.2067670    -0.0000220
  H        2.4866360    -2.5959740    -0.0000050
  H       -1.6732310    -1.6118380    -0.0000010
  H       -3.9026090    -0.7325290     0.8908020
  H       -3.9026030    -0.7325320    -0.8908160
  H       -3.4966990     0.7550430    -0.0000090
units angstrom
no_reorient  #important for SAPT in psi4, default
symmetry c1  #important for SAPT in psi4, default
}

set PROPERTIES_ORIGIN ["COM"]
properties('MP2/aug-cc-pvtz', properties = ['dipole'])
--------------------------------------------------------------------------

    Molecular point group: c1
  Charge       = 0
  Multiplicity = 1
  Basis Set: AUG-CC-PVTZ
    Blend: AUG-CC-PVTZ
  Basis Set: (AUG-CC-PVTZ AUX)
    Blend: AUG-CC-PVTZ-JKFIT

    Orbital Energies [Eh]
    ---------------------

    Doubly Occupied:

       1A    -20.520744     2A    -15.639572     3A    -15.583756
       4A    -15.567526     5A    -11.361973     6A    -11.305099
       7A    -11.275469     8A    -11.274540     9A    -11.257523
      10A    -11.256913    11A     -1.377380    12A     -1.345396
      13A     -1.230766    14A     -1.191677    15A     -1.039331
      16A     -0.980633    17A     -0.949928    18A     -0.845141
      19A     -0.816298    20A     -0.769675    21A     -0.735513
      22A     -0.659863    23A     -0.657277    24A     -0.643553
      25A     -0.617262    26A     -0.606102    27A     -0.596273
      28A     -0.583653    29A     -0.564329    30A     -0.560916
      31A     -0.543606    32A     -0.526807    33A     -0.459025
      34A     -0.433735    35A     -0.399318    36A     -0.387335
      37A     -0.324573

  @DF-RHF Final Energy:  -470.83320537055891

   => Energetics <=

    Nuclear Repulsion Energy =            527.1936980586883692
    One-Electron Energy =               -1686.2768468785166078
    Two-Electron Energy =                 688.2499434492693808
    Total Energy =                       -470.8332053705588578
  Basis Set: (AUG-CC-PVTZ AUX)
    Blend: AUG-CC-PVTZ-RI
    Molecular point group: c1

    Geometry (in Angstrom), charge = 0, multiplicity = 1:

       Center              X                  Y                   Z               Mass
    ------------   -----------------  -----------------  -----------------  -----------------
         O           -1.265157104056     1.545574994562     0.000002805950    15.994914619570
         N            1.447125895944     0.511747994562    -0.000007194050    14.003074004430
         N            0.588391895944    -1.558322005438     0.000009805950    14.003074004430
         N           -2.015410104056    -0.635465005438    -0.000001194050    14.003074004430
         C            0.309011895944    -0.247811005438     0.000009805950    12.000000000000
         C            2.504401895944    -0.363687005438    -0.000010194050    12.000000000000
         C            1.554175895944     1.969561994562     0.000001805950    12.000000000000
         C           -1.036803204056     0.313892594562     0.000001905950    12.000000000000
         C            1.952117895944    -1.630722005438    -0.000000194050    12.000000000000
         C           -3.427255104056    -0.316574005438    -0.000006194050    12.000000000000
         H            3.527795895944    -0.015179005438    -0.000012194050     1.007825032230
         H            1.067314895944     2.378286994562    -0.883911194050     1.007825032230
         H            1.067359895944     2.378272994562     0.883947805950     1.007825032230
         H            2.615355895944     2.221690994562    -0.000022194050     1.007825032230
         H            2.469707895944    -2.581050005438    -0.000005194050     1.007825032230
         H           -1.690159104056    -1.596914005438    -0.000001194050     1.007825032230
         H           -3.919537104056    -0.717605005438     0.890801805950     1.007825032230
         H           -3.919531104056    -0.717608005438    -0.890816194050     1.007825032230
         H           -3.513627104056     0.769966994562    -0.000009194050     1.007825032230

  Basis Set: AUG-CC-PVTZ
    Blend: AUG-CC-PVTZ
  Basis Set: (AUG-CC-PVTZ AUX)
    Blend: AUG-CC-PVTZ-JKFIT
	 Reference Energy          =    -470.8332053705589146 [Eh]
	 Singles Energy            =      -0.0000000000000000 [Eh]
	 Same-Spin Energy          =      -0.4998444257541504 [Eh]
	 Opposite-Spin Energy      =      -1.5379988107895373 [Eh]
	 Correlation Energy        =      -2.0378432365436878 [Eh]
	 Total Energy              =    -472.8710486071025798 [Eh]

	 ================> DF-SCS-MP2 Energies <==================
	-----------------------------------------------------------
	 SCS Same-Spin Scale       =       0.3333333333333333 [-]
	 SCS Opposite-Spin Scale   =       1.2000000000000000 [-]
	 SCS Same-Spin Energy      =      -0.1666148085847168 [Eh]
	 SCS Opposite-Spin Energy  =      -1.8455985729474447 [Eh]
	 SCS Correlation Energy    =      -2.0122133815321614 [Eh]
	 SCS Total Energy          =    -472.8454187520910637 [Eh]
	-----------------------------------------------------------

  Dipole Moment: [D]
     X:     1.5412      Y:    -0.0288      Z:    -0.0000     Total:     1.5415

*** Psi4 exiting successfully. Buy a developer a beer!
