                               Psi4 1.3.2 release

  ==> Input File <==

--------------------------------------------------------------------------
#psi4
#
memory 32 gb

molecule  {
0 1
  O       -1.2482290     1.5306510     0.0000030
  N        1.4640540     0.4968240    -0.0000070
  N        0.6053200    -1.5732460     0.0000100
  N       -1.9984820    -0.6503890    -0.0000010
  C        0.3259400    -0.2627350     0.0000100
  C        2.4240303    -0.4843307    -0.0000108
  C        1.5711040     1.9546380     0.0000020
  C       -1.0383320     0.3066720     0.0000020
  C        1.9690460    -1.6456460     0.0000000
  C       -3.4103270    -0.3314980    -0.0000060
  H        3.5447240    -0.0301030    -0.0000120
  H        1.0842430     2.3633630    -0.8839110
  H        1.0842880     2.3633490     0.8839480
  H        2.6322840     2.2067670    -0.0000220
  H        2.4866360    -2.5959740    -0.0000050
  H       -1.6732310    -1.6118380    -0.0000010
  H       -3.9026090    -0.7325290     0.8908020
  H       -3.9026030    -0.7325320    -0.8908160
  H       -3.4966990     0.7550430    -0.0000090
units angstrom
no_reorient  #important for SAPT in psi4, default
symmetry c1  #important for SAPT in psi4, default
}

set PROPERTIES_ORIGIN ["COM"]
properties('MP2/aug-cc-pvtz', properties = ['dipole'])
--------------------------------------------------------------------------

    Molecular point group: c1
  Charge       = 0
  Multiplicity = 1
  Basis Set: AUG-CC-PVTZ
    Blend: AUG-CC-PVTZ
  Basis Set: (AUG-CC-PVTZ AUX)
    Blend: AUG-CC-PVTZ-JKFIT

    Orbital Energies [Eh]
    ---------------------

    Doubly Occupied:

       1A    -20.524128     2A    -15.629032     3A    -15.585268
       4A    -15.560363     5A    -11.362535     6A    -11.307032
       7A    -11.276692     8A    -11.265389     9A    -11.258613
      10A    -11.235429    11A     -1.384398    12A     -1.353971
      13A     -1.234737    14A     -1.190618    15A     -1.050005
      16A     -0.980178    17A     -0.954287    18A     -0.852922
      19A     -0.798699    20A     -0.773543    21A     -0.737961
      22A     -0.658967    23A     -0.654382    24A     -0.638786
      25A     -0.619660    26A     -0.617051    27A     -0.591819
      28A     -0.580682    29A     -0.565082    30A     -0.547659
      31A     -0.541274    32A     -0.534017    33A     -0.454090
      34A     -0.434319    35A     -0.396917    36A     -0.388779
      37A     -0.343344

  @DF-RHF Final Energy:  -470.80545455150440

   => Energetics <=

    Nuclear Repulsion Energy =            529.4904430233226549
    One-Electron Energy =               -1690.8265403345358209
    Two-Electron Energy =                 690.5306427597085985
    Total Energy =                       -470.8054545515044538
  Basis Set: (AUG-CC-PVTZ AUX)
    Blend: AUG-CC-PVTZ-RI
    Molecular point group: c1

    Geometry (in Angstrom), charge = 0, multiplicity = 1:

       Center              X                  Y                   Z               Mass
    ------------   -----------------  -----------------  -----------------  -----------------
         O           -1.255169086256     1.554032296773     0.000002883606    15.994914619570
         N            1.457113913744     0.520205296773    -0.000007116394    14.003074004430
         N            0.598379913744    -1.549864703227     0.000009883606    14.003074004430
         N           -2.005422086256    -0.627007703227    -0.000001116394    14.003074004430
         C            0.318999913744    -0.239353703227     0.000009883606    12.000000000000
         C            2.417090213744    -0.460949403227    -0.000010916394    12.000000000000
         C            1.564163913744     1.978019296773     0.000001883606    12.000000000000
         C           -1.045272086256     0.330053296773     0.000001883606    12.000000000000
         C            1.962105913744    -1.622264703227    -0.000000116394    12.000000000000
         C           -3.417267086256    -0.308116703227    -0.000006116394    12.000000000000
         H            3.537783913744    -0.006721703227    -0.000012116394     1.007825032230
         H            1.077302913744     2.386744296773    -0.883911116394     1.007825032230
         H            1.077347913744     2.386730296773     0.883947883606     1.007825032230
         H            2.625343913744     2.230148296773    -0.000022116394     1.007825032230
         H            2.479695913744    -2.572592703227    -0.000005116394     1.007825032230
         H           -1.680171086256    -1.588456703227    -0.000001116394     1.007825032230
         H           -3.909549086256    -0.709147703227     0.890801883606     1.007825032230
         H           -3.909543086256    -0.709150703227    -0.890816116394     1.007825032230
         H           -3.503639086256     0.778424296773    -0.000009116394     1.007825032230

  Basis Set: AUG-CC-PVTZ
    Blend: AUG-CC-PVTZ
  Basis Set: (AUG-CC-PVTZ AUX)
    Blend: AUG-CC-PVTZ-JKFIT
	 Reference Energy          =    -470.8054545515043969 [Eh]
	 Singles Energy            =      -0.0000000000000000 [Eh]
	 Same-Spin Energy          =      -0.4981996294483454 [Eh]
	 Opposite-Spin Energy      =      -1.5356737037358679 [Eh]
	 Correlation Energy        =      -2.0338733331842134 [Eh]
	 Total Energy              =    -472.8393278846886005 [Eh]

	 ================> DF-SCS-MP2 Energies <==================
	-----------------------------------------------------------
	 SCS Same-Spin Scale       =       0.3333333333333333 [-]
	 SCS Opposite-Spin Scale   =       1.2000000000000000 [-]
	 SCS Same-Spin Energy      =      -0.1660665431494485 [Eh]
	 SCS Opposite-Spin Energy  =      -1.8428084444830413 [Eh]
	 SCS Correlation Energy    =      -2.0088749876324896 [Eh]
	 SCS Total Energy          =    -472.8143295391369065 [Eh]
	-----------------------------------------------------------

  Dipole Moment: [D]
     X:     1.2823      Y:    -0.0470      Z:    -0.0000     Total:     1.2832

*** Psi4 exiting successfully. Buy a developer a beer!
