                               Psi4 1.3.2 release

  ==> Input File <==

--------------------------------------------------------------------------
#psi4
#
memory 32 gb

molecule  {
0 1
  O       -1.2482290     1.5306510     0.0000030
  N        1.4640540     0.4968240    -0.0000070
  N        0.6053200    -1.5732460     0.0000100
  N       -1.9984820    -0.6503890    -0.0000010
  C        0.2527792    -0.1396087     0.0000124
  C        2.5213300    -0.3786110    -0.0000100
  C        1.5711040     1.9546380     0.0000020
  C       -1.0383320     0.3066720     0.0000020
  C        1.9690460    -1.6456460     0.0000000
  C       -3.4103270    -0.3314980    -0.0000060
  H        3.5447240    -0.0301030    -0.0000120
  H        1.0842430     2.3633630    -0.8839110
  H        1.0842880     2.3633490     0.8839480
  H        2.6322840     2.2067670    -0.0000220
  H        2.4866360    -2.5959740    -0.0000050
  H       -1.6732310    -1.6118380    -0.0000010
  H       -3.9026090    -0.7325290     0.8908020
  H       -3.9026030    -0.7325320    -0.8908160
  H       -3.4966990     0.7550430    -0.0000090
units angstrom
no_reorient  #important for SAPT in psi4, default
symmetry c1  #important for SAPT in psi4, default
}

set PROPERTIES_ORIGIN ["COM"]
properties('MP2/aug-cc-pvtz', properties = ['dipole'])
--------------------------------------------------------------------------

    Molecular point group: c1
  Charge       = 0
  Multiplicity = 1
  Basis Set: AUG-CC-PVTZ
    Blend: AUG-CC-PVTZ
  Basis Set: (AUG-CC-PVTZ AUX)
    Blend: AUG-CC-PVTZ-JKFIT

    Orbital Energies [Eh]
    ---------------------

    Doubly Occupied:

       1A    -20.515011     2A    -15.654460     3A    -15.580899
       4A    -15.574141     5A    -11.351578     6A    -11.304243
       7A    -11.279678     8A    -11.275273     9A    -11.262909
      10A    -11.256238    11A     -1.382311    12A     -1.336992
      13A     -1.231152    14A     -1.169882    15A     -1.048298
      16A     -0.980652    17A     -0.950669    18A     -0.863870
      19A     -0.808482    20A     -0.770067    21A     -0.735043
      22A     -0.669078    23A     -0.658213    24A     -0.646093
      25A     -0.617897    26A     -0.605835    27A     -0.594240
      28A     -0.584140    29A     -0.560870    30A     -0.557189
      31A     -0.543231    32A     -0.526377    33A     -0.440860
      34A     -0.434703    35A     -0.393480    36A     -0.386046
      37A     -0.318337

  @DF-RHF Final Energy:  -470.79730575739148

   => Energetics <=

    Nuclear Repulsion Energy =            527.0378964790264718
    One-Electron Energy =               -1685.9335324092335213
    Two-Electron Energy =                 688.0983301728155084
    Total Energy =                       -470.7973057573914275
  Basis Set: (AUG-CC-PVTZ AUX)
    Blend: AUG-CC-PVTZ-RI
    Molecular point group: c1

    Geometry (in Angstrom), charge = 0, multiplicity = 1:

       Center              X                  Y                   Z               Mass
    ------------   -----------------  -----------------  -----------------  -----------------
         O           -1.257251902812     1.534286399593     0.000002607495    15.994914619570
         N            1.455031097188     0.500459399593    -0.000007392505    14.003074004430
         N            0.596297097188    -1.569610600407     0.000009607495    14.003074004430
         N           -2.007504902812    -0.646753600407    -0.000001392505    14.003074004430
         C            0.243756297188    -0.135973300407     0.000012007495    12.000000000000
         C            2.512307097188    -0.374975600407    -0.000010392505    12.000000000000
         C            1.562081097188     1.958273399593     0.000001607495    12.000000000000
         C           -1.047354902812     0.310307399593     0.000001607495    12.000000000000
         C            1.960023097188    -1.642010600407    -0.000000392505    12.000000000000
         C           -3.419349902812    -0.327862600407    -0.000006392505    12.000000000000
         H            3.535701097188    -0.026467600407    -0.000012392505     1.007825032230
         H            1.075220097188     2.366998399593    -0.883911392505     1.007825032230
         H            1.075265097188     2.366984399593     0.883947607495     1.007825032230
         H            2.623261097188     2.210402399593    -0.000022392505     1.007825032230
         H            2.477613097188    -2.592338600407    -0.000005392505     1.007825032230
         H           -1.682253902812    -1.608202600407    -0.000001392505     1.007825032230
         H           -3.911631902812    -0.728893600407     0.890801607495     1.007825032230
         H           -3.911625902812    -0.728896600407    -0.890816392505     1.007825032230
         H           -3.505721902812     0.758678399593    -0.000009392505     1.007825032230

  Basis Set: AUG-CC-PVTZ
    Blend: AUG-CC-PVTZ
  Basis Set: (AUG-CC-PVTZ AUX)
    Blend: AUG-CC-PVTZ-JKFIT
	 Reference Energy          =    -470.7973057573914843 [Eh]
	 Singles Energy            =      -0.0000000000000000 [Eh]
	 Same-Spin Energy          =      -0.5042247056141607 [Eh]
	 Opposite-Spin Energy      =      -1.5456058170379392 [Eh]
	 Correlation Energy        =      -2.0498305226520999 [Eh]
	 Total Energy              =    -472.8471362800435713 [Eh]

	 ================> DF-SCS-MP2 Energies <==================
	-----------------------------------------------------------
	 SCS Same-Spin Scale       =       0.3333333333333333 [-]
	 SCS Opposite-Spin Scale   =       1.2000000000000000 [-]
	 SCS Same-Spin Energy      =      -0.1680749018713869 [Eh]
	 SCS Opposite-Spin Energy  =      -1.8547269804455269 [Eh]
	 SCS Correlation Energy    =      -2.0228018823169136 [Eh]
	 SCS Total Energy          =    -472.8201076397083966 [Eh]
	-----------------------------------------------------------

  Dipole Moment: [D]
     X:     1.8286      Y:    -0.0189      Z:    -0.0000     Total:     1.8287

*** Psi4 exiting successfully. Buy a developer a beer!
