                               Psi4 1.3.2 release

  ==> Input File <==

--------------------------------------------------------------------------
#psi4
#
memory 32 gb

molecule  {
0 1
  O       -1.2482290     1.5306510     0.0000030
  N        1.4640540     0.4968240    -0.0000070
  N        0.6053200    -1.5732460     0.0000100
  N       -1.9984820    -0.6503890    -0.0000010
  C        0.3050901    -0.1649327     0.0000100
  C        2.5213300    -0.3786110    -0.0000100
  C        1.5711040     1.9546380     0.0000020
  C       -1.0383320     0.3066720     0.0000020
  C        1.9690460    -1.6456460     0.0000000
  C       -3.4103270    -0.3314980    -0.0000060
  H        3.5447240    -0.0301030    -0.0000120
  H        1.0842430     2.3633630    -0.8839110
  H        1.0842880     2.3633490     0.8839480
  H        2.6322840     2.2067670    -0.0000220
  H        2.4866360    -2.5959740    -0.0000050
  H       -1.6732310    -1.6118380    -0.0000010
  H       -3.9026090    -0.7325290     0.8908020
  H       -3.9026030    -0.7325320    -0.8908160
  H       -3.4966990     0.7550430    -0.0000090
units angstrom
no_reorient  #important for SAPT in psi4, default
symmetry c1  #important for SAPT in psi4, default
}

set PROPERTIES_ORIGIN ["COM"]
properties('MP2/aug-cc-pvtz', properties = ['dipole'])
--------------------------------------------------------------------------

    Molecular point group: c1
  Charge       = 0
  Multiplicity = 1
  Basis Set: AUG-CC-PVTZ
    Blend: AUG-CC-PVTZ
  Basis Set: (AUG-CC-PVTZ AUX)
    Blend: AUG-CC-PVTZ-JKFIT

    Orbital Energies [Eh]
    ---------------------

    Doubly Occupied:

       1A    -20.518496     2A    -15.649866     3A    -15.583731
       4A    -15.567919     5A    -11.358315     6A    -11.304644
       7A    -11.276733     8A    -11.272760     9A    -11.259764
      10A    -11.257872    11A     -1.383407    12A     -1.345923
      13A     -1.232495    14A     -1.175367    15A     -1.041067
      16A     -0.981442    17A     -0.953324    18A     -0.852302
      19A     -0.812874    20A     -0.771580    21A     -0.736378
      22A     -0.663746    23A     -0.660650    24A     -0.645924
      25A     -0.619119    26A     -0.605708    27A     -0.594841
      28A     -0.584918    29A     -0.562509    30A     -0.558127
      31A     -0.544798    32A     -0.528660    33A     -0.444279
      34A     -0.436621    35A     -0.395405    36A     -0.387463
      37A     -0.319505

  @DF-RHF Final Energy:  -470.81741208991616

   => Energetics <=

    Nuclear Repulsion Energy =            527.1600033107346235
    One-Electron Energy =               -1686.1777652532696266
    Two-Electron Energy =                 688.2003498526187286
    Total Energy =                       -470.8174120899161608
  Basis Set: (AUG-CC-PVTZ AUX)
    Blend: AUG-CC-PVTZ-RI
    Molecular point group: c1

    Geometry (in Angstrom), charge = 0, multiplicity = 1:

       Center              X                  Y                   Z               Mass
    ------------   -----------------  -----------------  -----------------  -----------------
         O           -1.261765530547     1.536471472088     0.000002814578    15.994914619570
         N            1.450517469453     0.502644472088    -0.000007185422    14.003074004430
         N            0.591783469453    -1.567425527912     0.000009814578    14.003074004430
         N           -2.012018530547    -0.644568527912    -0.000001185422    14.003074004430
         C            0.291553569453    -0.159112227912     0.000009814578    12.000000000000
         C            2.507793469453    -0.372790527912    -0.000010185422    12.000000000000
         C            1.557567469453     1.960458472088     0.000001814578    12.000000000000
         C           -1.051868530547     0.312492472088     0.000001814578    12.000000000000
         C            1.955509469453    -1.639825527912    -0.000000185422    12.000000000000
         C           -3.423863530547    -0.325677527912    -0.000006185422    12.000000000000
         H            3.531187469453    -0.024282527912    -0.000012185422     1.007825032230
         H            1.070706469453     2.369183472088    -0.883911185422     1.007825032230
         H            1.070751469453     2.369169472088     0.883947814578     1.007825032230
         H            2.618747469453     2.212587472088    -0.000022185422     1.007825032230
         H            2.473099469453    -2.590153527912    -0.000005185422     1.007825032230
         H           -1.686767530547    -1.606017527912    -0.000001185422     1.007825032230
         H           -3.916145530547    -0.726708527912     0.890801814578     1.007825032230
         H           -3.916139530547    -0.726711527912    -0.890816185422     1.007825032230
         H           -3.510235530547     0.760863472088    -0.000009185422     1.007825032230

  Basis Set: AUG-CC-PVTZ
    Blend: AUG-CC-PVTZ
  Basis Set: (AUG-CC-PVTZ AUX)
    Blend: AUG-CC-PVTZ-JKFIT
	 Reference Energy          =    -470.8174120899161608 [Eh]
	 Singles Energy            =      -0.0000000000000000 [Eh]
	 Same-Spin Energy          =      -0.5018907693937251 [Eh]
	 Opposite-Spin Energy      =      -1.5414531052550440 [Eh]
	 Correlation Energy        =      -2.0433438746487691 [Eh]
	 Total Energy              =    -472.8607559645649303 [Eh]

	 ================> DF-SCS-MP2 Energies <==================
	-----------------------------------------------------------
	 SCS Same-Spin Scale       =       0.3333333333333333 [-]
	 SCS Opposite-Spin Scale   =       1.2000000000000000 [-]
	 SCS Same-Spin Energy      =      -0.1672969231312417 [Eh]
	 SCS Opposite-Spin Energy  =      -1.8497437263060528 [Eh]
	 SCS Correlation Energy    =      -2.0170406494372943 [Eh]
	 SCS Total Energy          =    -472.8344527393534804 [Eh]
	-----------------------------------------------------------

  Dipole Moment: [D]
     X:     1.6465      Y:     0.0550      Z:    -0.0000     Total:     1.6474

*** Psi4 exiting successfully. Buy a developer a beer!
