                               Psi4 1.3.2 release

  ==> Input File <==

--------------------------------------------------------------------------
#psi4
#
memory 32 gb

molecule  {
0 1
  O       -1.2053849     1.5372307     0.0000033
  N        1.4640540     0.4968240    -0.0000070
  N        0.6053200    -1.5732460     0.0000100
  N       -1.9984820    -0.6503890    -0.0000010
  C        0.3259400    -0.2627350     0.0000100
  C        2.5213300    -0.3786110    -0.0000100
  C        1.5711040     1.9546380     0.0000020
  C       -1.0383320     0.3066720     0.0000020
  C        1.9690460    -1.6456460     0.0000000
  C       -3.4103270    -0.3314980    -0.0000060
  H        3.5447240    -0.0301030    -0.0000120
  H        1.0842430     2.3633630    -0.8839110
  H        1.0842880     2.3633490     0.8839480
  H        2.6322840     2.2067670    -0.0000220
  H        2.4866360    -2.5959740    -0.0000050
  H       -1.6732310    -1.6118380    -0.0000010
  H       -3.9026090    -0.7325290     0.8908020
  H       -3.9026030    -0.7325320    -0.8908160
  H       -3.4966990     0.7550430    -0.0000090
units angstrom
no_reorient  #important for SAPT in psi4, default
symmetry c1  #important for SAPT in psi4, default
}

set PROPERTIES_ORIGIN ["COM"]
properties('MP2/aug-cc-pvtz', properties = ['dipole'])
--------------------------------------------------------------------------

    Molecular point group: c1
  Charge       = 0
  Multiplicity = 1
  Basis Set: AUG-CC-PVTZ
    Blend: AUG-CC-PVTZ
  Basis Set: (AUG-CC-PVTZ AUX)
    Blend: AUG-CC-PVTZ-JKFIT

    Orbital Energies [Eh]
    ---------------------

    Doubly Occupied:

       1A    -20.523257     2A    -15.636523     3A    -15.587071
       4A    -15.564067     5A    -11.362775     6A    -11.303105
       7A    -11.273431     8A    -11.271373     9A    -11.260135
      10A    -11.254229    11A     -1.382107    12A     -1.345008
      13A     -1.237231    14A     -1.189673    15A     -1.034603
      16A     -0.978540    17A     -0.951044    18A     -0.840182
      19A     -0.813601    20A     -0.774311    21A     -0.733817
      22A     -0.659160    23A     -0.655462    24A     -0.646775
      25A     -0.620071    26A     -0.604417    27A     -0.594490
      28A     -0.583948    29A     -0.561896    30A     -0.559343
      31A     -0.547980    32A     -0.530555    33A     -0.456991
      34A     -0.433590    35A     -0.399155    36A     -0.389668
      37A     -0.321982

  @DF-RHF Final Energy:  -470.83486918678386

   => Energetics <=

    Nuclear Repulsion Energy =            527.4124798097780058
    One-Electron Energy =               -1686.7315696774537628
    Two-Electron Energy =                 688.4842206808918945
    Total Energy =                       -470.8348691867838625
  Basis Set: (AUG-CC-PVTZ AUX)
    Blend: AUG-CC-PVTZ-RI
    Molecular point group: c1

    Geometry (in Angstrom), charge = 0, multiplicity = 1:

       Center              X                  Y                   Z               Mass
    ------------   -----------------  -----------------  -----------------  -----------------
         O           -1.225647941194     1.550733280488     0.000003080075    15.994914619570
         N            1.443790958806     0.510326580488    -0.000007219925    14.003074004430
         N            0.585056958806    -1.559743419512     0.000009780075    14.003074004430
         N           -2.018745041194    -0.636886419512    -0.000001219925    14.003074004430
         C            0.305676958806    -0.249232419512     0.000009780075    12.000000000000
         C            2.501066958806    -0.365108419512    -0.000010219925    12.000000000000
         C            1.550840958806     1.968140580488     0.000001780075    12.000000000000
         C           -1.058595041194     0.320174580488     0.000001780075    12.000000000000
         C            1.948782958806    -1.632143419512    -0.000000219925    12.000000000000
         C           -3.430590041194    -0.317995419512    -0.000006219925    12.000000000000
         H            3.524460958806    -0.016600419512    -0.000012219925     1.007825032230
         H            1.063979958806     2.376865580488    -0.883911219925     1.007825032230
         H            1.064024958806     2.376851580488     0.883947780075     1.007825032230
         H            2.612020958806     2.220269580488    -0.000022219925     1.007825032230
         H            2.466372958806    -2.582471419512    -0.000005219925     1.007825032230
         H           -1.693494041194    -1.598335419512    -0.000001219925     1.007825032230
         H           -3.922872041194    -0.719026419512     0.890801780075     1.007825032230
         H           -3.922866041194    -0.719029419512    -0.890816219925     1.007825032230
         H           -3.516962041194     0.768545580488    -0.000009219925     1.007825032230

  Basis Set: AUG-CC-PVTZ
    Blend: AUG-CC-PVTZ
  Basis Set: (AUG-CC-PVTZ AUX)
    Blend: AUG-CC-PVTZ-JKFIT
	 Reference Energy          =    -470.8348691867838625 [Eh]
	 Singles Energy            =      -0.0000000000000000 [Eh]
	 Same-Spin Energy          =      -0.4993181462104723 [Eh]
	 Opposite-Spin Energy      =      -1.5371043344289814 [Eh]
	 Correlation Energy        =      -2.0364224806394535 [Eh]
	 Total Energy              =    -472.8712916674232929 [Eh]

	 ================> DF-SCS-MP2 Energies <==================
	-----------------------------------------------------------
	 SCS Same-Spin Scale       =       0.3333333333333333 [-]
	 SCS Opposite-Spin Scale   =       1.2000000000000000 [-]
	 SCS Same-Spin Energy      =      -0.1664393820701574 [Eh]
	 SCS Opposite-Spin Energy  =      -1.8445252013147777 [Eh]
	 SCS Correlation Energy    =      -2.0109645833849350 [Eh]
	 SCS Total Energy          =    -472.8458337701687810 [Eh]
	-----------------------------------------------------------

  Dipole Moment: [D]
     X:     1.2280      Y:     0.0055      Z:    -0.0000     Total:     1.2280

*** Psi4 exiting successfully. Buy a developer a beer!
