                               Psi4 1.3.2 release

  ==> Input File <==

--------------------------------------------------------------------------
#psi4
#
memory 32 gb

molecule  {
0 1
  O       -1.2268357     1.5341278     0.0000031
  N        1.4640540     0.4968240    -0.0000070
  N        0.6053200    -1.5732460     0.0000100
  N       -1.9984820    -0.6503890    -0.0000010
  C        0.3259400    -0.2627350     0.0000100
  C        2.5213300    -0.3786110    -0.0000100
  C        1.5711040     1.9546380     0.0000020
  C       -1.0383320     0.3066720     0.0000020
  C        1.9690460    -1.6456460     0.0000000
  C       -3.4103270    -0.3314980    -0.0000060
  H        3.5447240    -0.0301030    -0.0000120
  H        1.0842430     2.3633630    -0.8839110
  H        1.0842880     2.3633490     0.8839480
  H        2.6322840     2.2067670    -0.0000220
  H        2.4866360    -2.5959740    -0.0000050
  H       -1.6732310    -1.6118380    -0.0000010
  H       -3.9026090    -0.7325290     0.8908020
  H       -3.9026030    -0.7325320    -0.8908160
  H       -3.4966990     0.7550430    -0.0000090
units angstrom
no_reorient  #important for SAPT in psi4, default
symmetry c1  #important for SAPT in psi4, default
}

set PROPERTIES_ORIGIN ["COM"]
properties('MP2/aug-cc-pvtz', properties = ['dipole'])
--------------------------------------------------------------------------

    Molecular point group: c1
  Charge       = 0
  Multiplicity = 1
  Basis Set: AUG-CC-PVTZ
    Blend: AUG-CC-PVTZ
  Basis Set: (AUG-CC-PVTZ AUX)
    Blend: AUG-CC-PVTZ-JKFIT

    Orbital Energies [Eh]
    ---------------------

    Doubly Occupied:

       1A    -20.522788     2A    -15.637184     3A    -15.585945
       4A    -15.564780     5A    -11.362473     6A    -11.303995
       7A    -11.274170     8A    -11.271964     9A    -11.259234
      10A    -11.254798    11A     -1.381880    12A     -1.345713
      13A     -1.235930    14A     -1.190201    15A     -1.035232
      16A     -0.978967    17A     -0.950779    18A     -0.840527
      19A     -0.814068    20A     -0.773628    21A     -0.734250
      22A     -0.659358    23A     -0.655868    24A     -0.646258
      25A     -0.619614    26A     -0.604813    27A     -0.595047
      28A     -0.583739    29A     -0.562731    30A     -0.559756
      31A     -0.546844    32A     -0.530271    33A     -0.457498
      34A     -0.433744    35A     -0.399122    36A     -0.389318
      37A     -0.322563

  @DF-RHF Final Energy:  -470.83515980742726

   => Energetics <=

    Nuclear Repulsion Energy =            527.2681049294707236
    One-Electron Energy =               -1686.4364307913924677
    Two-Electron Energy =                 688.3331660544946544
    Total Energy =                       -470.8351598074272033
  Basis Set: (AUG-CC-PVTZ AUX)
    Blend: AUG-CC-PVTZ-RI
    Molecular point group: c1

    Geometry (in Angstrom), charge = 0, multiplicity = 1:

       Center              X                  Y                   Z               Mass
    ------------   -----------------  -----------------  -----------------  -----------------
         O           -1.244631692513     1.547987243884     0.000002903077    15.994914619570
         N            1.446258007487     0.510683443884    -0.000007196923    14.003074004430
         N            0.587524007487    -1.559386556116     0.000009803077    14.003074004430
         N           -2.016277992513    -0.636529556116    -0.000001196923    14.003074004430
         C            0.308144007487    -0.248875556116     0.000009803077    12.000000000000
         C            2.503534007487    -0.364751556116    -0.000010196923    12.000000000000
         C            1.553308007487     1.968497443884     0.000001803077    12.000000000000
         C           -1.056127992513     0.320531443884     0.000001803077    12.000000000000
         C            1.951250007487    -1.631786556116    -0.000000196923    12.000000000000
         C           -3.428122992513    -0.317638556116    -0.000006196923    12.000000000000
         H            3.526928007487    -0.016243556116    -0.000012196923     1.007825032230
         H            1.066447007487     2.377222443884    -0.883911196923     1.007825032230
         H            1.066492007487     2.377208443884     0.883947803077     1.007825032230
         H            2.614488007487     2.220626443884    -0.000022196923     1.007825032230
         H            2.468840007487    -2.582114556116    -0.000005196923     1.007825032230
         H           -1.691026992513    -1.597978556116    -0.000001196923     1.007825032230
         H           -3.920404992513    -0.718669556116     0.890801803077     1.007825032230
         H           -3.920398992513    -0.718672556116    -0.890816196923     1.007825032230
         H           -3.514494992513     0.768902443884    -0.000009196923     1.007825032230

  Basis Set: AUG-CC-PVTZ
    Blend: AUG-CC-PVTZ
  Basis Set: (AUG-CC-PVTZ AUX)
    Blend: AUG-CC-PVTZ-JKFIT
	 Reference Energy          =    -470.8351598074272601 [Eh]
	 Singles Energy            =      -0.0000000000000000 [Eh]
	 Same-Spin Energy          =      -0.4993169179891980 [Eh]
	 Opposite-Spin Energy      =      -1.5370834927822201 [Eh]
	 Correlation Energy        =      -2.0364004107714182 [Eh]
	 Total Energy              =    -472.8715602181986810 [Eh]

	 ================> DF-SCS-MP2 Energies <==================
	-----------------------------------------------------------
	 SCS Same-Spin Scale       =       0.3333333333333333 [-]
	 SCS Opposite-Spin Scale   =       1.2000000000000000 [-]
	 SCS Same-Spin Energy      =      -0.1664389726630660 [Eh]
	 SCS Opposite-Spin Energy  =      -1.8445001913386641 [Eh]
	 SCS Correlation Energy    =      -2.0109391640017300 [Eh]
	 SCS Total Energy          =    -472.8460989714290008 [Eh]
	-----------------------------------------------------------

  Dipole Moment: [D]
     X:     1.3116      Y:     0.0094      Z:    -0.0000     Total:     1.3116

*** Psi4 exiting successfully. Buy a developer a beer!
