                               Psi4 1.3.2 release

  ==> Input File <==

--------------------------------------------------------------------------
#psi4
#
memory 32 gb

molecule  {
0 1
  O       -1.2482290     1.5306510     0.0000030
  N        1.4640540     0.4968240    -0.0000070
  N        0.6053200    -1.5732460     0.0000100
  N       -1.9984820    -0.6503890    -0.0000010
  C        0.3259400    -0.2627350     0.0000100
  C        2.4576873    -0.4502303    -0.0000106
  C        1.5711040     1.9546380     0.0000020
  C       -1.0383320     0.3066720     0.0000020
  C        1.9690460    -1.6456460     0.0000000
  C       -3.4103270    -0.3314980    -0.0000060
  H        3.5447240    -0.0301030    -0.0000120
  H        1.0842430     2.3633630    -0.8839110
  H        1.0842880     2.3633490     0.8839480
  H        2.6322840     2.2067670    -0.0000220
  H        2.4866360    -2.5959740    -0.0000050
  H       -1.6732310    -1.6118380    -0.0000010
  H       -3.9026090    -0.7325290     0.8908020
  H       -3.9026030    -0.7325320    -0.8908160
  H       -3.4966990     0.7550430    -0.0000090
units angstrom
no_reorient  #important for SAPT in psi4, default
symmetry c1  #important for SAPT in psi4, default
}

set PROPERTIES_ORIGIN ["COM"]
properties('MP2/aug-cc-pvtz', properties = ['dipole'])
--------------------------------------------------------------------------

    Molecular point group: c1
  Charge       = 0
  Multiplicity = 1
  Basis Set: AUG-CC-PVTZ
    Blend: AUG-CC-PVTZ
  Basis Set: (AUG-CC-PVTZ AUX)
    Blend: AUG-CC-PVTZ-JKFIT

    Orbital Energies [Eh]
    ---------------------

    Doubly Occupied:

       1A    -20.523464     2A    -15.631609     3A    -15.585038
       4A    -15.561728     5A    -11.362337     6A    -11.306114
       7A    -11.276034     8A    -11.267637     9A    -11.258459
      10A    -11.242129    11A     -1.383245    12A     -1.350990
      13A     -1.234602    14A     -1.189978    15A     -1.044781
      16A     -0.979908    17A     -0.952548    18A     -0.848662
      19A     -0.803589    20A     -0.773248    21A     -0.737099
      22A     -0.657737    23A     -0.653755    24A     -0.640877
      25A     -0.619408    26A     -0.610424    27A     -0.594536
      28A     -0.581202    29A     -0.563021    30A     -0.554731
      31A     -0.545470    32A     -0.532553    33A     -0.455823
      34A     -0.434159    35A     -0.397369    36A     -0.388434
      37A     -0.336450

  @DF-RHF Final Energy:  -470.82357928586396

   => Energetics <=

    Nuclear Repulsion Energy =            528.6462815250638414
    One-Electron Energy =               -1689.1814222857526602
    Two-Electron Energy =                 689.7115614748248618
    Total Energy =                       -470.8235792858639570
  Basis Set: (AUG-CC-PVTZ AUX)
    Blend: AUG-CC-PVTZ-RI
    Molecular point group: c1

    Geometry (in Angstrom), charge = 0, multiplicity = 1:

       Center              X                  Y                   Z               Mass
    ------------   -----------------  -----------------  -----------------  -----------------
         O           -1.258073168746     1.551089955669     0.000002866349    15.994914619570
         N            1.454209831254     0.517262955669    -0.000007133651    14.003074004430
         N            0.595475831254    -1.552807044331     0.000009866349    14.003074004430
         N           -2.008326168746    -0.629950044331    -0.000001133651    14.003074004430
         C            0.316095831254    -0.242296044331     0.000009866349    12.000000000000
         C            2.447843131254    -0.429791344331    -0.000010733651    12.000000000000
         C            1.561259831254     1.975076955669     0.000001866349    12.000000000000
         C           -1.048176168746     0.327110955669     0.000001866349    12.000000000000
         C            1.959201831254    -1.625207044331    -0.000000133651    12.000000000000
         C           -3.420171168746    -0.311059044331    -0.000006133651    12.000000000000
         H            3.534879831254    -0.009664044331    -0.000012133651     1.007825032230
         H            1.074398831254     2.383801955669    -0.883911133651     1.007825032230
         H            1.074443831254     2.383787955669     0.883947866349     1.007825032230
         H            2.622439831254     2.227205955669    -0.000022133651     1.007825032230
         H            2.476791831254    -2.575535044331    -0.000005133651     1.007825032230
         H           -1.683075168746    -1.591399044331    -0.000001133651     1.007825032230
         H           -3.912453168746    -0.712090044331     0.890801866349     1.007825032230
         H           -3.912447168746    -0.712093044331    -0.890816133651     1.007825032230
         H           -3.506543168746     0.775481955669    -0.000009133651     1.007825032230

  Basis Set: AUG-CC-PVTZ
    Blend: AUG-CC-PVTZ
  Basis Set: (AUG-CC-PVTZ AUX)
    Blend: AUG-CC-PVTZ-JKFIT
	 Reference Energy          =    -470.8235792858639570 [Eh]
	 Singles Energy            =      -0.0000000000000000 [Eh]
	 Same-Spin Energy          =      -0.4984176378687526 [Eh]
	 Opposite-Spin Energy      =      -1.5357738339143616 [Eh]
	 Correlation Energy        =      -2.0341914717831142 [Eh]
	 Total Energy              =    -472.8577707576470743 [Eh]

	 ================> DF-SCS-MP2 Energies <==================
	-----------------------------------------------------------
	 SCS Same-Spin Scale       =       0.3333333333333333 [-]
	 SCS Opposite-Spin Scale   =       1.2000000000000000 [-]
	 SCS Same-Spin Energy      =      -0.1661392126229175 [Eh]
	 SCS Opposite-Spin Energy  =      -1.8429286006972339 [Eh]
	 SCS Correlation Energy    =      -2.0090678133201516 [Eh]
	 SCS Total Energy          =    -472.8326470991841006 [Eh]
	-----------------------------------------------------------

  Dipole Moment: [D]
     X:     1.3424      Y:    -0.0157      Z:    -0.0000     Total:     1.3425

*** Psi4 exiting successfully. Buy a developer a beer!
