                               Psi4 1.3.2 release

  ==> Input File <==

--------------------------------------------------------------------------
#psi4
#
memory 32 gb

molecule  {
0 1
  O       -1.2482290     1.5306510     0.0000030
  N        1.5372148     0.3736977    -0.0000048
  N        0.6053200    -1.5732460     0.0000100
  N       -1.9984820    -0.6503890    -0.0000010
  C        0.3259400    -0.2627350     0.0000100
  C        2.5213300    -0.3786110    -0.0000100
  C        1.5711040     1.9546380     0.0000020
  C       -1.0383320     0.3066720     0.0000020
  C        1.9690460    -1.6456460     0.0000000
  C       -3.4103270    -0.3314980    -0.0000060
  H        3.5447240    -0.0301030    -0.0000120
  H        1.0842430     2.3633630    -0.8839110
  H        1.0842880     2.3633490     0.8839480
  H        2.6322840     2.2067670    -0.0000220
  H        2.4866360    -2.5959740    -0.0000050
  H       -1.6732310    -1.6118380    -0.0000010
  H       -3.9026090    -0.7325290     0.8908020
  H       -3.9026030    -0.7325320    -0.8908160
  H       -3.4966990     0.7550430    -0.0000090
units angstrom
no_reorient  #important for SAPT in psi4, default
symmetry c1  #important for SAPT in psi4, default
}

set PROPERTIES_ORIGIN ["COM"]
properties('MP2/aug-cc-pvtz', properties = ['dipole'])
--------------------------------------------------------------------------

    Molecular point group: c1
  Charge       = 0
  Multiplicity = 1
  Basis Set: AUG-CC-PVTZ
    Blend: AUG-CC-PVTZ
  Basis Set: (AUG-CC-PVTZ AUX)
    Blend: AUG-CC-PVTZ-JKFIT

    Orbital Energies [Eh]
    ---------------------

    Doubly Occupied:

       1A    -20.518537     2A    -15.638983     3A    -15.582473
       4A    -15.563645     5A    -11.362344     6A    -11.290697
       7A    -11.287990     8A    -11.264346     9A    -11.257033
      10A    -11.243814    11A     -1.389167    12A     -1.364550
      13A     -1.232592    14A     -1.184425    15A     -1.043320
      16A     -0.974098    17A     -0.948141    18A     -0.840848
      19A     -0.821852    20A     -0.770168    21A     -0.736515
      22A     -0.679495    23A     -0.659573    24A     -0.642551
      25A     -0.617994    26A     -0.600558    27A     -0.595312
      28A     -0.571176    29A     -0.569271    30A     -0.551695
      31A     -0.544133    32A     -0.534267    33A     -0.452922
      34A     -0.432452    35A     -0.408214    36A     -0.388466
      37A     -0.313583

  @DF-RHF Final Energy:  -470.80645946937949

   => Energetics <=

    Nuclear Repulsion Energy =            527.9786893716318446
    One-Electron Energy =               -1687.8159023888035790
    Two-Electron Energy =                 689.0307535477921874
    Total Energy =                       -470.8064594693795470
  Basis Set: (AUG-CC-PVTZ AUX)
    Blend: AUG-CC-PVTZ-RI
    Molecular point group: c1

    Geometry (in Angstrom), charge = 0, multiplicity = 1:

       Center              X                  Y                   Z               Mass
    ------------   -----------------  -----------------  -----------------  -----------------
         O           -1.270930937067     1.557307592301     0.000002593066    15.994914619570
         N            1.514512862933     0.400354292301    -0.000005206934    14.003074004430
         N            0.582618062933    -1.546589407699     0.000009593066    14.003074004430
         N           -2.021183937067    -0.623732407699    -0.000001406934    14.003074004430
         C            0.303238062933    -0.236078407699     0.000009593066    12.000000000000
         C            2.498628062933    -0.351954407699    -0.000010406934    12.000000000000
         C            1.548402062933     1.981294592301     0.000001593066    12.000000000000
         C           -1.061033937067     0.333328592301     0.000001593066    12.000000000000
         C            1.946344062933    -1.618989407699    -0.000000406934    12.000000000000
         C           -3.433028937067    -0.304841407699    -0.000006406934    12.000000000000
         H            3.522022062933    -0.003446407699    -0.000012406934     1.007825032230
         H            1.061541062933     2.390019592301    -0.883911406934     1.007825032230
         H            1.061586062933     2.390005592301     0.883947593066     1.007825032230
         H            2.609582062933     2.233423592301    -0.000022406934     1.007825032230
         H            2.463934062933    -2.569317407699    -0.000005406934     1.007825032230
         H           -1.695932937067    -1.585181407699    -0.000001406934     1.007825032230
         H           -3.925310937067    -0.705872407699     0.890801593066     1.007825032230
         H           -3.925304937067    -0.705875407699    -0.890816406934     1.007825032230
         H           -3.519400937067     0.781699592301    -0.000009406934     1.007825032230

  Basis Set: AUG-CC-PVTZ
    Blend: AUG-CC-PVTZ
  Basis Set: (AUG-CC-PVTZ AUX)
    Blend: AUG-CC-PVTZ-JKFIT
	 Reference Energy          =    -470.8064594693794902 [Eh]
	 Singles Energy            =      -0.0000000000000000 [Eh]
	 Same-Spin Energy          =      -0.4998362954827911 [Eh]
	 Opposite-Spin Energy      =      -1.5363527188121073 [Eh]
	 Correlation Energy        =      -2.0361890142948984 [Eh]
	 Total Energy              =    -472.8426484836743953 [Eh]

	 ================> DF-SCS-MP2 Energies <==================
	-----------------------------------------------------------
	 SCS Same-Spin Scale       =       0.3333333333333333 [-]
	 SCS Opposite-Spin Scale   =       1.2000000000000000 [-]
	 SCS Same-Spin Energy      =      -0.1666120984942637 [Eh]
	 SCS Opposite-Spin Energy  =      -1.8436232625745288 [Eh]
	 SCS Correlation Energy    =      -2.0102353610687924 [Eh]
	 SCS Total Energy          =    -472.8166948304482844 [Eh]
	-----------------------------------------------------------

  Dipole Moment: [D]
     X:     1.5260      Y:     0.3767      Z:    -0.0000     Total:     1.5718

*** Psi4 exiting successfully. Buy a developer a beer!
