                               Psi4 1.3.2 release

  ==> Input File <==

--------------------------------------------------------------------------
#psi4
#
memory 32 gb

molecule  {
0 1
  O       -1.2482290     1.5306510     0.0000030
  N        1.4640540     0.4968240    -0.0000070
  N        0.6053200    -1.5732460     0.0000100
  N       -1.9984820    -0.6503890    -0.0000010
  C        0.4922950    -0.1517124     0.0000075
  C        2.5213300    -0.3786110    -0.0000100
  C        1.5711040     1.9546380     0.0000020
  C       -1.0383320     0.3066720     0.0000020
  C        1.9690460    -1.6456460     0.0000000
  C       -3.4103270    -0.3314980    -0.0000060
  H        3.5447240    -0.0301030    -0.0000120
  H        1.0842430     2.3633630    -0.8839110
  H        1.0842880     2.3633490     0.8839480
  H        2.6322840     2.2067670    -0.0000220
  H        2.4866360    -2.5959740    -0.0000050
  H       -1.6732310    -1.6118380    -0.0000010
  H       -3.9026090    -0.7325290     0.8908020
  H       -3.9026030    -0.7325320    -0.8908160
  H       -3.4966990     0.7550430    -0.0000090
units angstrom
no_reorient  #important for SAPT in psi4, default
symmetry c1  #important for SAPT in psi4, default
}

set PROPERTIES_ORIGIN ["COM"]
properties('MP2/aug-cc-pvtz', properties = ['dipole'])
--------------------------------------------------------------------------

    Molecular point group: c1
  Charge       = 0
  Multiplicity = 1
  Basis Set: AUG-CC-PVTZ
    Blend: AUG-CC-PVTZ
  Basis Set: (AUG-CC-PVTZ AUX)
    Blend: AUG-CC-PVTZ-JKFIT

    Orbital Energies [Eh]
    ---------------------

    Doubly Occupied:

       1A    -20.521088     2A    -15.645559     3A    -15.587775
       4A    -15.549191     5A    -11.368130     6A    -11.301996
       7A    -11.287174     8A    -11.260165     9A    -11.257938
      10A    -11.252723    11A     -1.417185    12A     -1.369058
      13A     -1.231710    14A     -1.187190    15A     -1.026045
      16A     -1.005434    17A     -0.955402    18A     -0.830503
      19A     -0.815913    20A     -0.769298    21A     -0.747044
      22A     -0.686154    23A     -0.652930    24A     -0.643424
      25A     -0.620574    26A     -0.613169    27A     -0.602707
      28A     -0.576289    29A     -0.567920    30A     -0.550386
      31A     -0.545839    32A     -0.532211    33A     -0.450444
      34A     -0.421898    35A     -0.404983    36A     -0.390555
      37A     -0.316159

  @DF-RHF Final Energy:  -470.77722593895982

   => Energetics <=

    Nuclear Repulsion Energy =            528.3683565479961999
    One-Electron Energy =               -1688.3668404519160049
    Two-Electron Energy =                 689.2212579649599320
    Total Energy =                       -470.7772259389598730
  Basis Set: (AUG-CC-PVTZ AUX)
    Blend: AUG-CC-PVTZ-RI
    Molecular point group: c1

    Geometry (in Angstrom), charge = 0, multiplicity = 1:

       Center              X                  Y                   Z               Mass
    ------------   -----------------  -----------------  -----------------  -----------------
         O           -1.277918439957     1.535330763120     0.000003030290    15.994914619570
         N            1.434364560043     0.501503763120    -0.000006969710    14.003074004430
         N            0.575630560043    -1.568566236880     0.000010030290    14.003074004430
         N           -2.028171439957    -0.645709236880    -0.000000969710    14.003074004430
         C            0.462605560043    -0.147032636880     0.000007530290    12.000000000000
         C            2.491640560043    -0.373931236880    -0.000009969710    12.000000000000
         C            1.541414560043     1.959317763120     0.000002030290    12.000000000000
         C           -1.068021439957     0.311351763120     0.000002030290    12.000000000000
         C            1.939356560043    -1.640966236880     0.000000030290    12.000000000000
         C           -3.440016439957    -0.326818236880    -0.000005969710    12.000000000000
         H            3.515034560043    -0.025423236880    -0.000011969710     1.007825032230
         H            1.054553560043     2.368042763120    -0.883910969710     1.007825032230
         H            1.054598560043     2.368028763120     0.883948030290     1.007825032230
         H            2.602594560043     2.211446763120    -0.000021969710     1.007825032230
         H            2.456946560043    -2.591294236880    -0.000004969710     1.007825032230
         H           -1.702920439957    -1.607158236880    -0.000000969710     1.007825032230
         H           -3.932298439957    -0.727849236880     0.890802030290     1.007825032230
         H           -3.932292439957    -0.727852236880    -0.890815969710     1.007825032230
         H           -3.526388439957     0.759722763120    -0.000008969710     1.007825032230

  Basis Set: AUG-CC-PVTZ
    Blend: AUG-CC-PVTZ
  Basis Set: (AUG-CC-PVTZ AUX)
    Blend: AUG-CC-PVTZ-JKFIT
	 Reference Energy          =    -470.7772259389598162 [Eh]
	 Singles Energy            =      -0.0000000000000000 [Eh]
	 Same-Spin Energy          =      -0.4977865202092635 [Eh]
	 Opposite-Spin Energy      =      -1.5349808132676153 [Eh]
	 Correlation Energy        =      -2.0327673334768788 [Eh]
	 Total Energy              =    -472.8099932724367136 [Eh]

	 ================> DF-SCS-MP2 Energies <==================
	-----------------------------------------------------------
	 SCS Same-Spin Scale       =       0.3333333333333333 [-]
	 SCS Opposite-Spin Scale   =       1.2000000000000000 [-]
	 SCS Same-Spin Energy      =      -0.1659288400697545 [Eh]
	 SCS Opposite-Spin Energy  =      -1.8419769759211382 [Eh]
	 SCS Correlation Energy    =      -2.0079058159908927 [Eh]
	 SCS Total Energy          =    -472.7851317549507257 [Eh]
	-----------------------------------------------------------

  Dipole Moment: [D]
     X:     1.2078      Y:     0.4723      Z:    -0.0000     Total:     1.2969

*** Psi4 exiting successfully. Buy a developer a beer!
