                               Psi4 1.3.2 release

  ==> Input File <==

--------------------------------------------------------------------------
#psi4
#
memory 32 gb

molecule  {
0 1
  O       -1.2482290     1.5306510     0.0000030
  N        1.4640540     0.4968240    -0.0000070
  N        0.6053200    -1.5732460     0.0000100
  N       -1.9984820    -0.6503890    -0.0000010
  C        0.3001251    -0.2225527     0.0000108
  C        2.5213300    -0.3786110    -0.0000100
  C        1.5711040     1.9546380     0.0000020
  C       -1.0383320     0.3066720     0.0000020
  C        1.9690460    -1.6456460     0.0000000
  C       -3.4103270    -0.3314980    -0.0000060
  H        3.5447240    -0.0301030    -0.0000120
  H        1.0842430     2.3633630    -0.8839110
  H        1.0842880     2.3633490     0.8839480
  H        2.6322840     2.2067670    -0.0000220
  H        2.4866360    -2.5959740    -0.0000050
  H       -1.6732310    -1.6118380    -0.0000010
  H       -3.9026090    -0.7325290     0.8908020
  H       -3.9026030    -0.7325320    -0.8908160
  H       -3.4966990     0.7550430    -0.0000090
units angstrom
no_reorient  #important for SAPT in psi4, default
symmetry c1  #important for SAPT in psi4, default
}

set PROPERTIES_ORIGIN ["COM"]
properties('MP2/aug-cc-pvtz', properties = ['dipole'])
--------------------------------------------------------------------------

    Molecular point group: c1
  Charge       = 0
  Multiplicity = 1
  Basis Set: AUG-CC-PVTZ
    Blend: AUG-CC-PVTZ
  Basis Set: (AUG-CC-PVTZ AUX)
    Blend: AUG-CC-PVTZ-JKFIT

    Orbital Energies [Eh]
    ---------------------

    Doubly Occupied:

       1A    -20.520301     2A    -15.643250     3A    -15.583838
       4A    -15.568598     5A    -11.359400     6A    -11.304933
       7A    -11.274940     8A    -11.274451     9A    -11.257836
      10A    -11.257620    11A     -1.381785    12A     -1.342375
      13A     -1.233775    14A     -1.182697    15A     -1.039751
      16A     -0.979723    17A     -0.950730    18A     -0.848525
      19A     -0.811952    20A     -0.772468    21A     -0.734786
      22A     -0.662235    23A     -0.656582    24A     -0.646081
      25A     -0.618891    26A     -0.605166    27A     -0.591849
      28A     -0.588087    29A     -0.563593    30A     -0.558662
      31A     -0.545082    32A     -0.528830    33A     -0.451154
      34A     -0.436324    35A     -0.396806    36A     -0.387694
      37A     -0.321920

  @DF-RHF Final Energy:  -470.82837303594715

   => Energetics <=

    Nuclear Repulsion Energy =            527.0581683128666555
    One-Electron Energy =               -1686.0077084834142624
    Two-Electron Energy =                 688.1211671346004550
    Total Energy =                       -470.8283730359471519
  Basis Set: (AUG-CC-PVTZ AUX)
    Blend: AUG-CC-PVTZ-RI
    Molecular point group: c1

    Geometry (in Angstrom), charge = 0, multiplicity = 1:

       Center              X                  Y                   Z               Mass
    ------------   -----------------  -----------------  -----------------  -----------------
         O           -1.261337127256     1.541443193663     0.000002745551    15.994914619570
         N            1.450945872744     0.507616193663    -0.000007254449    14.003074004430
         N            0.592211872744    -1.562453806337     0.000009745551    14.003074004430
         N           -2.011590127256    -0.639596806337    -0.000001254449    14.003074004430
         C            0.287016972744    -0.211760506337     0.000010545551    12.000000000000
         C            2.508221872744    -0.367818806337    -0.000010254449    12.000000000000
         C            1.557995872744     1.965430193663     0.000001745551    12.000000000000
         C           -1.051440127256     0.317464193663     0.000001745551    12.000000000000
         C            1.955937872744    -1.634853806337    -0.000000254449    12.000000000000
         C           -3.423435127256    -0.320705806337    -0.000006254449    12.000000000000
         H            3.531615872744    -0.019310806337    -0.000012254449     1.007825032230
         H            1.071134872744     2.374155193663    -0.883911254449     1.007825032230
         H            1.071179872744     2.374141193663     0.883947745551     1.007825032230
         H            2.619175872744     2.217559193663    -0.000022254449     1.007825032230
         H            2.473527872744    -2.585181806337    -0.000005254449     1.007825032230
         H           -1.686339127256    -1.601045806337    -0.000001254449     1.007825032230
         H           -3.915717127256    -0.721736806337     0.890801745551     1.007825032230
         H           -3.915711127256    -0.721739806337    -0.890816254449     1.007825032230
         H           -3.509807127256     0.765835193663    -0.000009254449     1.007825032230

  Basis Set: AUG-CC-PVTZ
    Blend: AUG-CC-PVTZ
  Basis Set: (AUG-CC-PVTZ AUX)
    Blend: AUG-CC-PVTZ-JKFIT
	 Reference Energy          =    -470.8283730359471519 [Eh]
	 Singles Energy            =      -0.0000000000000000 [Eh]
	 Same-Spin Energy          =      -0.5007973152044081 [Eh]
	 Opposite-Spin Energy      =      -1.5395204527074244 [Eh]
	 Correlation Energy        =      -2.0403177679118327 [Eh]
	 Total Energy              =    -472.8686908038590104 [Eh]

	 ================> DF-SCS-MP2 Energies <==================
	-----------------------------------------------------------
	 SCS Same-Spin Scale       =       0.3333333333333333 [-]
	 SCS Opposite-Spin Scale   =       1.2000000000000000 [-]
	 SCS Same-Spin Energy      =      -0.1669324384014693 [Eh]
	 SCS Opposite-Spin Energy  =      -1.8474245432489091 [Eh]
	 SCS Correlation Energy    =      -2.0143569816503786 [Eh]
	 SCS Total Energy          =    -472.8427300175975461 [Eh]
	-----------------------------------------------------------

  Dipole Moment: [D]
     X:     1.5425      Y:     0.0086      Z:    -0.0000     Total:     1.5425

*** Psi4 exiting successfully. Buy a developer a beer!
