                               Psi4 1.3.2 release

  ==> Input File <==

--------------------------------------------------------------------------
#psi4
#
memory 32 gb

molecule  {
0 1
  O       -1.2482290     1.5306510     0.0000030
  N        1.4640540     0.4968240    -0.0000070
  N        0.6053200    -1.5732460     0.0000100
  N       -1.9984820    -0.6503890    -0.0000010
  C        0.4644562    -0.2407110     0.0000089
  C        2.5213300    -0.3786110    -0.0000100
  C        1.5711040     1.9546380     0.0000020
  C       -1.0383320     0.3066720     0.0000020
  C        1.9690460    -1.6456460     0.0000000
  C       -3.4103270    -0.3314980    -0.0000060
  H        3.5447240    -0.0301030    -0.0000120
  H        1.0842430     2.3633630    -0.8839110
  H        1.0842880     2.3633490     0.8839480
  H        2.6322840     2.2067670    -0.0000220
  H        2.4866360    -2.5959740    -0.0000050
  H       -1.6732310    -1.6118380    -0.0000010
  H       -3.9026090    -0.7325290     0.8908020
  H       -3.9026030    -0.7325320    -0.8908160
  H       -3.4966990     0.7550430    -0.0000090
units angstrom
no_reorient  #important for SAPT in psi4, default
symmetry c1  #important for SAPT in psi4, default
}

set PROPERTIES_ORIGIN ["COM"]
properties('MP2/aug-cc-pvtz', properties = ['dipole'])
--------------------------------------------------------------------------

    Molecular point group: c1
  Charge       = 0
  Multiplicity = 1
  Basis Set: AUG-CC-PVTZ
    Blend: AUG-CC-PVTZ
  Basis Set: (AUG-CC-PVTZ AUX)
    Blend: AUG-CC-PVTZ-JKFIT

    Orbital Energies [Eh]
    ---------------------

    Doubly Occupied:

       1A    -20.521616     2A    -15.638912     3A    -15.585952
       4A    -15.553432     5A    -11.365200     6A    -11.303568
       7A    -11.283228     8A    -11.260298     9A    -11.258923
      10A    -11.255731    11A     -1.397418    12A     -1.365278
      13A     -1.232560    14A     -1.200964    15A     -1.025214
      16A     -0.995481    17A     -0.953540    18A     -0.830103
      19A     -0.814325    20A     -0.770264    21A     -0.742123
      22A     -0.673323    23A     -0.652985    24A     -0.642424
      25A     -0.619366    26A     -0.609338    27A     -0.604651
      28A     -0.572372    29A     -0.566533    30A     -0.558417
      31A     -0.545490    32A     -0.531017    33A     -0.462922
      34A     -0.422738    35A     -0.403261    36A     -0.389698
      37A     -0.323598

  @DF-RHF Final Energy:  -470.81399836238711

   => Energetics <=

    Nuclear Repulsion Energy =            527.9810256759704998
    One-Electron Energy =               -1687.7255167664770852
    Two-Electron Energy =                 688.9304927281193613
    Total Energy =                       -470.8139983623871103
  Basis Set: (AUG-CC-PVTZ AUX)
    Blend: AUG-CC-PVTZ-RI
    Molecular point group: c1

    Geometry (in Angstrom), charge = 0, multiplicity = 1:

       Center              X                  Y                   Z               Mass
    ------------   -----------------  -----------------  -----------------  -----------------
         O           -1.275516378823     1.543009976236     0.000002909491    15.994914619570
         N            1.436766621177     0.509182976236    -0.000007090509    14.003074004430
         N            0.578032621177    -1.560887023764     0.000009909491    14.003074004430
         N           -2.025769378823    -0.638030023764    -0.000001090509    14.003074004430
         C            0.437168821177    -0.228352023764     0.000008809491    12.000000000000
         C            2.494042621177    -0.366252023764    -0.000010090509    12.000000000000
         C            1.543816621177     1.966996976236     0.000001909491    12.000000000000
         C           -1.065619378823     0.319030976236     0.000001909491    12.000000000000
         C            1.941758621177    -1.633287023764    -0.000000090509    12.000000000000
         C           -3.437614378823    -0.319139023764    -0.000006090509    12.000000000000
         H            3.517436621177    -0.017744023764    -0.000012090509     1.007825032230
         H            1.056955621177     2.375721976236    -0.883911090509     1.007825032230
         H            1.057000621177     2.375707976236     0.883947909491     1.007825032230
         H            2.604996621177     2.219125976236    -0.000022090509     1.007825032230
         H            2.459348621177    -2.583615023764    -0.000005090509     1.007825032230
         H           -1.700518378823    -1.599479023764    -0.000001090509     1.007825032230
         H           -3.929896378823    -0.720170023764     0.890801909491     1.007825032230
         H           -3.929890378823    -0.720173023764    -0.890816090509     1.007825032230
         H           -3.523986378823     0.767401976236    -0.000009090509     1.007825032230

  Basis Set: AUG-CC-PVTZ
    Blend: AUG-CC-PVTZ
  Basis Set: (AUG-CC-PVTZ AUX)
    Blend: AUG-CC-PVTZ-JKFIT
	 Reference Energy          =    -470.8139983623871103 [Eh]
	 Singles Energy            =      -0.0000000000000000 [Eh]
	 Same-Spin Energy          =      -0.4972313033956024 [Eh]
	 Opposite-Spin Energy      =      -1.5338344188186421 [Eh]
	 Correlation Energy        =      -2.0310657222142448 [Eh]
	 Total Energy              =    -472.8450640846013471 [Eh]

	 ================> DF-SCS-MP2 Energies <==================
	-----------------------------------------------------------
	 SCS Same-Spin Scale       =       0.3333333333333333 [-]
	 SCS Opposite-Spin Scale   =       1.2000000000000000 [-]
	 SCS Same-Spin Energy      =      -0.1657437677985341 [Eh]
	 SCS Opposite-Spin Energy  =      -1.8406013025823704 [Eh]
	 SCS Correlation Energy    =      -2.0063450703809047 [Eh]
	 SCS Total Energy          =    -472.8203434327680270 [Eh]
	-----------------------------------------------------------

  Dipole Moment: [D]
     X:     1.2329      Y:     0.2860      Z:    -0.0000     Total:     1.2656

*** Psi4 exiting successfully. Buy a developer a beer!
