                               Psi4 1.4a3.dev225

  ==> Input File <==

--------------------------------------------------------------------------
#psi4
#
memory 32 gb

molecule  {
0 1
  O       -1.2482290     1.5306510     0.0000030
  N        1.4640540     0.4968240    -0.0000070
  N        0.6053200    -1.5732460     0.0000100
  N       -1.9984820    -0.6503890    -0.0000010
  C        0.3259400    -0.2627350     0.0000100
  C        2.5213300    -0.3786110    -0.0000100
  C        1.5711040     1.9546380     0.0000020
  C       -0.9921897     0.2874136     0.0000023
  C        1.9690460    -1.6456460     0.0000000
  C       -3.4103270    -0.3314980    -0.0000060
  H        3.5447240    -0.0301030    -0.0000120
  H        1.0842430     2.3633630    -0.8839110
  H        1.0842880     2.3633490     0.8839480
  H        2.6322840     2.2067670    -0.0000220
  H        2.4866360    -2.5959740    -0.0000050
  H       -1.6732310    -1.6118380    -0.0000010
  H       -3.9026090    -0.7325290     0.8908020
  H       -3.9026030    -0.7325320    -0.8908160
  H       -3.4966990     0.7550430    -0.0000090
units angstrom
no_reorient  #important for SAPT in psi4, default
symmetry c1  #important for SAPT in psi4, default
}

set PROPERTIES_ORIGIN ["COM"]
properties('MP2/aug-cc-pvtz', properties = ['dipole'])
--------------------------------------------------------------------------

    Molecular point group: c1
  Charge       = 0
  Multiplicity = 1
  Basis Set: AUG-CC-PVTZ
    Blend: AUG-CC-PVTZ
  Basis Set: (AUG-CC-PVTZ AUX)
    Blend: AUG-CC-PVTZ-JKFIT

    Orbital Energies [Eh]
    ---------------------

    Doubly Occupied:

       1A    -20.518377     2A    -15.642216     3A    -15.582115
       4A    -15.570659     5A    -11.361616     6A    -11.305011
       7A    -11.277670     8A    -11.276324     9A    -11.259325
      10A    -11.256291    11A     -1.373247    12A     -1.341609
      13A     -1.225365    14A     -1.192727    15A     -1.044922
      16A     -0.982591    17A     -0.948962    18A     -0.851709
      19A     -0.818983    20A     -0.764885    21A     -0.736467
      22A     -0.660532    23A     -0.658907    24A     -0.640663
      25A     -0.614439    26A     -0.607441    27A     -0.597258
      28A     -0.583538    29A     -0.565425    30A     -0.562209
      31A     -0.540216    32A     -0.521917    33A     -0.460699
      34A     -0.432762    35A     -0.400179    36A     -0.384353
      37A     -0.326692

  @DF-RHF Final Energy:  -470.82798342538860

   => Energetics <=

    Nuclear Repulsion Energy =            527.2951401930622524
    One-Electron Energy =               -1686.4696427192859574
    Two-Electron Energy =                 688.3465191008351667
    Total Energy =                       -470.8279834253885383
  Basis Set: (AUG-CC-PVTZ AUX)
    Blend: AUG-CC-PVTZ-RI
    Molecular point group: c1

    Geometry (in Angstrom), charge = 0, multiplicity = 1:

       Center              X                  Y                   Z               Mass
    ------------   -----------------  -----------------  -----------------  -----------------
         O           -1.267545929125     1.546572013701     0.000002788693    15.994914619570
         N            1.444737070875     0.512745013701    -0.000007211307    14.003074004430
         N            0.586003070875    -1.557324986299     0.000009788693    14.003074004430
         N           -2.017798929125    -0.634467986299    -0.000001211307    14.003074004430
         C            0.306623070875    -0.246813986299     0.000009788693    12.000000000000
         C            2.502013070875    -0.362689986299    -0.000010211307    12.000000000000
         C            1.551787070875     1.970559013701     0.000001788693    12.000000000000
         C           -1.011506629125     0.303334613701     0.000002088693    12.000000000000
         C            1.949729070875    -1.629724986299    -0.000000211307    12.000000000000
         C           -3.429643929125    -0.315576986299    -0.000006211307    12.000000000000
         H            3.525407070875    -0.014181986299    -0.000012211307     1.007825032230
         H            1.064926070875     2.379284013701    -0.883911211307     1.007825032230
         H            1.064971070875     2.379270013701     0.883947788693     1.007825032230
         H            2.612967070875     2.222688013701    -0.000022211307     1.007825032230
         H            2.467319070875    -2.580052986299    -0.000005211307     1.007825032230
         H           -1.692547929125    -1.595916986299    -0.000001211307     1.007825032230
         H           -3.921925929125    -0.716607986299     0.890801788693     1.007825032230
         H           -3.921919929125    -0.716610986299    -0.890816211307     1.007825032230
         H           -3.516015929125     0.770964013701    -0.000009211307     1.007825032230

  Basis Set: AUG-CC-PVTZ
    Blend: AUG-CC-PVTZ
  Basis Set: (AUG-CC-PVTZ AUX)
    Blend: AUG-CC-PVTZ-JKFIT
	 Reference Energy          =    -470.8279834253885952 [Eh]
	 Singles Energy            =      -0.0000000000000000 [Eh]
	 Same-Spin Energy          =      -0.5007166502855581 [Eh]
	 Opposite-Spin Energy      =      -1.5395511207083055 [Eh]
	 Correlation Energy        =      -2.0402677709938635 [Eh]
	 Total Energy              =    -472.8682511963824595 [Eh]

	 ================> DF-SCS-MP2 Energies <==================
	-----------------------------------------------------------
	 SCS Same-Spin Scale       =       0.3333333333333333 [-]
	 SCS Opposite-Spin Scale   =       1.2000000000000000 [-]
	 SCS Same-Spin Energy      =      -0.1669055500951860 [Eh]
	 SCS Opposite-Spin Energy  =      -1.8474613448499664 [Eh]
	 SCS Correlation Energy    =      -2.0143668949451525 [Eh]
	 SCS Total Energy          =    -472.8423503203337646 [Eh]
	-----------------------------------------------------------

  Dipole Moment: [D]
     X:     1.7617      Y:    -0.0910      Z:    -0.0000     Total:     1.7641

*** Psi4 exiting successfully. Buy a developer a beer!
