                               Psi4 1.3.2 release

  ==> Input File <==

--------------------------------------------------------------------------
#psi4
#
memory 32 gb

molecule  {
0 1
  O       -1.2482290     1.5306510     0.0000030
  N        1.4640540     0.4968240    -0.0000070
  N        0.6053200    -1.5732460     0.0000100
  N       -1.9984820    -0.6503890    -0.0000010
  C        0.3259400    -0.2627350     0.0000100
  C        2.5213300    -0.3786110    -0.0000100
  C        1.5711040     1.9546380     0.0000020
  C       -1.1306166     0.3451889     0.0000015
  C        1.9690460    -1.6456460     0.0000000
  C       -3.4103270    -0.3314980    -0.0000060
  H        3.5447240    -0.0301030    -0.0000120
  H        1.0842430     2.3633630    -0.8839110
  H        1.0842880     2.3633490     0.8839480
  H        2.6322840     2.2067670    -0.0000220
  H        2.4866360    -2.5959740    -0.0000050
  H       -1.6732310    -1.6118380    -0.0000010
  H       -3.9026090    -0.7325290     0.8908020
  H       -3.9026030    -0.7325320    -0.8908160
  H       -3.4966990     0.7550430    -0.0000090
units angstrom
no_reorient  #important for SAPT in psi4, default
symmetry c1  #important for SAPT in psi4, default
}

set PROPERTIES_ORIGIN ["COM"]
properties('MP2/aug-cc-pvtz', properties = ['dipole'])
--------------------------------------------------------------------------

    Molecular point group: c1
  Charge       = 0
  Multiplicity = 1
  Basis Set: AUG-CC-PVTZ
    Blend: AUG-CC-PVTZ
  Basis Set: (AUG-CC-PVTZ AUX)
    Blend: AUG-CC-PVTZ-JKFIT

    Orbital Energies [Eh]
    ---------------------

    Doubly Occupied:

       1A    -20.530669     2A    -15.629143     3A    -15.590250
       4A    -15.555443     5A    -11.364022     6A    -11.300279
       7A    -11.272105     8A    -11.263270     9A    -11.262334
      10A    -11.247909    11A     -1.412400    12A     -1.342760
      13A     -1.255161    14A     -1.184319    15A     -1.021036
      16A     -0.974444    17A     -0.952020    18A     -0.823495
      19A     -0.806350    20A     -0.786466    21A     -0.729677
      22A     -0.664414    23A     -0.654031    24A     -0.653152
      25A     -0.628215    26A     -0.600966    27A     -0.592105
      28A     -0.582666    29A     -0.560312    30A     -0.559508
      31A     -0.553895    32A     -0.541984    33A     -0.452571
      34A     -0.427853    35A     -0.406539    36A     -0.388210
      37A     -0.315488

  @DF-RHF Final Energy:  -470.82980744692935

   => Energetics <=

    Nuclear Repulsion Energy =            526.8862971206759767
    One-Electron Energy =               -1685.6612925173062649
    Two-Electron Energy =                 687.9451879497009941
    Total Energy =                       -470.8298074469294079
  Basis Set: (AUG-CC-PVTZ AUX)
    Blend: AUG-CC-PVTZ-RI
    Molecular point group: c1

    Geometry (in Angstrom), charge = 0, multiplicity = 1:

       Center              X                  Y                   Z               Mass
    ------------   -----------------  -----------------  -----------------  -----------------
         O           -1.255601812408     1.541586892120     0.000002857721    15.994914619570
         N            1.456681187592     0.507759892120    -0.000007142279    14.003074004430
         N            0.597947187592    -1.562310107880     0.000009857721    14.003074004430
         N           -2.005854812408    -0.639453107880    -0.000001142279    14.003074004430
         C            0.318567187592    -0.251799107880     0.000009857721    12.000000000000
         C            2.513957187592    -0.367675107880    -0.000010142279    12.000000000000
         C            1.563731187592     1.965573892120     0.000001857721    12.000000000000
         C           -1.137989412408     0.356124792120     0.000001357721    12.000000000000
         C            1.961673187592    -1.634710107880    -0.000000142279    12.000000000000
         C           -3.417699812408    -0.320562107880    -0.000006142279    12.000000000000
         H            3.537351187592    -0.019167107880    -0.000012142279     1.007825032230
         H            1.076870187592     2.374298892120    -0.883911142279     1.007825032230
         H            1.076915187592     2.374284892120     0.883947857721     1.007825032230
         H            2.624911187592     2.217702892120    -0.000022142279     1.007825032230
         H            2.479263187592    -2.585038107880    -0.000005142279     1.007825032230
         H           -1.680603812408    -1.600902107880    -0.000001142279     1.007825032230
         H           -3.909981812408    -0.721593107880     0.890801857721     1.007825032230
         H           -3.909975812408    -0.721596107880    -0.890816142279     1.007825032230
         H           -3.504071812408     0.765978892120    -0.000009142279     1.007825032230

  Basis Set: AUG-CC-PVTZ
    Blend: AUG-CC-PVTZ
  Basis Set: (AUG-CC-PVTZ AUX)
    Blend: AUG-CC-PVTZ-JKFIT
	 Reference Energy          =    -470.8298074469293510 [Eh]
	 Singles Energy            =      -0.0000000000000000 [Eh]
	 Same-Spin Energy          =      -0.4975082803013895 [Eh]
	 Opposite-Spin Energy      =      -1.5338952253474378 [Eh]
	 Correlation Energy        =      -2.0314035056488273 [Eh]
	 Total Energy              =    -472.8612109525781761 [Eh]

	 ================> DF-SCS-MP2 Energies <==================
	-----------------------------------------------------------
	 SCS Same-Spin Scale       =       0.3333333333333333 [-]
	 SCS Opposite-Spin Scale   =       1.2000000000000000 [-]
	 SCS Same-Spin Energy      =      -0.1658360934337965 [Eh]
	 SCS Opposite-Spin Energy  =      -1.8406742704169252 [Eh]
	 SCS Correlation Energy    =      -2.0065103638507216 [Eh]
	 SCS Total Energy          =    -472.8363178107800877 [Eh]
	-----------------------------------------------------------

  Dipole Moment: [D]
     X:     0.6531      Y:     0.2542      Z:    -0.0000     Total:     0.7008

*** Psi4 exiting successfully. Buy a developer a beer!
