                               Psi4 1.4a3.dev225

  ==> Input File <==

--------------------------------------------------------------------------
#psi4
#
memory 32 gb

molecule  {
0 1
  O       -1.2482290     1.5306510     0.0000030
  N        1.4640540     0.4968240    -0.0000070
  N        0.6053200    -1.5732460     0.0000100
  N       -1.9984820    -0.6503890    -0.0000010
  C        0.3259400    -0.2627350     0.0000100
  C        2.5213300    -0.3786110    -0.0000100
  C        1.5747657     2.0045037     0.0000023
  C       -1.0383320     0.3066720     0.0000020
  C        1.9690460    -1.6456460     0.0000000
  C       -3.4103270    -0.3314980    -0.0000060
  H        3.5447240    -0.0301030    -0.0000120
  H        1.0842430     2.3633630    -0.8839110
  H        1.0842880     2.3633490     0.8839480
  H        2.6322840     2.2067670    -0.0000220
  H        2.4866360    -2.5959740    -0.0000050
  H       -1.6732310    -1.6118380    -0.0000010
  H       -3.9026090    -0.7325290     0.8908020
  H       -3.9026030    -0.7325320    -0.8908160
  H       -3.4966990     0.7550430    -0.0000090
units angstrom
no_reorient  #important for SAPT in psi4, default
symmetry c1  #important for SAPT in psi4, default
}

set PROPERTIES_ORIGIN ["COM"]
properties('MP2/aug-cc-pvtz', properties = ['dipole'])
--------------------------------------------------------------------------

    Molecular point group: c1
  Charge       = 0
  Multiplicity = 1
  Basis Set: AUG-CC-PVTZ
    Blend: AUG-CC-PVTZ
  Basis Set: (AUG-CC-PVTZ AUX)
    Blend: AUG-CC-PVTZ-JKFIT

    Orbital Energies [Eh]
    ---------------------

    Doubly Occupied:

       1A    -20.521783     2A    -15.635849     3A    -15.584235
       4A    -15.563631     5A    -11.361415     6A    -11.302854
       7A    -11.277085     8A    -11.270866     9A    -11.257934
      10A    -11.253724    11A     -1.380257    12A     -1.341937
      13A     -1.233523    14A     -1.183795    15A     -1.033671
      16A     -0.980095    17A     -0.950314    18A     -0.839658
      19A     -0.811693    20A     -0.771676    21A     -0.730190
      22A     -0.656837    23A     -0.654790    24A     -0.645004
      25A     -0.619262    26A     -0.608282    27A     -0.586845
      28A     -0.583301    29A     -0.567697    30A     -0.566711
      31A     -0.545270    32A     -0.530147    33A     -0.456262
      34A     -0.433845    35A     -0.399541    36A     -0.388230
      37A     -0.321503

  @DF-RHF Final Energy:  -470.83324430306658

   => Energetics <=

    Nuclear Repulsion Energy =            526.1618021817578210
    One-Electron Energy =               -1684.2906754190667016
    Two-Electron Energy =                 687.2956289342423588
    Total Energy =                       -470.8332443030665218
  Basis Set: (AUG-CC-PVTZ AUX)
    Blend: AUG-CC-PVTZ-RI
    Molecular point group: c1

    Geometry (in Angstrom), charge = 0, multiplicity = 1:

       Center              X                  Y                   Z               Mass
    ------------   -----------------  -----------------  -----------------  -----------------
         O           -1.263880505392     1.540607664876     0.000002788693    15.994914619570
         N            1.448402494608     0.506780664876    -0.000007211307    14.003074004430
         N            0.589668494608    -1.563289335124     0.000009788693    14.003074004430
         N           -2.014133505392    -0.640432335124    -0.000001211307    14.003074004430
         C            0.310288494608    -0.252778335124     0.000009788693    12.000000000000
         C            2.505678494608    -0.368654335124    -0.000010211307    12.000000000000
         C            1.559114194608     2.014460364876     0.000002088693    12.000000000000
         C           -1.053983505392     0.316628664876     0.000001788693    12.000000000000
         C            1.953394494608    -1.635689335124    -0.000000211307    12.000000000000
         C           -3.425978505392    -0.321541335124    -0.000006211307    12.000000000000
         H            3.529072494608    -0.020146335124    -0.000012211307     1.007825032230
         H            1.068591494608     2.373319664876    -0.883911211307     1.007825032230
         H            1.068636494608     2.373305664876     0.883947788693     1.007825032230
         H            2.616632494608     2.216723664876    -0.000022211307     1.007825032230
         H            2.470984494608    -2.586017335124    -0.000005211307     1.007825032230
         H           -1.688882505392    -1.601881335124    -0.000001211307     1.007825032230
         H           -3.918260505392    -0.722572335124     0.890801788693     1.007825032230
         H           -3.918254505392    -0.722575335124    -0.890816211307     1.007825032230
         H           -3.512350505392     0.764999664876    -0.000009211307     1.007825032230

  Basis Set: AUG-CC-PVTZ
    Blend: AUG-CC-PVTZ
  Basis Set: (AUG-CC-PVTZ AUX)
    Blend: AUG-CC-PVTZ-JKFIT
	 Reference Energy          =    -470.8332443030665786 [Eh]
	 Singles Energy            =      -0.0000000000000000 [Eh]
	 Same-Spin Energy          =      -0.4991072046359720 [Eh]
	 Opposite-Spin Energy      =      -1.5370720255766139 [Eh]
	 Correlation Energy        =      -2.0361792302125861 [Eh]
	 Total Energy              =    -472.8694235332791891 [Eh]

	 ================> DF-SCS-MP2 Energies <==================
	-----------------------------------------------------------
	 SCS Same-Spin Scale       =       0.3333333333333333 [-]
	 SCS Opposite-Spin Scale   =       1.2000000000000000 [-]
	 SCS Same-Spin Energy      =      -0.1663690682119907 [Eh]
	 SCS Opposite-Spin Energy  =      -1.8444864306919366 [Eh]
	 SCS Correlation Energy    =      -2.0108554989039273 [Eh]
	 SCS Total Energy          =    -472.8440998019705148 [Eh]
	-----------------------------------------------------------

  Dipole Moment: [D]
     X:     1.4210      Y:     0.1432      Z:    -0.0000     Total:     1.4282

*** Psi4 exiting successfully. Buy a developer a beer!
