                               Psi4 1.3.2 release

  ==> Input File <==

--------------------------------------------------------------------------
#psi4
#
memory 32 gb

molecule  {
0 1
  O       -1.2482290     1.5306510     0.0000030
  N        1.4640540     0.4968240    -0.0000070
  N        0.6053200    -1.5732460     0.0000100
  N       -1.9984820    -0.6503890    -0.0000010
  C        0.3259400    -0.2627350     0.0000100
  C        2.5213300    -0.3786110    -0.0000100
  C        1.5564571     1.7551751     0.0000008
  C       -1.0383320     0.3066720     0.0000020
  C        1.9690460    -1.6456460     0.0000000
  C       -3.4103270    -0.3314980    -0.0000060
  H        3.5447240    -0.0301030    -0.0000120
  H        1.0842430     2.3633630    -0.8839110
  H        1.0842880     2.3633490     0.8839480
  H        2.6322840     2.2067670    -0.0000220
  H        2.4866360    -2.5959740    -0.0000050
  H       -1.6732310    -1.6118380    -0.0000010
  H       -3.9026090    -0.7325290     0.8908020
  H       -3.9026030    -0.7325320    -0.8908160
  H       -3.4966990     0.7550430    -0.0000090
units angstrom
no_reorient  #important for SAPT in psi4, default
symmetry c1  #important for SAPT in psi4, default
}

set PROPERTIES_ORIGIN ["COM"]
properties('MP2/aug-cc-pvtz', properties = ['dipole'])
--------------------------------------------------------------------------

    Molecular point group: c1
  Charge       = 0
  Multiplicity = 1
  Basis Set: AUG-CC-PVTZ
    Blend: AUG-CC-PVTZ
  Basis Set: (AUG-CC-PVTZ AUX)
    Blend: AUG-CC-PVTZ-JKFIT

    Orbital Energies [Eh]
    ---------------------

    Doubly Occupied:

       1A    -20.524320     2A    -15.640439     3A    -15.586928
       4A    -15.573258     5A    -11.365069     6A    -11.312738
       7A    -11.278813     8A    -11.275175     9A    -11.262279
      10A    -11.259749    11A     -1.396426    12A     -1.366843
      13A     -1.244184    14A     -1.220385    15A     -1.046135
      16A     -0.985223    17A     -0.952326    18A     -0.846047
      19A     -0.826642    20A     -0.778470    21A     -0.749707
      22A     -0.674042    23A     -0.673352    24A     -0.649463
      25A     -0.624975    26A     -0.621561    27A     -0.607442
      28A     -0.586246    29A     -0.547263    30A     -0.544523
      31A     -0.523041    32A     -0.518927    33A     -0.463259
      34A     -0.430315    35A     -0.393857    36A     -0.383587
      37A     -0.329252

  @DF-RHF Final Energy:  -470.78585392358178

   => Energetics <=

    Nuclear Repulsion Energy =            531.4195794585452859
    One-Electron Energy =               -1694.2863455625872575
    Two-Electron Energy =                 692.0809121804601318
    Total Energy =                       -470.7858539235818398
  Basis Set: (AUG-CC-PVTZ AUX)
    Blend: AUG-CC-PVTZ-RI
    Molecular point group: c1

    Geometry (in Angstrom), charge = 0, multiplicity = 1:

       Center              X                  Y                   Z               Mass
    ------------   -----------------  -----------------  -----------------  -----------------
         O           -1.262300754236     1.562120896042     0.000002918120    15.994914619570
         N            1.449982245764     0.528293896042    -0.000007081880    14.003074004430
         N            0.591248245764    -1.541776103958     0.000009918120    14.003074004430
         N           -2.012553754236    -0.618919103958    -0.000001081880    14.003074004430
         C            0.311868245764    -0.231265103958     0.000009918120    12.000000000000
         C            2.507258245764    -0.347141103958    -0.000010081880    12.000000000000
         C            1.542385345764     1.786644996042     0.000000718120    12.000000000000
         C           -1.052403754236     0.338141896042     0.000001918120    12.000000000000
         C            1.954974245764    -1.614176103958    -0.000000081880    12.000000000000
         C           -3.424398754236    -0.300028103958    -0.000006081880    12.000000000000
         H            3.530652245764     0.001366896042    -0.000012081880     1.007825032230
         H            1.070171245764     2.394832896042    -0.883911081880     1.007825032230
         H            1.070216245764     2.394818896042     0.883947918120     1.007825032230
         H            2.618212245764     2.238236896042    -0.000022081880     1.007825032230
         H            2.472564245764    -2.564504103958    -0.000005081880     1.007825032230
         H           -1.687302754236    -1.580368103958    -0.000001081880     1.007825032230
         H           -3.916680754236    -0.701059103958     0.890801918120     1.007825032230
         H           -3.916674754236    -0.701062103958    -0.890816081880     1.007825032230
         H           -3.510770754236     0.786512896042    -0.000009081880     1.007825032230

  Basis Set: AUG-CC-PVTZ
    Blend: AUG-CC-PVTZ
  Basis Set: (AUG-CC-PVTZ AUX)
    Blend: AUG-CC-PVTZ-JKFIT
	 Reference Energy          =    -470.7858539235817830 [Eh]
	 Singles Energy            =      -0.0000000000000000 [Eh]
	 Same-Spin Energy          =      -0.5020837721798408 [Eh]
	 Opposite-Spin Energy      =      -1.5401656152241094 [Eh]
	 Correlation Energy        =      -2.0422493874039502 [Eh]
	 Total Energy              =    -472.8281033109857390 [Eh]

	 ================> DF-SCS-MP2 Energies <==================
	-----------------------------------------------------------
	 SCS Same-Spin Scale       =       0.3333333333333333 [-]
	 SCS Opposite-Spin Scale   =       1.2000000000000000 [-]
	 SCS Same-Spin Energy      =      -0.1673612573932803 [Eh]
	 SCS Opposite-Spin Energy  =      -1.8481987382689313 [Eh]
	 SCS Correlation Energy    =      -2.0155599956622114 [Eh]
	 SCS Total Energy          =    -472.8014139192439984 [Eh]
	-----------------------------------------------------------

  Dipole Moment: [D]
     X:     1.2954      Y:    -0.5154      Z:    -0.0000     Total:     1.3942

*** Psi4 exiting successfully. Buy a developer a beer!
