                               Psi4 1.4a3.dev225

  ==> Input File <==

--------------------------------------------------------------------------
#psi4
#
memory 32 gb

molecule  {
0 1
  O       -1.2482290     1.5306510     0.0000030
  N        1.4640540     0.4968240    -0.0000070
  N        0.6053200    -1.5732460     0.0000100
  N       -1.9984820    -0.6503890    -0.0000010
  C        0.3259400    -0.2627350     0.0000100
  C        2.5213300    -0.3786110    -0.0000100
  C        1.5711040     1.9546380     0.0000020
  C       -1.0383320     0.3066720     0.0000020
  C        1.9690460    -1.6456460     0.0000000
  C       -3.4103270    -0.3314980    -0.0000060
  H        3.5636563    -0.0236558    -0.0000120
  H        1.0842430     2.3633630    -0.8839110
  H        1.0842880     2.3633490     0.8839480
  H        2.6322840     2.2067670    -0.0000220
  H        2.4866360    -2.5959740    -0.0000050
  H       -1.6732310    -1.6118380    -0.0000010
  H       -3.9026090    -0.7325290     0.8908020
  H       -3.9026030    -0.7325320    -0.8908160
  H       -3.4966990     0.7550430    -0.0000090
units angstrom
no_reorient  #important for SAPT in psi4, default
symmetry c1  #important for SAPT in psi4, default
}

set PROPERTIES_ORIGIN ["COM"]
properties('MP2/aug-cc-pvtz', properties = ['dipole'])
--------------------------------------------------------------------------

    Molecular point group: c1
  Charge       = 0
  Multiplicity = 1
  Basis Set: AUG-CC-PVTZ
    Blend: AUG-CC-PVTZ
  Basis Set: (AUG-CC-PVTZ AUX)
    Blend: AUG-CC-PVTZ-JKFIT

    Orbital Energies [Eh]
    ---------------------

    Doubly Occupied:

       1A    -20.522319     2A    -15.637982     3A    -15.584839
       4A    -15.565598     5A    -11.362216     6A    -11.304964
       7A    -11.274876     8A    -11.274723     9A    -11.258336
      10A    -11.255462    11A     -1.381730    12A     -1.346486
      13A     -1.234642    14A     -1.190753    15A     -1.035426
      16A     -0.979366    17A     -0.950262    18A     -0.840747
      19A     -0.813042    20A     -0.772721    21A     -0.734462
      22A     -0.657575    23A     -0.656336    24A     -0.645366
      25A     -0.619169    26A     -0.604508    27A     -0.594873
      28A     -0.583219    29A     -0.563495    30A     -0.560199
      31A     -0.545693    32A     -0.530013    33A     -0.457960
      34A     -0.433860    35A     -0.399253    36A     -0.388897
      37A     -0.323172

  @DF-RHF Final Energy:  -470.83458110712547

   => Energetics <=

    Nuclear Repulsion Energy =            527.0272390459549570
    One-Electron Energy =               -1685.9545556781381492
    Two-Electron Energy =                 688.0927355250577193
    Total Energy =                       -470.8345811071254730
  Basis Set: (AUG-CC-PVTZ AUX)
    Blend: AUG-CC-PVTZ-RI
    Molecular point group: c1

    Geometry (in Angstrom), charge = 0, multiplicity = 1:

       Center              X                  Y                   Z               Mass
    ------------   -----------------  -----------------  -----------------  -----------------
         O           -1.263701752687     1.544863588765     0.000002814578    15.994914619570
         N            1.448581247313     0.511036588765    -0.000007185422    14.003074004430
         N            0.589847247313    -1.559033411235     0.000009814578    14.003074004430
         N           -2.013954752687    -0.636176411235    -0.000001185422    14.003074004430
         C            0.310467247313    -0.248522411235     0.000009814578    12.000000000000
         C            2.505857247313    -0.364398411235    -0.000010185422    12.000000000000
         C            1.555631247313     1.968850588765     0.000001814578    12.000000000000
         C           -1.053804752687     0.320884588765     0.000001814578    12.000000000000
         C            1.953573247313    -1.631433411235    -0.000000185422    12.000000000000
         C           -3.425799752687    -0.317285411235    -0.000006185422    12.000000000000
         H            3.548183547313    -0.009443211235    -0.000012185422     1.007825032230
         H            1.068770247313     2.377575588765    -0.883911185422     1.007825032230
         H            1.068815247313     2.377561588765     0.883947814578     1.007825032230
         H            2.616811247313     2.220979588765    -0.000022185422     1.007825032230
         H            2.471163247313    -2.581761411235    -0.000005185422     1.007825032230
         H           -1.688703752687    -1.597625411235    -0.000001185422     1.007825032230
         H           -3.918081752687    -0.718316411235     0.890801814578     1.007825032230
         H           -3.918075752687    -0.718319411235    -0.890816185422     1.007825032230
         H           -3.512171752687     0.769255588765    -0.000009185422     1.007825032230

  Basis Set: AUG-CC-PVTZ
    Blend: AUG-CC-PVTZ
  Basis Set: (AUG-CC-PVTZ AUX)
    Blend: AUG-CC-PVTZ-JKFIT
	 Reference Energy          =    -470.8345811071254730 [Eh]
	 Singles Energy            =      -0.0000000000000000 [Eh]
	 Same-Spin Energy          =      -0.4993787666424347 [Eh]
	 Opposite-Spin Energy      =      -1.5372421619343084 [Eh]
	 Correlation Energy        =      -2.0366209285767432 [Eh]
	 Total Energy              =    -472.8712020357021970 [Eh]

	 ================> DF-SCS-MP2 Energies <==================
	-----------------------------------------------------------
	 SCS Same-Spin Scale       =       0.3333333333333333 [-]
	 SCS Opposite-Spin Scale   =       1.2000000000000000 [-]
	 SCS Same-Spin Energy      =      -0.1664595888808116 [Eh]
	 SCS Opposite-Spin Energy  =      -1.8446905943211700 [Eh]
	 SCS Correlation Energy    =      -2.0111501832019814 [Eh]
	 SCS Total Energy          =    -472.8457312903274783 [Eh]
	-----------------------------------------------------------

  Dipole Moment: [D]
     X:     1.3951      Y:     0.0142      Z:    -0.0000     Total:     1.3951

*** Psi4 exiting successfully. Buy a developer a beer!
