                               Psi4 1.3.2 release

  ==> Input File <==

--------------------------------------------------------------------------
#psi4
#
memory 32 gb

molecule  {
0 1
  O       -1.2482290     1.5306510     0.0000030
  N        1.4640540     0.4968240    -0.0000070
  N        0.6053200    -1.5732460     0.0000100
  N       -1.9984820    -0.6503890    -0.0000010
  C        0.2427625    -0.3182463     0.0000112
  C        2.5213300    -0.3786110    -0.0000100
  C        1.5711040     1.9546380     0.0000020
  C       -1.0383320     0.3066720     0.0000020
  C        1.9690460    -1.6456460     0.0000000
  C       -3.4103270    -0.3314980    -0.0000060
  H        3.5447240    -0.0301030    -0.0000120
  H        1.0842430     2.3633630    -0.8839110
  H        1.0842880     2.3633490     0.8839480
  H        2.6322840     2.2067670    -0.0000220
  H        2.4866360    -2.5959740    -0.0000050
  H       -1.6732310    -1.6118380    -0.0000010
  H       -3.9026090    -0.7325290     0.8908020
  H       -3.9026030    -0.7325320    -0.8908160
  H       -3.4966990     0.7550430    -0.0000090
units angstrom
no_reorient  #important for SAPT in psi4, default
symmetry c1  #important for SAPT in psi4, default
}

set PROPERTIES_ORIGIN ["COM"]
properties('MP2/aug-cc-pvtz', properties = ['dipole'])
--------------------------------------------------------------------------

    Molecular point group: c1
  Charge       = 0
  Multiplicity = 1
  Basis Set: AUG-CC-PVTZ
    Blend: AUG-CC-PVTZ
  Basis Set: (AUG-CC-PVTZ AUX)
    Blend: AUG-CC-PVTZ-JKFIT

    Orbital Energies [Eh]
    ---------------------

    Doubly Occupied:

       1A    -20.523402     2A    -15.630786     3A    -15.583890
       4A    -15.573036     5A    -11.359916     6A    -11.306601
       7A    -11.280956     8A    -11.269114     9A    -11.257671
      10A    -11.254776    11A     -1.380984    12A     -1.333038
      13A     -1.237153    14A     -1.190887    15A     -1.042713
      16A     -0.978519    17A     -0.942216    18A     -0.851506
      19A     -0.808596    20A     -0.773699    21A     -0.730016
      22A     -0.663317    23A     -0.648323    24A     -0.647997
      25A     -0.617855    26A     -0.607020    27A     -0.598378
      28A     -0.575065    29A     -0.560934    30A     -0.560336
      31A     -0.545682    32A     -0.528526    33A     -0.458664
      34A     -0.433798    35A     -0.401901    36A     -0.389206
      37A     -0.320992

  @DF-RHF Final Energy:  -470.82041480469303

   => Energetics <=

    Nuclear Repulsion Energy =            526.7795362797644430
    One-Electron Energy =               -1685.4649667782869074
    Two-Electron Energy =                 687.8650156938294913
    Total Energy =                       -470.8204148046929731
  Basis Set: (AUG-CC-PVTZ AUX)
    Blend: AUG-CC-PVTZ-RI
    Molecular point group: c1

    Geometry (in Angstrom), charge = 0, multiplicity = 1:

       Center              X                  Y                   Z               Mass
    ------------   -----------------  -----------------  -----------------  -----------------
         O           -1.256387615351     1.549700082515     0.000002711037    15.994914619570
         N            1.455895384649     0.515873082515    -0.000007288963    14.003074004430
         N            0.597161384649    -1.554196917485     0.000009711037    14.003074004430
         N           -2.006640615351    -0.631339917485    -0.000001288963    14.003074004430
         C            0.234603884649    -0.299197217485     0.000010911037    12.000000000000
         C            2.513171384649    -0.359561917485    -0.000010288963    12.000000000000
         C            1.562945384649     1.973687082515     0.000001711037    12.000000000000
         C           -1.046490615351     0.325721082515     0.000001711037    12.000000000000
         C            1.960887384649    -1.626596917485    -0.000000288963    12.000000000000
         C           -3.418485615351    -0.312448917485    -0.000006288963    12.000000000000
         H            3.536565384649    -0.011053917485    -0.000012288963     1.007825032230
         H            1.076084384649     2.382412082515    -0.883911288963     1.007825032230
         H            1.076129384649     2.382398082515     0.883947711037     1.007825032230
         H            2.624125384649     2.225816082515    -0.000022288963     1.007825032230
         H            2.478477384649    -2.576924917485    -0.000005288963     1.007825032230
         H           -1.681389615351    -1.592788917485    -0.000001288963     1.007825032230
         H           -3.910767615351    -0.713479917485     0.890801711037     1.007825032230
         H           -3.910761615351    -0.713482917485    -0.890816288963     1.007825032230
         H           -3.504857615351     0.774092082515    -0.000009288963     1.007825032230

  Basis Set: AUG-CC-PVTZ
    Blend: AUG-CC-PVTZ
  Basis Set: (AUG-CC-PVTZ AUX)
    Blend: AUG-CC-PVTZ-JKFIT
	 Reference Energy          =    -470.8204148046930300 [Eh]
	 Singles Energy            =      -0.0000000000000000 [Eh]
	 Same-Spin Energy          =      -0.5005958531597972 [Eh]
	 Opposite-Spin Energy      =      -1.5393201838844357 [Eh]
	 Correlation Energy        =      -2.0399160370442329 [Eh]
	 Total Energy              =    -472.8603308417372659 [Eh]

	 ================> DF-SCS-MP2 Energies <==================
	-----------------------------------------------------------
	 SCS Same-Spin Scale       =       0.3333333333333333 [-]
	 SCS Opposite-Spin Scale   =       1.2000000000000000 [-]
	 SCS Same-Spin Energy      =      -0.1668652843865990 [Eh]
	 SCS Opposite-Spin Energy  =      -1.8471842206613227 [Eh]
	 SCS Correlation Energy    =      -2.0140495050479217 [Eh]
	 SCS Total Energy          =    -472.8344643097409516 [Eh]
	-----------------------------------------------------------

  Dipole Moment: [D]
     X:     1.3846      Y:    -0.1825      Z:    -0.0000     Total:     1.3966

*** Psi4 exiting successfully. Buy a developer a beer!
