                               Psi4 1.3.2 release

  ==> Input File <==

--------------------------------------------------------------------------
#psi4
#
memory 32 gb

molecule  {
0 1
  O       -1.2482290     1.5306510     0.0000030
  N        1.4640540     0.4968240    -0.0000070
  N        0.6053200    -1.5732460     0.0000100
  N       -1.9984820    -0.6503890    -0.0000010
  C        0.3259400    -0.2627350     0.0000100
  C        2.5983534    -0.4423871    -0.0000102
  C        1.5711040     1.9546380     0.0000020
  C       -1.0383320     0.3066720     0.0000020
  C        1.9690460    -1.6456460     0.0000000
  C       -3.4103270    -0.3314980    -0.0000060
  H        3.5447240    -0.0301030    -0.0000120
  H        1.0842430     2.3633630    -0.8839110
  H        1.0842880     2.3633490     0.8839480
  H        2.6322840     2.2067670    -0.0000220
  H        2.4866360    -2.5959740    -0.0000050
  H       -1.6732310    -1.6118380    -0.0000010
  H       -3.9026090    -0.7325290     0.8908020
  H       -3.9026030    -0.7325320    -0.8908160
  H       -3.4966990     0.7550430    -0.0000090
units angstrom
no_reorient  #important for SAPT in psi4, default
symmetry c1  #important for SAPT in psi4, default
}

set PROPERTIES_ORIGIN ["COM"]
properties('MP2/aug-cc-pvtz', properties = ['dipole'])
--------------------------------------------------------------------------

    Molecular point group: c1
  Charge       = 0
  Multiplicity = 1
  Basis Set: AUG-CC-PVTZ
    Blend: AUG-CC-PVTZ
  Basis Set: (AUG-CC-PVTZ AUX)
    Blend: AUG-CC-PVTZ-JKFIT

    Orbital Energies [Eh]
    ---------------------

    Doubly Occupied:

       1A    -20.525871     2A    -15.630947     3A    -15.588139
       4A    -15.562222     5A    -11.365305     6A    -11.312944
       7A    -11.271607     8A    -11.270130     9A    -11.260245
      10A    -11.259312    11A     -1.382290    12A     -1.330798
      13A     -1.236356    14A     -1.181476    15A     -1.038341
      16A     -0.974024    17A     -0.952038    18A     -0.843371
      19A     -0.813813    20A     -0.774951    21A     -0.729337
      22A     -0.659821    23A     -0.649950    24A     -0.648439
      25A     -0.619110    26A     -0.613374    27A     -0.594479
      28A     -0.585335    29A     -0.557996    30A     -0.547817
      31A     -0.544884    32A     -0.529008    33A     -0.459530
      34A     -0.436156    35A     -0.395990    36A     -0.384456
      37A     -0.333624

  @DF-RHF Final Energy:  -470.82358991493703

   => Energetics <=

    Nuclear Repulsion Energy =            525.2607054260904533
    One-Electron Energy =               -1682.4416197342475243
    Two-Electron Energy =                 686.3573243932200967
    Total Energy =                       -470.8235899149369743
  Basis Set: (AUG-CC-PVTZ AUX)
    Blend: AUG-CC-PVTZ-RI
    Molecular point group: c1

    Geometry (in Angstrom), charge = 0, multiplicity = 1:

       Center              X                  Y                   Z               Mass
    ------------   -----------------  -----------------  -----------------  -----------------
         O           -1.270210494053     1.550413207897     0.000002831835    15.994914619570
         N            1.442072505947     0.516586207897    -0.000007168165    14.003074004430
         N            0.583338505947    -1.553483792103     0.000009831835    14.003074004430
         N           -2.020463494053    -0.630626792103    -0.000001168165    14.003074004430
         C            0.303958505947    -0.242972792103     0.000009831835    12.000000000000
         C            2.576371905947    -0.422624892103    -0.000010368165    12.000000000000
         C            1.549122505947     1.974400207897     0.000001831835    12.000000000000
         C           -1.060313494053     0.326434207897     0.000001831835    12.000000000000
         C            1.947064505947    -1.625883792103    -0.000000168165    12.000000000000
         C           -3.432308494053    -0.311735792103    -0.000006168165    12.000000000000
         H            3.522742505947    -0.010340792103    -0.000012168165     1.007825032230
         H            1.062261505947     2.383125207897    -0.883911168165     1.007825032230
         H            1.062306505947     2.383111207897     0.883947831835     1.007825032230
         H            2.610302505947     2.226529207897    -0.000022168165     1.007825032230
         H            2.464654505947    -2.576211792103    -0.000005168165     1.007825032230
         H           -1.695212494053    -1.592075792103    -0.000001168165     1.007825032230
         H           -3.924590494053    -0.712766792103     0.890801831835     1.007825032230
         H           -3.924584494053    -0.712769792103    -0.890816168165     1.007825032230
         H           -3.518680494053     0.774805207897    -0.000009168165     1.007825032230

  Basis Set: AUG-CC-PVTZ
    Blend: AUG-CC-PVTZ
  Basis Set: (AUG-CC-PVTZ AUX)
    Blend: AUG-CC-PVTZ-JKFIT
	 Reference Energy          =    -470.8235899149370312 [Eh]
	 Singles Energy            =      -0.0000000000000000 [Eh]
	 Same-Spin Energy          =      -0.4988352165782785 [Eh]
	 Opposite-Spin Energy      =      -1.5383409176902849 [Eh]
	 Correlation Energy        =      -2.0371761342685635 [Eh]
	 Total Energy              =    -472.8607660492056084 [Eh]

	 ================> DF-SCS-MP2 Energies <==================
	-----------------------------------------------------------
	 SCS Same-Spin Scale       =       0.3333333333333333 [-]
	 SCS Opposite-Spin Scale   =       1.2000000000000000 [-]
	 SCS Same-Spin Energy      =      -0.1662784055260928 [Eh]
	 SCS Opposite-Spin Energy  =      -1.8460091012283417 [Eh]
	 SCS Correlation Energy    =      -2.0122875067544346 [Eh]
	 SCS Total Energy          =    -472.8358774216914640 [Eh]
	-----------------------------------------------------------

  Dipole Moment: [D]
     X:     1.3014      Y:    -0.0781      Z:    -0.0000     Total:     1.3037

*** Psi4 exiting successfully. Buy a developer a beer!
