                               Psi4 1.3.2 release

  ==> Input File <==

--------------------------------------------------------------------------
#psi4
#
memory 32 gb

molecule  {
0 1
  O       -1.2482290     1.5306510     0.0000030
  N        1.4489366     0.4782387    -0.0000070
  N        0.6053200    -1.5732460     0.0000100
  N       -1.9984820    -0.6503890    -0.0000010
  C        0.3259400    -0.2627350     0.0000100
  C        2.5213300    -0.3786110    -0.0000100
  C        1.5711040     1.9546380     0.0000020
  C       -1.0383320     0.3066720     0.0000020
  C        1.9690460    -1.6456460     0.0000000
  C       -3.4103270    -0.3314980    -0.0000060
  H        3.5447240    -0.0301030    -0.0000120
  H        1.0842430     2.3633630    -0.8839110
  H        1.0842880     2.3633490     0.8839480
  H        2.6322840     2.2067670    -0.0000220
  H        2.4866360    -2.5959740    -0.0000050
  H       -1.6732310    -1.6118380    -0.0000010
  H       -3.9026090    -0.7325290     0.8908020
  H       -3.9026030    -0.7325320    -0.8908160
  H       -3.4966990     0.7550430    -0.0000090
units angstrom
no_reorient  #important for SAPT in psi4, default
symmetry c1  #important for SAPT in psi4, default
}

set PROPERTIES_ORIGIN ["COM"]
properties('MP2/aug-cc-pvtz', properties = ['dipole'])
--------------------------------------------------------------------------

    Molecular point group: c1
  Charge       = 0
  Multiplicity = 1
  Basis Set: AUG-CC-PVTZ
    Blend: AUG-CC-PVTZ
  Basis Set: (AUG-CC-PVTZ AUX)
    Blend: AUG-CC-PVTZ-JKFIT

    Orbital Energies [Eh]
    ---------------------

    Doubly Occupied:

       1A    -20.522539     2A    -15.637766     3A    -15.584951
       4A    -15.562157     5A    -11.362309     6A    -11.302613
       7A    -11.277091     8A    -11.270515     9A    -11.258369
      10A    -11.254983    11A     -1.382918    12A     -1.349392
      13A     -1.234458    14A     -1.187025    15A     -1.036774
      16A     -0.978092    17A     -0.952423    18A     -0.840704
      19A     -0.815720    20A     -0.772575    21A     -0.734406
      22A     -0.660210    23A     -0.656817    24A     -0.645787
      25A     -0.618962    26A     -0.604578    27A     -0.592902
      28A     -0.585115    29A     -0.563139    30A     -0.561409
      31A     -0.545725    32A     -0.530563    33A     -0.456149
      34A     -0.433960    35A     -0.398819    36A     -0.388578
      37A     -0.324049

  @DF-RHF Final Energy:  -470.83537767146220

   => Energetics <=

    Nuclear Repulsion Energy =            527.4992118247429289
    One-Electron Energy =               -1686.9000951430391524
    Two-Electron Energy =                 688.5655056468339126
    Total Energy =                       -470.8353776714621972
  Basis Set: (AUG-CC-PVTZ AUX)
    Blend: AUG-CC-PVTZ-RI
    Molecular point group: c1

    Geometry (in Angstrom), charge = 0, multiplicity = 1:

       Center              X                  Y                   Z               Mass
    ------------   -----------------  -----------------  -----------------  -----------------
         O           -1.262042423233     1.546781617319     0.000002814578    15.994914619570
         N            1.435123176767     0.494369317319    -0.000007185422    14.003074004430
         N            0.591506576767    -1.557115382681     0.000009814578    14.003074004430
         N           -2.012295423233    -0.634258382681    -0.000001185422    14.003074004430
         C            0.312126576767    -0.246604382681     0.000009814578    12.000000000000
         C            2.507516576767    -0.362480382681    -0.000010185422    12.000000000000
         C            1.557290576767     1.970768617319     0.000001814578    12.000000000000
         C           -1.052145423233     0.322802617319     0.000001814578    12.000000000000
         C            1.955232576767    -1.629515382681    -0.000000185422    12.000000000000
         C           -3.424140423233    -0.315367382681    -0.000006185422    12.000000000000
         H            3.530910576767    -0.013972382681    -0.000012185422     1.007825032230
         H            1.070429576767     2.379493617319    -0.883911185422     1.007825032230
         H            1.070474576767     2.379479617319     0.883947814578     1.007825032230
         H            2.618470576767     2.222897617319    -0.000022185422     1.007825032230
         H            2.472822576767    -2.579843382681    -0.000005185422     1.007825032230
         H           -1.687044423233    -1.595707382681    -0.000001185422     1.007825032230
         H           -3.916422423233    -0.716398382681     0.890801814578     1.007825032230
         H           -3.916416423233    -0.716401382681    -0.890816185422     1.007825032230
         H           -3.510512423233     0.771173617319    -0.000009185422     1.007825032230

  Basis Set: AUG-CC-PVTZ
    Blend: AUG-CC-PVTZ
  Basis Set: (AUG-CC-PVTZ AUX)
    Blend: AUG-CC-PVTZ-JKFIT
	 Reference Energy          =    -470.8353776714621972 [Eh]
	 Singles Energy            =      -0.0000000000000000 [Eh]
	 Same-Spin Energy          =      -0.4991149547480342 [Eh]
	 Opposite-Spin Energy      =      -1.5366754107590623 [Eh]
	 Correlation Energy        =      -2.0357903655070966 [Eh]
	 Total Energy              =    -472.8711680369692658 [Eh]

	 ================> DF-SCS-MP2 Energies <==================
	-----------------------------------------------------------
	 SCS Same-Spin Scale       =       0.3333333333333333 [-]
	 SCS Opposite-Spin Scale   =       1.2000000000000000 [-]
	 SCS Same-Spin Energy      =      -0.1663716515826781 [Eh]
	 SCS Opposite-Spin Energy  =      -1.8440104929108747 [Eh]
	 SCS Correlation Energy    =      -2.0103821444935526 [Eh]
	 SCS Total Energy          =    -472.8457598159557733 [Eh]
	-----------------------------------------------------------

  Dipole Moment: [D]
     X:     1.3999      Y:     0.0757      Z:    -0.0000     Total:     1.4019

*** Psi4 exiting successfully. Buy a developer a beer!
