                               Psi4 1.3.2 release

  ==> Input File <==

--------------------------------------------------------------------------
#psi4
#
memory 32 gb

molecule  {
0 1
  O       -1.2482290     1.5306510     0.0000030
  N        1.4341458     0.4593923    -0.0000070
  N        0.6053200    -1.5732460     0.0000100
  N       -1.9984820    -0.6503890    -0.0000010
  C        0.3259400    -0.2627350     0.0000100
  C        2.5213300    -0.3786110    -0.0000100
  C        1.5711040     1.9546380     0.0000020
  C       -1.0383320     0.3066720     0.0000020
  C        1.9690460    -1.6456460     0.0000000
  C       -3.4103270    -0.3314980    -0.0000060
  H        3.5447240    -0.0301030    -0.0000120
  H        1.0842430     2.3633630    -0.8839110
  H        1.0842880     2.3633490     0.8839480
  H        2.6322840     2.2067670    -0.0000220
  H        2.4866360    -2.5959740    -0.0000050
  H       -1.6732310    -1.6118380    -0.0000010
  H       -3.9026090    -0.7325290     0.8908020
  H       -3.9026030    -0.7325320    -0.8908160
  H       -3.4966990     0.7550430    -0.0000090
units angstrom
no_reorient  #important for SAPT in psi4, default
symmetry c1  #important for SAPT in psi4, default
}

set PROPERTIES_ORIGIN ["COM"]
properties('MP2/aug-cc-pvtz', properties = ['dipole'])
--------------------------------------------------------------------------

    Molecular point group: c1
  Charge       = 0
  Multiplicity = 1
  Basis Set: AUG-CC-PVTZ
    Blend: AUG-CC-PVTZ
  Basis Set: (AUG-CC-PVTZ AUX)
    Blend: AUG-CC-PVTZ-JKFIT

    Orbital Energies [Eh]
    ---------------------

    Doubly Occupied:

       1A    -20.522803     2A    -15.637597     3A    -15.585112
       4A    -15.558791     5A    -11.362472     6A    -11.300241
       7A    -11.279290     8A    -11.268515     9A    -11.258434
      10A    -11.254603    11A     -1.384451    12A     -1.352516
      13A     -1.234362    14A     -1.183394    15A     -1.038021
      16A     -0.976786    17A     -0.954297    18A     -0.840566
      19A     -0.816852    20A     -0.772231    21A     -0.734098
      22A     -0.661174    23A     -0.657575    24A     -0.645791
      25A     -0.618812    26A     -0.603976    27A     -0.593051
      28A     -0.584302    29A     -0.562800    30A     -0.561650
      31A     -0.545774    32A     -0.531132    33A     -0.454246
      34A     -0.433995    35A     -0.398466    36A     -0.388298
      37A     -0.324892

  @DF-RHF Final Energy:  -470.83380102973149

   => Energetics <=

    Nuclear Repulsion Energy =            527.8768526210384380
    One-Electron Energy =               -1687.6585721475892115
    Two-Electron Energy =                 688.9479184968191703
    Total Energy =                       -470.8338010297314895
  Basis Set: (AUG-CC-PVTZ AUX)
    Blend: AUG-CC-PVTZ-RI
    Molecular point group: c1

    Geometry (in Angstrom), charge = 0, multiplicity = 1:

       Center              X                  Y                   Z               Mass
    ------------   -----------------  -----------------  -----------------  -----------------
         O           -1.260553174128     1.548679214768     0.000002814578    15.994914619570
         N            1.421821625872     0.477420514768    -0.000007185422    14.003074004430
         N            0.592995825872    -1.555217785232     0.000009814578    14.003074004430
         N           -2.010806174128    -0.632360785232    -0.000001185422    14.003074004430
         C            0.313615825872    -0.244706785232     0.000009814578    12.000000000000
         C            2.509005825872    -0.360582785232    -0.000010185422    12.000000000000
         C            1.558779825872     1.972666214768     0.000001814578    12.000000000000
         C           -1.050656174128     0.324700214768     0.000001814578    12.000000000000
         C            1.956721825872    -1.627617785232    -0.000000185422    12.000000000000
         C           -3.422651174128    -0.313469785232    -0.000006185422    12.000000000000
         H            3.532399825872    -0.012074785232    -0.000012185422     1.007825032230
         H            1.071918825872     2.381391214768    -0.883911185422     1.007825032230
         H            1.071963825872     2.381377214768     0.883947814578     1.007825032230
         H            2.619959825872     2.224795214768    -0.000022185422     1.007825032230
         H            2.474311825872    -2.577945785232    -0.000005185422     1.007825032230
         H           -1.685555174128    -1.593809785232    -0.000001185422     1.007825032230
         H           -3.914933174128    -0.714500785232     0.890801814578     1.007825032230
         H           -3.914927174128    -0.714503785232    -0.890816185422     1.007825032230
         H           -3.509023174128     0.773071214768    -0.000009185422     1.007825032230

  Basis Set: AUG-CC-PVTZ
    Blend: AUG-CC-PVTZ
  Basis Set: (AUG-CC-PVTZ AUX)
    Blend: AUG-CC-PVTZ-JKFIT
	 Reference Energy          =    -470.8338010297314895 [Eh]
	 Singles Energy            =      -0.0000000000000000 [Eh]
	 Same-Spin Energy          =      -0.4989451585592445 [Eh]
	 Opposite-Spin Energy      =      -1.5363584930072998 [Eh]
	 Correlation Energy        =      -2.0353036515665441 [Eh]
	 Total Energy              =    -472.8691046812980403 [Eh]

	 ================> DF-SCS-MP2 Energies <==================
	-----------------------------------------------------------
	 SCS Same-Spin Scale       =       0.3333333333333333 [-]
	 SCS Opposite-Spin Scale   =       1.2000000000000000 [-]
	 SCS Same-Spin Energy      =      -0.1663150528530815 [Eh]
	 SCS Opposite-Spin Energy  =      -1.8436301916087596 [Eh]
	 SCS Correlation Energy    =      -2.0099452444618411 [Eh]
	 SCS Total Energy          =    -472.8437462741933359 [Eh]
	-----------------------------------------------------------

  Dipole Moment: [D]
     X:     1.4014      Y:     0.1375      Z:    -0.0000     Total:     1.4082

*** Psi4 exiting successfully. Buy a developer a beer!
