                               Psi4 1.3.2 release

  ==> Input File <==

--------------------------------------------------------------------------
#psi4
#
memory 32 gb

molecule  {
0 1
  O       -1.2482290     1.5306510     0.0000030
  N        1.4640540     0.4968240    -0.0000070
  N        0.6053200    -1.5732460     0.0000100
  N       -1.9984820    -0.6503890    -0.0000010
  C        0.3259400    -0.2627350     0.0000100
  C        2.5213300    -0.3786110    -0.0000100
  C        1.5711040     1.9546380     0.0000020
  C       -0.8537628     0.2296382     0.0000031
  C        1.9690460    -1.6456460     0.0000000
  C       -3.4103270    -0.3314980    -0.0000060
  H        3.5447240    -0.0301030    -0.0000120
  H        1.0842430     2.3633630    -0.8839110
  H        1.0842880     2.3633490     0.8839480
  H        2.6322840     2.2067670    -0.0000220
  H        2.4866360    -2.5959740    -0.0000050
  H       -1.6732310    -1.6118380    -0.0000010
  H       -3.9026090    -0.7325290     0.8908020
  H       -3.9026030    -0.7325320    -0.8908160
  H       -3.4966990     0.7550430    -0.0000090
units angstrom
no_reorient  #important for SAPT in psi4, default
symmetry c1  #important for SAPT in psi4, default
}

set PROPERTIES_ORIGIN ["COM"]
properties('MP2/aug-cc-pvtz', properties = ['dipole'])
--------------------------------------------------------------------------

    Molecular point group: c1
  Charge       = 0
  Multiplicity = 1
  Basis Set: AUG-CC-PVTZ
    Blend: AUG-CC-PVTZ
  Basis Set: (AUG-CC-PVTZ AUX)
    Blend: AUG-CC-PVTZ-JKFIT

    Orbital Energies [Eh]
    ---------------------

    Doubly Occupied:

       1A    -20.503652     2A    -15.657118     3A    -15.588691
       4A    -15.571291     5A    -11.355164     6A    -11.298056
       7A    -11.297301     8A    -11.281165     9A    -11.274020
      10A    -11.248474    11A     -1.379951    12A     -1.297549
      13A     -1.217568    14A     -1.178531    15A     -1.079592
      16A     -0.994552    17A     -0.943917    18A     -0.881396
      19A     -0.833625    20A     -0.756597    21A     -0.724234
      22A     -0.669544    23A     -0.666235    24A     -0.638500
      25A     -0.613378    26A     -0.602959    27A     -0.600512
      28A     -0.578144    29A     -0.570068    30A     -0.562548
      31A     -0.517555    32A     -0.498237    33A     -0.471074
      34A     -0.415611    35A     -0.408363    36A     -0.365267
      37A     -0.336501

  @DF-RHF Final Energy:  -470.75868216969570

   => Energetics <=

    Nuclear Repulsion Energy =            528.0453525189517450
    One-Electron Energy =               -1687.8541874436502894
    Two-Electron Energy =                 689.0501527550029550
    Total Energy =                       -470.7586821696957031
  Basis Set: (AUG-CC-PVTZ AUX)
    Blend: AUG-CC-PVTZ-RI
    Molecular point group: c1

    Geometry (in Angstrom), charge = 0, multiplicity = 1:

       Center              X                  Y                   Z               Mass
    ------------   -----------------  -----------------  -----------------  -----------------
         O           -1.279490045843     1.551557143911     0.000002719665    15.994914619570
         N            1.432792954157     0.517730143911    -0.000007280335    14.003074004430
         N            0.574058954157    -1.552339856089     0.000009719665    14.003074004430
         N           -2.029743045843    -0.629482856089    -0.000001280335    14.003074004430
         C            0.294678954157    -0.241828856089     0.000009719665    12.000000000000
         C            2.490068954157    -0.357704856089    -0.000010280335    12.000000000000
         C            1.539842954157     1.975544143911     0.000001719665    12.000000000000
         C           -0.885023845843     0.250544343911     0.000002819665    12.000000000000
         C            1.937784954157    -1.624739856089    -0.000000280335    12.000000000000
         C           -3.441588045843    -0.310591856089    -0.000006280335    12.000000000000
         H            3.513462954157    -0.009196856089    -0.000012280335     1.007825032230
         H            1.052981954157     2.384269143911    -0.883911280335     1.007825032230
         H            1.053026954157     2.384255143911     0.883947719665     1.007825032230
         H            2.601022954157     2.227673143911    -0.000022280335     1.007825032230
         H            2.455374954157    -2.575067856089    -0.000005280335     1.007825032230
         H           -1.704492045843    -1.590931856089    -0.000001280335     1.007825032230
         H           -3.933870045843    -0.711622856089     0.890801719665     1.007825032230
         H           -3.933864045843    -0.711625856089    -0.890816280335     1.007825032230
         H           -3.527960045843     0.775949143911    -0.000009280335     1.007825032230

  Basis Set: AUG-CC-PVTZ
    Blend: AUG-CC-PVTZ
  Basis Set: (AUG-CC-PVTZ AUX)
    Blend: AUG-CC-PVTZ-JKFIT
	 Reference Energy          =    -470.7586821696957031 [Eh]
	 Singles Energy            =      -0.0000000000000000 [Eh]
	 Same-Spin Energy          =      -0.5063942447398762 [Eh]
	 Opposite-Spin Energy      =      -1.5498364094359078 [Eh]
	 Correlation Energy        =      -2.0562306541757840 [Eh]
	 Total Energy              =    -472.8149128238715093 [Eh]

	 ================> DF-SCS-MP2 Energies <==================
	-----------------------------------------------------------
	 SCS Same-Spin Scale       =       0.3333333333333333 [-]
	 SCS Opposite-Spin Scale   =       1.2000000000000000 [-]
	 SCS Same-Spin Energy      =      -0.1687980815799587 [Eh]
	 SCS Opposite-Spin Energy  =      -1.8598036913230893 [Eh]
	 SCS Correlation Energy    =      -2.0286017729030479 [Eh]
	 SCS Total Energy          =    -472.7872839425987763 [Eh]
	-----------------------------------------------------------

  Dipole Moment: [D]
     X:     2.9043      Y:    -0.3583      Z:    -0.0000     Total:     2.9263

*** Psi4 exiting successfully. Buy a developer a beer!
