                               Psi4 1.3.2 release

  ==> Input File <==

--------------------------------------------------------------------------
#psi4
#
memory 32 gb

molecule  {
0 1
  O       -1.2482290     1.5306510     0.0000030
  N        1.4640540     0.4968240    -0.0000070
  N        0.7407752    -1.5368637     0.0000109
  N       -1.9984820    -0.6503890    -0.0000010
  C        0.3259400    -0.2627350     0.0000100
  C        2.5213300    -0.3786110    -0.0000100
  C        1.5711040     1.9546380     0.0000020
  C       -1.0383320     0.3066720     0.0000020
  C        1.9690460    -1.6456460     0.0000000
  C       -3.4103270    -0.3314980    -0.0000060
  H        3.5447240    -0.0301030    -0.0000120
  H        1.0842430     2.3633630    -0.8839110
  H        1.0842880     2.3633490     0.8839480
  H        2.6322840     2.2067670    -0.0000220
  H        2.4866360    -2.5959740    -0.0000050
  H       -1.6732310    -1.6118380    -0.0000010
  H       -3.9026090    -0.7325290     0.8908020
  H       -3.9026030    -0.7325320    -0.8908160
  H       -3.4966990     0.7550430    -0.0000090
units angstrom
no_reorient  #important for SAPT in psi4, default
symmetry c1  #important for SAPT in psi4, default
}

set PROPERTIES_ORIGIN ["COM"]
properties('MP2/aug-cc-pvtz', properties = ['dipole'])
--------------------------------------------------------------------------

    Molecular point group: c1
  Charge       = 0
  Multiplicity = 1
  Basis Set: AUG-CC-PVTZ
    Blend: AUG-CC-PVTZ
  Basis Set: (AUG-CC-PVTZ AUX)
    Blend: AUG-CC-PVTZ-JKFIT

    Orbital Energies [Eh]
    ---------------------

    Doubly Occupied:

       1A    -20.520905     2A    -15.641707     3A    -15.585619
       4A    -15.547317     5A    -11.363783     6A    -11.295731
       7A    -11.273404     8A    -11.266249     9A    -11.258665
      10A    -11.241787    11A     -1.385206    12A     -1.359936
      13A     -1.234472    14A     -1.211078    15A     -1.034522
      16A     -0.983618    17A     -0.952518    18A     -0.838828
      19A     -0.815435    20A     -0.776873    21A     -0.741595
      22A     -0.667094    23A     -0.658212    24A     -0.645684
      25A     -0.619351    26A     -0.615502    27A     -0.599024
      28A     -0.584949    29A     -0.567582    30A     -0.566476
      31A     -0.545450    32A     -0.533099    33A     -0.441719
      34A     -0.424096    35A     -0.408886    36A     -0.392915
      37A     -0.313589

  @DF-RHF Final Energy:  -470.81757104996348

   => Energetics <=

    Nuclear Repulsion Energy =            529.2437264899730280
    One-Electron Energy =               -1690.2968434942185922
    Two-Electron Energy =                 690.2355459542819744
    Total Energy =                       -470.8175710499634761
  Basis Set: (AUG-CC-PVTZ AUX)
    Blend: AUG-CC-PVTZ-RI
    Molecular point group: c1

    Geometry (in Angstrom), charge = 0, multiplicity = 1:

       Center              X                  Y                   Z               Mass
    ------------   -----------------  -----------------  -----------------  -----------------
         O           -1.277203206282     1.541247065493     0.000002723960    15.994914619570
         N            1.435079793718     0.507420065493    -0.000007276040    14.003074004430
         N            0.711800993718    -1.526267634507     0.000010623960    14.003074004430
         N           -2.027456206282    -0.639792934507    -0.000001276040    14.003074004430
         C            0.296965793718    -0.252138934507     0.000009723960    12.000000000000
         C            2.492355793718    -0.368014934507    -0.000010276040    12.000000000000
         C            1.542129793718     1.965234065493     0.000001723960    12.000000000000
         C           -1.067306206282     0.317268065493     0.000001723960    12.000000000000
         C            1.940071793718    -1.635049934507    -0.000000276040    12.000000000000
         C           -3.439301206282    -0.320901934507    -0.000006276040    12.000000000000
         H            3.515749793718    -0.019506934507    -0.000012276040     1.007825032230
         H            1.055268793718     2.373959065493    -0.883911276040     1.007825032230
         H            1.055313793718     2.373945065493     0.883947723960     1.007825032230
         H            2.603309793718     2.217363065493    -0.000022276040     1.007825032230
         H            2.457661793718    -2.585377934507    -0.000005276040     1.007825032230
         H           -1.702205206282    -1.601241934507    -0.000001276040     1.007825032230
         H           -3.931583206282    -0.721932934507     0.890801723960     1.007825032230
         H           -3.931577206282    -0.721935934507    -0.890816276040     1.007825032230
         H           -3.525673206282     0.765639065493    -0.000009276040     1.007825032230

  Basis Set: AUG-CC-PVTZ
    Blend: AUG-CC-PVTZ
  Basis Set: (AUG-CC-PVTZ AUX)
    Blend: AUG-CC-PVTZ-JKFIT
	 Reference Energy          =    -470.8175710499634761 [Eh]
	 Singles Energy            =      -0.0000000000000000 [Eh]
	 Same-Spin Energy          =      -0.5000068495938721 [Eh]
	 Opposite-Spin Energy      =      -1.5351861572860632 [Eh]
	 Correlation Energy        =      -2.0351930068799353 [Eh]
	 Total Energy              =    -472.8527640568433981 [Eh]

	 ================> DF-SCS-MP2 Energies <==================
	-----------------------------------------------------------
	 SCS Same-Spin Scale       =       0.3333333333333333 [-]
	 SCS Opposite-Spin Scale   =       1.2000000000000000 [-]
	 SCS Same-Spin Energy      =      -0.1666689498646240 [Eh]
	 SCS Opposite-Spin Energy  =      -1.8422233887432757 [Eh]
	 SCS Correlation Energy    =      -2.0088923386078998 [Eh]
	 SCS Total Energy          =    -472.8264633885713693 [Eh]
	-----------------------------------------------------------

  Dipole Moment: [D]
     X:     1.1426      Y:    -0.1720      Z:    -0.0000     Total:     1.1554

*** Psi4 exiting successfully. Buy a developer a beer!
