                               Psi4 1.3.2 release

  ==> Input File <==

--------------------------------------------------------------------------
#psi4
#
memory 32 gb

molecule  {
0 1
  O       -1.2482290     1.5306510     0.0000030
  N        1.4640540     0.4968240    -0.0000070
  N        0.6053200    -1.5732460     0.0000100
  N       -1.9984820    -0.6503890    -0.0000010
  C        0.2352039    -0.2854159     0.0000107
  C        2.5213300    -0.3786110    -0.0000100
  C        1.5711040     1.9546380     0.0000020
  C       -1.0383320     0.3066720     0.0000020
  C        1.9690460    -1.6456460     0.0000000
  C       -3.4103270    -0.3314980    -0.0000060
  H        3.5447240    -0.0301030    -0.0000120
  H        1.0842430     2.3633630    -0.8839110
  H        1.0842880     2.3633490     0.8839480
  H        2.6322840     2.2067670    -0.0000220
  H        2.4866360    -2.5959740    -0.0000050
  H       -1.6732310    -1.6118380    -0.0000010
  H       -3.9026090    -0.7325290     0.8908020
  H       -3.9026030    -0.7325320    -0.8908160
  H       -3.4966990     0.7550430    -0.0000090
units angstrom
no_reorient  #important for SAPT in psi4, default
symmetry c1  #important for SAPT in psi4, default
}

set PROPERTIES_ORIGIN ["COM"]
properties('MP2/aug-cc-pvtz', properties = ['dipole'])
--------------------------------------------------------------------------

    Molecular point group: c1
  Charge       = 0
  Multiplicity = 1
  Basis Set: AUG-CC-PVTZ
    Blend: AUG-CC-PVTZ
  Basis Set: (AUG-CC-PVTZ AUX)
    Blend: AUG-CC-PVTZ-JKFIT

    Orbital Energies [Eh]
    ---------------------

    Doubly Occupied:

       1A    -20.521289     2A    -15.635780     3A    -15.582746
       4A    -15.574950     5A    -11.357220     6A    -11.306180
       7A    -11.281925     8A    -11.270092     9A    -11.257081
      10A    -11.256767    11A     -1.380646    12A     -1.330563
      13A     -1.236021    14A     -1.186050    15A     -1.044932
      16A     -0.979019    17A     -0.943208    18A     -0.855186
      19A     -0.806919    20A     -0.773134    21A     -0.730788
      22A     -0.664706    23A     -0.649275    24A     -0.647696
      25A     -0.617683    26A     -0.605853    27A     -0.597699
      28A     -0.578472    29A     -0.561527    30A     -0.559187
      31A     -0.544915    32A     -0.527456    33A     -0.454506
      34A     -0.435419    35A     -0.399286    36A     -0.387908
      37A     -0.321386

  @DF-RHF Final Energy:  -470.81820108017962

   => Energetics <=

    Nuclear Repulsion Energy =            526.7762130894890333
    One-Electron Energy =               -1685.4618858452492987
    Two-Electron Energy =                 687.8674716755805321
    Total Energy =                       -470.8182010801796196
  Basis Set: (AUG-CC-PVTZ AUX)
    Blend: AUG-CC-PVTZ-RI
    Molecular point group: c1

    Geometry (in Angstrom), charge = 0, multiplicity = 1:

       Center              X                  Y                   Z               Mass
    ------------   -----------------  -----------------  -----------------  -----------------
         O           -1.255735424190     1.546867322918     0.000002754179    15.994914619570
         N            1.456547575810     0.513040322918    -0.000007245821    14.003074004430
         N            0.597813575810    -1.557029677082     0.000009754179    14.003074004430
         N           -2.005988424190    -0.634172677082    -0.000001245821    14.003074004430
         C            0.227697475810    -0.269199577082     0.000010454179    12.000000000000
         C            2.513823575810    -0.362394677082    -0.000010245821    12.000000000000
         C            1.563597575810     1.970854322918     0.000001754179    12.000000000000
         C           -1.045838424190     0.322888322918     0.000001754179    12.000000000000
         C            1.961539575810    -1.629429677082    -0.000000245821    12.000000000000
         C           -3.417833424190    -0.315281677082    -0.000006245821    12.000000000000
         H            3.537217575810    -0.013886677082    -0.000012245821     1.007825032230
         H            1.076736575810     2.379579322918    -0.883911245821     1.007825032230
         H            1.076781575810     2.379565322918     0.883947754179     1.007825032230
         H            2.624777575810     2.222983322918    -0.000022245821     1.007825032230
         H            2.479129575810    -2.579757677082    -0.000005245821     1.007825032230
         H           -1.680737424190    -1.595621677082    -0.000001245821     1.007825032230
         H           -3.910115424190    -0.716312677082     0.890801754179     1.007825032230
         H           -3.910109424190    -0.716315677082    -0.890816245821     1.007825032230
         H           -3.504205424190     0.771259322918    -0.000009245821     1.007825032230

  Basis Set: AUG-CC-PVTZ
    Blend: AUG-CC-PVTZ
  Basis Set: (AUG-CC-PVTZ AUX)
    Blend: AUG-CC-PVTZ-JKFIT
	 Reference Energy          =    -470.8182010801796196 [Eh]
	 Singles Energy            =      -0.0000000000000000 [Eh]
	 Same-Spin Energy          =      -0.5014764105348621 [Eh]
	 Opposite-Spin Energy      =      -1.5407457208983215 [Eh]
	 Correlation Energy        =      -2.0422221314331837 [Eh]
	 Total Energy              =    -472.8604232116127832 [Eh]

	 ================> DF-SCS-MP2 Energies <==================
	-----------------------------------------------------------
	 SCS Same-Spin Scale       =       0.3333333333333333 [-]
	 SCS Opposite-Spin Scale   =       1.2000000000000000 [-]
	 SCS Same-Spin Energy      =      -0.1671588035116207 [Eh]
	 SCS Opposite-Spin Energy  =      -1.8488948650779857 [Eh]
	 SCS Correlation Energy    =      -2.0160536685896062 [Eh]
	 SCS Total Energy          =    -472.8342547487692400 [Eh]
	-----------------------------------------------------------

  Dipole Moment: [D]
     X:     1.5114      Y:    -0.1519      Z:    -0.0000     Total:     1.5191

*** Psi4 exiting successfully. Buy a developer a beer!
