                               Psi4 1.3.2 release

  ==> Input File <==

--------------------------------------------------------------------------
#psi4
#
memory 32 gb

molecule  {
0 1
  O       -1.2482290     1.5306510     0.0000030
  N        1.4082975     0.5743646    -0.0000084
  N        0.6053200    -1.5732460     0.0000100
  N       -1.9984820    -0.6503890    -0.0000010
  C        0.3259400    -0.2627350     0.0000100
  C        2.5213300    -0.3786110    -0.0000100
  C        1.5711040     1.9546380     0.0000020
  C       -1.0383320     0.3066720     0.0000020
  C        1.9690460    -1.6456460     0.0000000
  C       -3.4103270    -0.3314980    -0.0000060
  H        3.5447240    -0.0301030    -0.0000120
  H        1.0842430     2.3633630    -0.8839110
  H        1.0842880     2.3633490     0.8839480
  H        2.6322840     2.2067670    -0.0000220
  H        2.4866360    -2.5959740    -0.0000050
  H       -1.6732310    -1.6118380    -0.0000010
  H       -3.9026090    -0.7325290     0.8908020
  H       -3.9026030    -0.7325320    -0.8908160
  H       -3.4966990     0.7550430    -0.0000090
units angstrom
no_reorient  #important for SAPT in psi4, default
symmetry c1  #important for SAPT in psi4, default
}

set PROPERTIES_ORIGIN ["COM"]
properties('MP2/aug-cc-pvtz', properties = ['dipole'])
--------------------------------------------------------------------------

    Molecular point group: c1
  Charge       = 0
  Multiplicity = 1
  Basis Set: AUG-CC-PVTZ
    Blend: AUG-CC-PVTZ
  Basis Set: (AUG-CC-PVTZ AUX)
    Blend: AUG-CC-PVTZ-JKFIT

    Orbital Energies [Eh]
    ---------------------

    Doubly Occupied:

       1A    -20.524144     2A    -15.636220     3A    -15.585855
       4A    -15.566295     5A    -11.361562     6A    -11.314606
       7A    -11.277322     8A    -11.266841     9A    -11.263190
      10A    -11.258830    11A     -1.382261    12A     -1.336533
      13A     -1.236246    14A     -1.200433    15A     -1.030998
      16A     -0.983695    17A     -0.951842    18A     -0.839881
      19A     -0.812083    20A     -0.773974    21A     -0.732766
      22A     -0.658516    23A     -0.652776    24A     -0.647040
      25A     -0.620172    26A     -0.617026    27A     -0.608829
      28A     -0.581525    29A     -0.557571    30A     -0.547128
      31A     -0.544471    32A     -0.526501    33A     -0.460843
      34A     -0.433970    35A     -0.395160    36A     -0.386735
      37A     -0.327813

  @DF-RHF Final Energy:  -470.82104178966171

   => Energetics <=

    Nuclear Repulsion Energy =            526.8898588917061261
    One-Electron Energy =               -1685.6184924717681497
    Two-Electron Energy =                 687.9075917904003745
    Total Energy =                       -470.8210417896616491
  Basis Set: (AUG-CC-PVTZ AUX)
    Blend: AUG-CC-PVTZ-RI
    Molecular point group: c1

    Geometry (in Angstrom), charge = 0, multiplicity = 1:

       Center              X                  Y                   Z               Mass
    ------------   -----------------  -----------------  -----------------  -----------------
         O           -1.257950572669     1.537102937963     0.000002955541    15.994914619570
         N            1.398575927331     0.580816537963    -0.000008444459    14.003074004430
         N            0.595598427331    -1.566794062037     0.000009955541    14.003074004430
         N           -2.008203572669    -0.643937062037    -0.000001044459    14.003074004430
         C            0.316218427331    -0.256283062037     0.000009955541    12.000000000000
         C            2.511608427331    -0.372159062037    -0.000010044459    12.000000000000
         C            1.561382427331     1.961089937963     0.000001955541    12.000000000000
         C           -1.048053572669     0.313123937963     0.000001955541    12.000000000000
         C            1.959324427331    -1.639194062037    -0.000000044459    12.000000000000
         C           -3.420048572669    -0.325046062037    -0.000006044459    12.000000000000
         H            3.535002427331    -0.023651062037    -0.000012044459     1.007825032230
         H            1.074521427331     2.369814937963    -0.883911044459     1.007825032230
         H            1.074566427331     2.369800937963     0.883947955541     1.007825032230
         H            2.622562427331     2.213218937963    -0.000022044459     1.007825032230
         H            2.476914427331    -2.589522062037    -0.000005044459     1.007825032230
         H           -1.682952572669    -1.605386062037    -0.000001044459     1.007825032230
         H           -3.912330572669    -0.726077062037     0.890801955541     1.007825032230
         H           -3.912324572669    -0.726080062037    -0.890816044459     1.007825032230
         H           -3.506420572669     0.761494937963    -0.000009044459     1.007825032230

  Basis Set: AUG-CC-PVTZ
    Blend: AUG-CC-PVTZ
  Basis Set: (AUG-CC-PVTZ AUX)
    Blend: AUG-CC-PVTZ-JKFIT
	 Reference Energy          =    -470.8210417896617059 [Eh]
	 Singles Energy            =      -0.0000000000000000 [Eh]
	 Same-Spin Energy          =      -0.4997576964913252 [Eh]
	 Opposite-Spin Energy      =      -1.5391952432826779 [Eh]
	 Correlation Energy        =      -2.0389529397740032 [Eh]
	 Total Energy              =    -472.8599947294356980 [Eh]

	 ================> DF-SCS-MP2 Energies <==================
	-----------------------------------------------------------
	 SCS Same-Spin Scale       =       0.3333333333333333 [-]
	 SCS Opposite-Spin Scale   =       1.2000000000000000 [-]
	 SCS Same-Spin Energy      =      -0.1665858988304417 [Eh]
	 SCS Opposite-Spin Energy  =      -1.8470342919392133 [Eh]
	 SCS Correlation Energy    =      -2.0136201907696551 [Eh]
	 SCS Total Energy          =    -472.8346619804313491 [Eh]
	-----------------------------------------------------------

  Dipole Moment: [D]
     X:     1.3605      Y:    -0.2108      Z:    -0.0000     Total:     1.3767

*** Psi4 exiting successfully. Buy a developer a beer!
