                               Psi4 1.3.2 release

  ==> Input File <==

--------------------------------------------------------------------------
#psi4
#
memory 32 gb

molecule  {
0 1
  O       -1.2482290     1.5306510     0.0000030
  N        1.4640540     0.4968240    -0.0000070
  N        0.4668038    -1.5952700     0.0000091
  N       -1.9984820    -0.6503890    -0.0000010
  C        0.3259400    -0.2627350     0.0000100
  C        2.5213300    -0.3786110    -0.0000100
  C        1.5711040     1.9546380     0.0000020
  C       -1.0383320     0.3066720     0.0000020
  C        1.9690460    -1.6456460     0.0000000
  C       -3.4103270    -0.3314980    -0.0000060
  H        3.5447240    -0.0301030    -0.0000120
  H        1.0842430     2.3633630    -0.8839110
  H        1.0842880     2.3633490     0.8839480
  H        2.6322840     2.2067670    -0.0000220
  H        2.4866360    -2.5959740    -0.0000050
  H       -1.6732310    -1.6118380    -0.0000010
  H       -3.9026090    -0.7325290     0.8908020
  H       -3.9026030    -0.7325320    -0.8908160
  H       -3.4966990     0.7550430    -0.0000090
units angstrom
no_reorient  #important for SAPT in psi4, default
symmetry c1  #important for SAPT in psi4, default
}

set PROPERTIES_ORIGIN ["COM"]
properties('MP2/aug-cc-pvtz', properties = ['dipole'])
--------------------------------------------------------------------------

    Molecular point group: c1
  Charge       = 0
  Multiplicity = 1
  Basis Set: AUG-CC-PVTZ
    Blend: AUG-CC-PVTZ
  Basis Set: (AUG-CC-PVTZ AUX)
    Blend: AUG-CC-PVTZ-JKFIT

    Orbital Energies [Eh]
    ---------------------

    Doubly Occupied:

       1A    -20.522321     2A    -15.634793     3A    -15.582319
       4A    -15.580425     5A    -11.359508     6A    -11.313586
       7A    -11.279947     8A    -11.276302     9A    -11.266987
      10A    -11.257073    11A     -1.380533    12A     -1.337535
      13A     -1.234528    14A     -1.175603    15A     -1.037940
      16A     -0.974651    17A     -0.948709    18A     -0.843010
      19A     -0.815401    20A     -0.768573    21A     -0.727283
      22A     -0.657549    23A     -0.655882    24A     -0.644263
      25A     -0.618279    26A     -0.601543    27A     -0.592791
      28A     -0.577863    29A     -0.557015    30A     -0.552712
      31A     -0.545595    32A     -0.526943    33A     -0.473682
      34A     -0.431327    35A     -0.397660    36A     -0.381800
      37A     -0.330629

  @DF-RHF Final Energy:  -470.81546614959893

   => Energetics <=

    Nuclear Repulsion Energy =            525.6090903878226754
    One-Electron Energy =               -1683.1239968926570327
    Two-Electron Energy =                 686.6994403552355379
    Total Energy =                       -470.8154661495989330
  Basis Set: (AUG-CC-PVTZ AUX)
    Blend: AUG-CC-PVTZ-RI
    Molecular point group: c1

    Geometry (in Angstrom), charge = 0, multiplicity = 1:

       Center              X                  Y                   Z               Mass
    ------------   -----------------  -----------------  -----------------  -----------------
         O           -1.249617702964     1.547127851525     0.000002905197    15.994914619570
         N            1.462665297036     0.513300851525    -0.000007094803    14.003074004430
         N            0.465415097036    -1.578793148475     0.000009005197    14.003074004430
         N           -1.999870702964    -0.633912148475    -0.000001094803    14.003074004430
         C            0.324551297036    -0.246258148475     0.000009905197    12.000000000000
         C            2.519941297036    -0.362134148475    -0.000010094803    12.000000000000
         C            1.569715297036     1.971114851525     0.000001905197    12.000000000000
         C           -1.039720702964     0.323148851525     0.000001905197    12.000000000000
         C            1.967657297036    -1.629169148475    -0.000000094803    12.000000000000
         C           -3.411715702964    -0.315021148475    -0.000006094803    12.000000000000
         H            3.543335297036    -0.013626148475    -0.000012094803     1.007825032230
         H            1.082854297036     2.379839851525    -0.883911094803     1.007825032230
         H            1.082899297036     2.379825851525     0.883947905197     1.007825032230
         H            2.630895297036     2.223243851525    -0.000022094803     1.007825032230
         H            2.485247297036    -2.579497148475    -0.000005094803     1.007825032230
         H           -1.674619702964    -1.595361148475    -0.000001094803     1.007825032230
         H           -3.903997702964    -0.716052148475     0.890801905197     1.007825032230
         H           -3.903991702964    -0.716055148475    -0.890816094803     1.007825032230
         H           -3.498087702964     0.771519851525    -0.000009094803     1.007825032230

  Basis Set: AUG-CC-PVTZ
    Blend: AUG-CC-PVTZ
  Basis Set: (AUG-CC-PVTZ AUX)
    Blend: AUG-CC-PVTZ-JKFIT
	 Reference Energy          =    -470.8154661495989330 [Eh]
	 Singles Energy            =      -0.0000000000000000 [Eh]
	 Same-Spin Energy          =      -0.4992503266102130 [Eh]
	 Opposite-Spin Energy      =      -1.5408916636018455 [Eh]
	 Correlation Energy        =      -2.0401419902120583 [Eh]
	 Total Energy              =    -472.8556081398110109 [Eh]

	 ================> DF-SCS-MP2 Energies <==================
	-----------------------------------------------------------
	 SCS Same-Spin Scale       =       0.3333333333333333 [-]
	 SCS Opposite-Spin Scale   =       1.2000000000000000 [-]
	 SCS Same-Spin Energy      =      -0.1664167755367376 [Eh]
	 SCS Opposite-Spin Energy  =      -1.8490699963222146 [Eh]
	 SCS Correlation Energy    =      -2.0154867718589524 [Eh]
	 SCS Total Energy          =    -472.8309529214578788 [Eh]
	-----------------------------------------------------------

  Dipole Moment: [D]
     X:     1.6017      Y:     0.1167      Z:    -0.0000     Total:     1.6060

*** Psi4 exiting successfully. Buy a developer a beer!
