                               Psi4 1.3.2 release

  ==> Input File <==

--------------------------------------------------------------------------
#psi4
#
memory 32 gb

molecule  {
0 1
  O       -1.2482290     1.5306510     0.0000030
  N        1.4640540     0.4968240    -0.0000070
  N        0.6053200    -1.5732460     0.0000100
  N       -1.9984820    -0.6503890    -0.0000010
  C        0.3259400    -0.2627350     0.0000100
  C        2.5364474    -0.3600257    -0.0000099
  C        1.5711040     1.9546380     0.0000020
  C       -1.0383320     0.3066720     0.0000020
  C        1.9690460    -1.6456460     0.0000000
  C       -3.4103270    -0.3314980    -0.0000060
  H        3.5447240    -0.0301030    -0.0000120
  H        1.0842430     2.3633630    -0.8839110
  H        1.0842880     2.3633490     0.8839480
  H        2.6322840     2.2067670    -0.0000220
  H        2.4866360    -2.5959740    -0.0000050
  H       -1.6732310    -1.6118380    -0.0000010
  H       -3.9026090    -0.7325290     0.8908020
  H       -3.9026030    -0.7325320    -0.8908160
  H       -3.4966990     0.7550430    -0.0000090
units angstrom
no_reorient  #important for SAPT in psi4, default
symmetry c1  #important for SAPT in psi4, default
}

set PROPERTIES_ORIGIN ["COM"]
properties('MP2/aug-cc-pvtz', properties = ['dipole'])
--------------------------------------------------------------------------

    Molecular point group: c1
  Charge       = 0
  Multiplicity = 1
  Basis Set: AUG-CC-PVTZ
    Blend: AUG-CC-PVTZ
  Basis Set: (AUG-CC-PVTZ AUX)
    Blend: AUG-CC-PVTZ-JKFIT

    Orbital Energies [Eh]
    ---------------------

    Doubly Occupied:

       1A    -20.522033     2A    -15.639584     3A    -15.584793
       4A    -15.566566     5A    -11.362176     6A    -11.304674
       7A    -11.274668     8A    -11.273802     9A    -11.258531
      10A    -11.258308    11A     -1.381410    12A     -1.345532
      13A     -1.234668    14A     -1.191206    15A     -1.034007
      16A     -0.979276    17A     -0.950294    18A     -0.839376
      19A     -0.817287    20A     -0.772972    21A     -0.733929
      22A     -0.663535    23A     -0.656091    24A     -0.646166
      25A     -0.619125    26A     -0.607092    27A     -0.593014
      28A     -0.584118    29A     -0.563269    30A     -0.559667
      31A     -0.545659    32A     -0.529413    33A     -0.458268
      34A     -0.433757    35A     -0.399841    36A     -0.389051
      37A     -0.320011

  @DF-RHF Final Energy:  -470.83350361650236

   => Energetics <=

    Nuclear Repulsion Energy =            526.7897221179954386
    One-Electron Energy =               -1685.4601170271223509
    Two-Electron Energy =                 687.8368912926247276
    Total Energy =                       -470.8335036165022984
  Basis Set: (AUG-CC-PVTZ AUX)
    Blend: AUG-CC-PVTZ-RI
    Molecular point group: c1

    Geometry (in Angstrom), charge = 0, multiplicity = 1:

       Center              X                  Y                   Z               Mass
    ------------   -----------------  -----------------  -----------------  -----------------
         O           -1.264868956465     1.543306683265     0.000002805950    15.994914619570
         N            1.447414043535     0.509479683265    -0.000007194050    14.003074004430
         N            0.588680043535    -1.560590316735     0.000009805950    14.003074004430
         N           -2.015121956465    -0.637733316735    -0.000001194050    14.003074004430
         C            0.309300043535    -0.250079316735     0.000009805950    12.000000000000
         C            2.519807443535    -0.347370016735    -0.000010094050    12.000000000000
         C            1.554464043535     1.967293683265     0.000001805950    12.000000000000
         C           -1.054971956465     0.319327683265     0.000001805950    12.000000000000
         C            1.952406043535    -1.632990316735    -0.000000194050    12.000000000000
         C           -3.426966956465    -0.318842316735    -0.000006194050    12.000000000000
         H            3.528084043535    -0.017447316735    -0.000012194050     1.007825032230
         H            1.067603043535     2.376018683265    -0.883911194050     1.007825032230
         H            1.067648043535     2.376004683265     0.883947805950     1.007825032230
         H            2.615644043535     2.219422683265    -0.000022194050     1.007825032230
         H            2.469996043535    -2.583318316735    -0.000005194050     1.007825032230
         H           -1.689870956465    -1.599182316735    -0.000001194050     1.007825032230
         H           -3.919248956465    -0.719873316735     0.890801805950     1.007825032230
         H           -3.919242956465    -0.719876316735    -0.890816194050     1.007825032230
         H           -3.513338956465     0.767698683265    -0.000009194050     1.007825032230

  Basis Set: AUG-CC-PVTZ
    Blend: AUG-CC-PVTZ
  Basis Set: (AUG-CC-PVTZ AUX)
    Blend: AUG-CC-PVTZ-JKFIT
	 Reference Energy          =    -470.8335036165023553 [Eh]
	 Singles Energy            =      -0.0000000000000000 [Eh]
	 Same-Spin Energy          =      -0.4996416366797733 [Eh]
	 Opposite-Spin Energy      =      -1.5376430935497918 [Eh]
	 Correlation Energy        =      -2.0372847302295654 [Eh]
	 Total Energy              =    -472.8707883467318993 [Eh]

	 ================> DF-SCS-MP2 Energies <==================
	-----------------------------------------------------------
	 SCS Same-Spin Scale       =       0.3333333333333333 [-]
	 SCS Opposite-Spin Scale   =       1.2000000000000000 [-]
	 SCS Same-Spin Energy      =      -0.1665472122265911 [Eh]
	 SCS Opposite-Spin Energy  =      -1.8451717122597500 [Eh]
	 SCS Correlation Energy    =      -2.0117189244863409 [Eh]
	 SCS Total Energy          =    -472.8452225409886864 [Eh]
	-----------------------------------------------------------

  Dipole Moment: [D]
     X:     1.3964      Y:     0.0160      Z:    -0.0000     Total:     1.3965

*** Psi4 exiting successfully. Buy a developer a beer!
