                               Psi4 1.3.2 release

  ==> Input File <==

--------------------------------------------------------------------------
#psi4
#
memory 32 gb

molecule  {
0 1
  O       -1.2482290     1.5306510     0.0000030
  N        1.4640540     0.4968240    -0.0000070
  N        0.6053200    -1.5732460     0.0000100
  N       -1.9816327    -0.6670002    -0.0000009
  C        0.3259400    -0.2627350     0.0000100
  C        2.5213300    -0.3786110    -0.0000100
  C        1.5711040     1.9546380     0.0000020
  C       -1.0383320     0.3066720     0.0000020
  C        1.9690460    -1.6456460     0.0000000
  C       -3.4103270    -0.3314980    -0.0000060
  H        3.5447240    -0.0301030    -0.0000120
  H        1.0842430     2.3633630    -0.8839110
  H        1.0842880     2.3633490     0.8839480
  H        2.6322840     2.2067670    -0.0000220
  H        2.4866360    -2.5959740    -0.0000050
  H       -1.6732310    -1.6118380    -0.0000010
  H       -3.9026090    -0.7325290     0.8908020
  H       -3.9026030    -0.7325320    -0.8908160
  H       -3.4966990     0.7550430    -0.0000090
units angstrom
no_reorient  #important for SAPT in psi4, default
symmetry c1  #important for SAPT in psi4, default
}

set PROPERTIES_ORIGIN ["COM"]
properties('MP2/aug-cc-pvtz', properties = ['dipole'])
--------------------------------------------------------------------------

    Molecular point group: c1
  Charge       = 0
  Multiplicity = 1
  Basis Set: AUG-CC-PVTZ
    Blend: AUG-CC-PVTZ
  Basis Set: (AUG-CC-PVTZ AUX)
    Blend: AUG-CC-PVTZ-JKFIT

    Orbital Energies [Eh]
    ---------------------

    Doubly Occupied:

       1A    -20.523384     2A    -15.637085     3A    -15.584147
       4A    -15.564634     5A    -11.362493     6A    -11.303766
       7A    -11.274643     8A    -11.271859     9A    -11.260193
      10A    -11.254790    11A     -1.381586    12A     -1.345843
      13A     -1.234481    14A     -1.189842    15A     -1.034691
      16A     -0.978681    17A     -0.949461    18A     -0.842479
      19A     -0.814382    20A     -0.776796    21A     -0.734323
      22A     -0.658691    23A     -0.655758    24A     -0.644356
      25A     -0.617440    26A     -0.603752    27A     -0.595213
      28A     -0.581724    29A     -0.563164    30A     -0.559988
      31A     -0.549047    32A     -0.530534    33A     -0.457394
      34A     -0.434028    35A     -0.399799    36A     -0.389708
      37A     -0.322466

  @DF-RHF Final Energy:  -470.83483226142641

   => Energetics <=

    Nuclear Repulsion Energy =            527.1016400588016495
    One-Electron Energy =               -1686.1076964326828147
    Two-Electron Energy =                 688.1712241124547518
    Total Energy =                       -470.8348322614264134
  Basis Set: (AUG-CC-PVTZ AUX)
    Blend: AUG-CC-PVTZ-RI
    Molecular point group: c1

    Geometry (in Angstrom), charge = 0, multiplicity = 1:

       Center              X                  Y                   Z               Mass
    ------------   -----------------  -----------------  -----------------  -----------------
         O           -1.265261071271     1.546582850068     0.000002804510    15.994914619570
         N            1.447021928729     0.512755850068    -0.000007195490    14.003074004430
         N            0.588287928729    -1.557314149932     0.000009804510    14.003074004430
         N           -1.998664771271    -0.651068349932    -0.000001095490    14.003074004430
         C            0.308907928729    -0.246803149932     0.000009804510    12.000000000000
         C            2.504297928729    -0.362679149932    -0.000010195490    12.000000000000
         C            1.554071928729     1.970569850068     0.000001804510    12.000000000000
         C           -1.055364071271     0.322603850068     0.000001804510    12.000000000000
         C            1.952013928729    -1.629714149932    -0.000000195490    12.000000000000
         C           -3.427359071271    -0.315566149932    -0.000006195490    12.000000000000
         H            3.527691928729    -0.014171149932    -0.000012195490     1.007825032230
         H            1.067210928729     2.379294850068    -0.883911195490     1.007825032230
         H            1.067255928729     2.379280850068     0.883947804510     1.007825032230
         H            2.615251928729     2.222698850068    -0.000022195490     1.007825032230
         H            2.469603928729    -2.580042149932    -0.000005195490     1.007825032230
         H           -1.690263071271    -1.595906149932    -0.000001195490     1.007825032230
         H           -3.919641071271    -0.716597149932     0.890801804510     1.007825032230
         H           -3.919635071271    -0.716600149932    -0.890816195490     1.007825032230
         H           -3.513731071271     0.770974850068    -0.000009195490     1.007825032230

  Basis Set: AUG-CC-PVTZ
    Blend: AUG-CC-PVTZ
  Basis Set: (AUG-CC-PVTZ AUX)
    Blend: AUG-CC-PVTZ-JKFIT
	 Reference Energy          =    -470.8348322614264134 [Eh]
	 Singles Energy            =      -0.0000000000000000 [Eh]
	 Same-Spin Energy          =      -0.4991270350542314 [Eh]
	 Opposite-Spin Energy      =      -1.5369205828612209 [Eh]
	 Correlation Energy        =      -2.0360476179154521 [Eh]
	 Total Energy              =    -472.8708798793418850 [Eh]

	 ================> DF-SCS-MP2 Energies <==================
	-----------------------------------------------------------
	 SCS Same-Spin Scale       =       0.3333333333333333 [-]
	 SCS Opposite-Spin Scale   =       1.2000000000000000 [-]
	 SCS Same-Spin Energy      =      -0.1663756783514105 [Eh]
	 SCS Opposite-Spin Energy  =      -1.8443046994334651 [Eh]
	 SCS Correlation Energy    =      -2.0106803777848756 [Eh]
	 SCS Total Energy          =    -472.8455126392112788 [Eh]
	-----------------------------------------------------------

  Dipole Moment: [D]
     X:     1.3274      Y:     0.0407      Z:    -0.0000     Total:     1.3281

*** Psi4 exiting successfully. Buy a developer a beer!
