                               Psi4 1.3.2 release

  ==> Input File <==

--------------------------------------------------------------------------
#psi4
#
memory 32 gb

molecule  {
0 1
  O       -1.2482290     1.5306510     0.0000030
  N        1.4640540     0.4968240    -0.0000070
  N        0.6053200    -1.5732460     0.0000100
  N       -1.9984820    -0.6503890    -0.0000010
  C        0.3259400    -0.2627350     0.0000100
  C        2.6753768    -0.5061633    -0.0000104
  C        1.5711040     1.9546380     0.0000020
  C       -1.0383320     0.3066720     0.0000020
  C        1.9690460    -1.6456460     0.0000000
  C       -3.4103270    -0.3314980    -0.0000060
  H        3.5447240    -0.0301030    -0.0000120
  H        1.0842430     2.3633630    -0.8839110
  H        1.0842880     2.3633490     0.8839480
  H        2.6322840     2.2067670    -0.0000220
  H        2.4866360    -2.5959740    -0.0000050
  H       -1.6732310    -1.6118380    -0.0000010
  H       -3.9026090    -0.7325290     0.8908020
  H       -3.9026030    -0.7325320    -0.8908160
  H       -3.4966990     0.7550430    -0.0000090
units angstrom
no_reorient  #important for SAPT in psi4, default
symmetry c1  #important for SAPT in psi4, default
}

set PROPERTIES_ORIGIN ["COM"]
properties('MP2/aug-cc-pvtz', properties = ['dipole'])
--------------------------------------------------------------------------

    Molecular point group: c1
  Charge       = 0
  Multiplicity = 1
  Basis Set: AUG-CC-PVTZ
    Blend: AUG-CC-PVTZ
  Basis Set: (AUG-CC-PVTZ AUX)
    Blend: AUG-CC-PVTZ-JKFIT

    Orbital Energies [Eh]
    ---------------------

    Doubly Occupied:

       1A    -20.528480     2A    -15.622897     3A    -15.590718
       4A    -15.559544     5A    -11.367578     6A    -11.319294
       7A    -11.273770     8A    -11.265588     9A    -11.265007
      10A    -11.261693    11A     -1.383563    12A     -1.319096
      13A     -1.237768    14A     -1.173355    15A     -1.041623
      16A     -0.972842    17A     -0.950517    18A     -0.846213
      19A     -0.817109    20A     -0.776117    21A     -0.726597
      22A     -0.664825    23A     -0.650668    24A     -0.643411
      25A     -0.621148    26A     -0.617721    27A     -0.589884
      28A     -0.585762    29A     -0.556519    30A     -0.549318
      31A     -0.527980    32A     -0.520230    33A     -0.460435
      34A     -0.437508    35A     -0.396393    36A     -0.378670
      37A     -0.342324

  @DF-RHF Final Energy:  -470.79661768661151

   => Energetics <=

    Nuclear Repulsion Energy =            523.4869688500120901
    One-Electron Energy =               -1678.8828446686804909
    Two-Electron Energy =                 684.5992581320568888
    Total Energy =                       -470.7966176866115120
  Basis Set: (AUG-CC-PVTZ AUX)
    Blend: AUG-CC-PVTZ-RI
    Molecular point group: c1

    Geometry (in Angstrom), charge = 0, multiplicity = 1:

       Center              X                  Y                   Z               Mass
    ------------   -----------------  -----------------  -----------------  -----------------
         O           -1.276856431219     1.555916115038     0.000002849092    15.994914619570
         N            1.435426568781     0.522089115038    -0.000007150908    14.003074004430
         N            0.576692568781    -1.547980884962     0.000009849092    14.003074004430
         N           -2.027109431219    -0.625123884962    -0.000001150908    14.003074004430
         C            0.297312568781    -0.237469884962     0.000009849092    12.000000000000
         C            2.646749368781    -0.480898184962    -0.000010550908    12.000000000000
         C            1.542476568781     1.979903115038     0.000001849092    12.000000000000
         C           -1.066959431219     0.331937115038     0.000001849092    12.000000000000
         C            1.940418568781    -1.620380884962    -0.000000150908    12.000000000000
         C           -3.438954431219    -0.306232884962    -0.000006150908    12.000000000000
         H            3.516096568781    -0.004837884962    -0.000012150908     1.007825032230
         H            1.055615568781     2.388628115038    -0.883911150908     1.007825032230
         H            1.055660568781     2.388614115038     0.883947849092     1.007825032230
         H            2.603656568781     2.232032115038    -0.000022150908     1.007825032230
         H            2.458008568781    -2.570708884962    -0.000005150908     1.007825032230
         H           -1.701858431219    -1.586572884962    -0.000001150908     1.007825032230
         H           -3.931236431219    -0.707263884962     0.890801849092     1.007825032230
         H           -3.931230431219    -0.707266884962    -0.890816150908     1.007825032230
         H           -3.525326431219     0.780308115038    -0.000009150908     1.007825032230

  Basis Set: AUG-CC-PVTZ
    Blend: AUG-CC-PVTZ
  Basis Set: (AUG-CC-PVTZ AUX)
    Blend: AUG-CC-PVTZ-JKFIT
	 Reference Energy          =    -470.7966176866115120 [Eh]
	 Singles Energy            =      -0.0000000000000000 [Eh]
	 Same-Spin Energy          =      -0.4986483519766161 [Eh]
	 Opposite-Spin Energy      =      -1.5401258662348880 [Eh]
	 Correlation Energy        =      -2.0387742182115041 [Eh]
	 Total Energy              =    -472.8353919048230409 [Eh]

	 ================> DF-SCS-MP2 Energies <==================
	-----------------------------------------------------------
	 SCS Same-Spin Scale       =       0.3333333333333333 [-]
	 SCS Opposite-Spin Scale   =       1.2000000000000000 [-]
	 SCS Same-Spin Energy      =      -0.1662161173255387 [Eh]
	 SCS Opposite-Spin Energy  =      -1.8481510394818654 [Eh]
	 SCS Correlation Energy    =      -2.0143671568074040 [Eh]
	 SCS Total Energy          =    -472.8109848434189075 [Eh]
	-----------------------------------------------------------

  Dipole Moment: [D]
     X:     1.2297      Y:    -0.1572      Z:    -0.0000     Total:     1.2398

*** Psi4 exiting successfully. Buy a developer a beer!
