                               Psi4 1.4a3.dev225

  ==> Input File <==

--------------------------------------------------------------------------
#psi4
#
memory 32 gb

molecule  {
0 1
  O       -1.2482290     1.5306510     0.0000030
  N        1.4640540     0.4968240    -0.0000070
  N        0.6053200    -1.5732460     0.0000100
  N       -1.9984820    -0.6503890    -0.0000010
  C        0.3259400    -0.2627350     0.0000100
  C        2.5213300    -0.3786110    -0.0000100
  C        1.5711040     1.9546380     0.0000020
  C       -1.0383320     0.3066720     0.0000020
  C        1.9690460    -1.6456460     0.0000000
  C       -3.4103270    -0.3314980    -0.0000060
  H        3.5920548    -0.0139849    -0.0000121
  H        1.0842430     2.3633630    -0.8839110
  H        1.0842880     2.3633490     0.8839480
  H        2.6322840     2.2067670    -0.0000220
  H        2.4866360    -2.5959740    -0.0000050
  H       -1.6732310    -1.6118380    -0.0000010
  H       -3.9026090    -0.7325290     0.8908020
  H       -3.9026030    -0.7325320    -0.8908160
  H       -3.4966990     0.7550430    -0.0000090
units angstrom
no_reorient  #important for SAPT in psi4, default
symmetry c1  #important for SAPT in psi4, default
}

set PROPERTIES_ORIGIN ["COM"]
properties('MP2/aug-cc-pvtz', properties = ['dipole'])
--------------------------------------------------------------------------

    Molecular point group: c1
  Charge       = 0
  Multiplicity = 1
  Basis Set: AUG-CC-PVTZ
    Blend: AUG-CC-PVTZ
  Basis Set: (AUG-CC-PVTZ AUX)
    Blend: AUG-CC-PVTZ-JKFIT

    Orbital Energies [Eh]
    ---------------------

    Doubly Occupied:

       1A    -20.522353     2A    -15.638216     3A    -15.584882
       4A    -15.565779     5A    -11.362276     6A    -11.305093
       7A    -11.277920     8A    -11.274827     9A    -11.258366
      10A    -11.255630    11A     -1.381793    12A     -1.346610
      13A     -1.234683    14A     -1.190829    15A     -1.034864
      16A     -0.979314    17A     -0.949950    18A     -0.840626
      19A     -0.811013    20A     -0.772416    21A     -0.734158
      22A     -0.656416    23A     -0.655052    24A     -0.644542
      25A     -0.619200    26A     -0.603634    27A     -0.593544
      28A     -0.582549    29A     -0.563389    30A     -0.560244
      31A     -0.545701    32A     -0.530071    33A     -0.457921
      34A     -0.433893    35A     -0.399350    36A     -0.388967
      37A     -0.323243

  @DF-RHF Final Energy:  -470.83266946730407

   => Energetics <=

    Nuclear Repulsion Energy =            526.8734545817765138
    One-Electron Energy =               -1685.6536157338950943
    Two-Electron Energy =                 687.9474916848145085
    Total Energy =                       -470.8326694673040720
  Basis Set: (AUG-CC-PVTZ AUX)
    Blend: AUG-CC-PVTZ-RI
    Molecular point group: c1

    Geometry (in Angstrom), charge = 0, multiplicity = 1:

       Center              X                  Y                   Z               Mass
    ------------   -----------------  -----------------  -----------------  -----------------
         O           -1.263907546750     1.544793507113     0.000002815303    15.994914619570
         N            1.448375453250     0.510966507113    -0.000007184697    14.003074004430
         N            0.589641453250    -1.559103492887     0.000009815303    14.003074004430
         N           -2.014160546750    -0.636246492887    -0.000001184697    14.003074004430
         C            0.310261453250    -0.248592492887     0.000009815303    12.000000000000
         C            2.505651453250    -0.364468492887    -0.000010184697    12.000000000000
         C            1.555425453250     1.968780507113     0.000001815303    12.000000000000
         C           -1.054010546750     0.320814507113     0.000001815303    12.000000000000
         C            1.953367453250    -1.631503492887    -0.000000184697    12.000000000000
         C           -3.426005546750    -0.317355492887    -0.000006184697    12.000000000000
         H            3.576376253250     0.000157607113    -0.000012284697     1.007825032230
         H            1.068564453250     2.377505507113    -0.883911184697     1.007825032230
         H            1.068609453250     2.377491507113     0.883947815303     1.007825032230
         H            2.616605453250     2.220909507113    -0.000022184697     1.007825032230
         H            2.470957453250    -2.581831492887    -0.000005184697     1.007825032230
         H           -1.688909546750    -1.597695492887    -0.000001184697     1.007825032230
         H           -3.918287546750    -0.718386492887     0.890801815303     1.007825032230
         H           -3.918281546750    -0.718389492887    -0.890816184697     1.007825032230
         H           -3.512377546750     0.769185507113    -0.000009184697     1.007825032230

  Basis Set: AUG-CC-PVTZ
    Blend: AUG-CC-PVTZ
  Basis Set: (AUG-CC-PVTZ AUX)
    Blend: AUG-CC-PVTZ-JKFIT
	 Reference Energy          =    -470.8326694673040720 [Eh]
	 Singles Energy            =      -0.0000000000000000 [Eh]
	 Same-Spin Energy          =      -0.4994646649246223 [Eh]
	 Opposite-Spin Energy      =      -1.5375199760587890 [Eh]
	 Correlation Energy        =      -2.0369846409834111 [Eh]
	 Total Energy              =    -472.8696541082874774 [Eh]

	 ================> DF-SCS-MP2 Energies <==================
	-----------------------------------------------------------
	 SCS Same-Spin Scale       =       0.3333333333333333 [-]
	 SCS Opposite-Spin Scale   =       1.2000000000000000 [-]
	 SCS Same-Spin Energy      =      -0.1664882216415408 [Eh]
	 SCS Opposite-Spin Energy  =      -1.8450239712705467 [Eh]
	 SCS Correlation Energy    =      -2.0115121929120874 [Eh]
	 SCS Total Energy          =    -472.8441816602161794 [Eh]
	-----------------------------------------------------------

  Dipole Moment: [D]
     X:     1.3946      Y:     0.0140      Z:    -0.0000     Total:     1.3947

*** Psi4 exiting successfully. Buy a developer a beer!
