                               Psi4 1.3.2 release

  ==> Input File <==

--------------------------------------------------------------------------
#psi4
#
memory 32 gb

molecule  {
0 1
  O       -1.2482290     1.5306510     0.0000030
  N        1.4640540     0.4968240    -0.0000070
  N        0.6053200    -1.5732460     0.0000100
  N       -1.9984820    -0.6503890    -0.0000010
  C        0.3259400    -0.2627350     0.0000100
  C        2.5213300    -0.3786110    -0.0000100
  C        1.5711040     1.9546380     0.0000020
  C       -0.9460474     0.2681551     0.0000025
  C        1.9690460    -1.6456460     0.0000000
  C       -3.4103270    -0.3314980    -0.0000060
  H        3.5447240    -0.0301030    -0.0000120
  H        1.0842430     2.3633630    -0.8839110
  H        1.0842880     2.3633490     0.8839480
  H        2.6322840     2.2067670    -0.0000220
  H        2.4866360    -2.5959740    -0.0000050
  H       -1.6732310    -1.6118380    -0.0000010
  H       -3.9026090    -0.7325290     0.8908020
  H       -3.9026030    -0.7325320    -0.8908160
  H       -3.4966990     0.7550430    -0.0000090
units angstrom
no_reorient  #important for SAPT in psi4, default
symmetry c1  #important for SAPT in psi4, default
}

set PROPERTIES_ORIGIN ["COM"]
properties('MP2/aug-cc-pvtz', properties = ['dipole'])
--------------------------------------------------------------------------

    Molecular point group: c1
  Charge       = 0
  Multiplicity = 1
  Basis Set: AUG-CC-PVTZ
    Blend: AUG-CC-PVTZ
  Basis Set: (AUG-CC-PVTZ AUX)
    Blend: AUG-CC-PVTZ-JKFIT

    Orbital Energies [Eh]
    ---------------------

    Doubly Occupied:

       1A    -20.514170     2A    -15.646807     3A    -15.579111
       4A    -15.576155     5A    -11.360619     6A    -11.303840
       7A    -11.283374     8A    -11.277814     9A    -11.263654
      10A    -11.254059    11A     -1.372227    12A     -1.329677
      13A     -1.218391    14A     -1.192411    15A     -1.055294
      16A     -0.986173    17A     -0.947152    18A     -0.862619
      19A     -0.823589    20A     -0.758223    21A     -0.736393
      22A     -0.662086    23A     -0.661982    24A     -0.637529
      25A     -0.609761    26A     -0.609554    27A     -0.599030
      28A     -0.582040    29A     -0.566798    30A     -0.564663
      31A     -0.533791    32A     -0.513679    33A     -0.463862
      34A     -0.429124    35A     -0.402450    36A     -0.378485
      37A     -0.330130

  @DF-RHF Final Energy:  -470.81325871440089

   => Energetics <=

    Nuclear Repulsion Energy =            527.4955026308020933
    One-Electron Energy =               -1686.8440922376885283
    Two-Electron Energy =                 688.5353308924854900
    Total Energy =                       -470.8132587144009449
  Basis Set: (AUG-CC-PVTZ AUX)
    Blend: AUG-CC-PVTZ-RI
    Molecular point group: c1

    Geometry (in Angstrom), charge = 0, multiplicity = 1:

       Center              X                  Y                   Z               Mass
    ------------   -----------------  -----------------  -----------------  -----------------
         O           -1.271527301364     1.548233726647     0.000002771436    15.994914619570
         N            1.440755698636     0.514406726647    -0.000007228564    14.003074004430
         N            0.582021698636    -1.555663273353     0.000009771436    14.003074004430
         N           -2.021780301364    -0.632806273353    -0.000001228564    14.003074004430
         C            0.302641698636    -0.245152273353     0.000009771436    12.000000000000
         C            2.498031698636    -0.361028273353    -0.000010228564    12.000000000000
         C            1.547805698636     1.972220726647     0.000001771436    12.000000000000
         C           -0.969345701364     0.285737826647     0.000002271436    12.000000000000
         C            1.945747698636    -1.628063273353    -0.000000228564    12.000000000000
         C           -3.433625301364    -0.313915273353    -0.000006228564    12.000000000000
         H            3.521425698636    -0.012520273353    -0.000012228564     1.007825032230
         H            1.060944698636     2.380945726647    -0.883911228564     1.007825032230
         H            1.060989698636     2.380931726647     0.883947771436     1.007825032230
         H            2.608985698636     2.224349726647    -0.000022228564     1.007825032230
         H            2.463337698636    -2.578391273353    -0.000005228564     1.007825032230
         H           -1.696529301364    -1.594255273353    -0.000001228564     1.007825032230
         H           -3.925907301364    -0.714946273353     0.890801771436     1.007825032230
         H           -3.925901301364    -0.714949273353    -0.890816228564     1.007825032230
         H           -3.519997301364     0.772625726647    -0.000009228564     1.007825032230

  Basis Set: AUG-CC-PVTZ
    Blend: AUG-CC-PVTZ
  Basis Set: (AUG-CC-PVTZ AUX)
    Blend: AUG-CC-PVTZ-JKFIT
	 Reference Energy          =    -470.8132587144008880 [Eh]
	 Singles Energy            =      -0.0000000000000000 [Eh]
	 Same-Spin Energy          =      -0.5024011783921252 [Eh]
	 Opposite-Spin Energy      =      -1.5425663207795914 [Eh]
	 Correlation Energy        =      -2.0449674991717166 [Eh]
	 Total Energy              =    -472.8582262135726069 [Eh]

	 ================> DF-SCS-MP2 Energies <==================
	-----------------------------------------------------------
	 SCS Same-Spin Scale       =       0.3333333333333333 [-]
	 SCS Opposite-Spin Scale   =       1.2000000000000000 [-]
	 SCS Same-Spin Energy      =      -0.1674670594640417 [Eh]
	 SCS Opposite-Spin Energy  =      -1.8510795849355097 [Eh]
	 SCS Correlation Energy    =      -2.0185466443995512 [Eh]
	 SCS Total Energy          =    -472.8318053588004659 [Eh]
	-----------------------------------------------------------

  Dipole Moment: [D]
     X:     2.1349      Y:    -0.1882      Z:    -0.0000     Total:     2.1431

*** Psi4 exiting successfully. Buy a developer a beer!
