                               Psi4 1.3.2 release

  ==> Input File <==

--------------------------------------------------------------------------
#psi4
#
memory 32 gb

molecule  {
0 1
  O       -1.2482290     1.5306510     0.0000030
  N        1.4640540     0.4968240    -0.0000070
  N        0.6136923    -1.4782936     0.0000101
  N       -1.9984820    -0.6503890    -0.0000010
  C        0.3259400    -0.2627350     0.0000100
  C        2.5213300    -0.3786110    -0.0000100
  C        1.5711040     1.9546380     0.0000020
  C       -1.0383320     0.3066720     0.0000020
  C        1.9690460    -1.6456460     0.0000000
  C       -3.4103270    -0.3314980    -0.0000060
  H        3.5447240    -0.0301030    -0.0000120
  H        1.0842430     2.3633630    -0.8839110
  H        1.0842880     2.3633490     0.8839480
  H        2.6322840     2.2067670    -0.0000220
  H        2.4866360    -2.5959740    -0.0000050
  H       -1.6732310    -1.6118380    -0.0000010
  H       -3.9026090    -0.7325290     0.8908020
  H       -3.9026030    -0.7325320    -0.8908160
  H       -3.4966990     0.7550430    -0.0000090
units angstrom
no_reorient  #important for SAPT in psi4, default
symmetry c1  #important for SAPT in psi4, default
}

set PROPERTIES_ORIGIN ["COM"]
properties('MP2/aug-cc-pvtz', properties = ['dipole'])
--------------------------------------------------------------------------

    Molecular point group: c1
  Charge       = 0
  Multiplicity = 1
  Basis Set: AUG-CC-PVTZ
    Blend: AUG-CC-PVTZ
  Basis Set: (AUG-CC-PVTZ AUX)
    Blend: AUG-CC-PVTZ-JKFIT

    Orbital Energies [Eh]
    ---------------------

    Doubly Occupied:

       1A    -20.522393     2A    -15.625498     3A    -15.585164
       4A    -15.551740     5A    -11.361128     6A    -11.293112
       7A    -11.273469     8A    -11.269828     9A    -11.258564
      10A    -11.252838    11A     -1.385384    12A     -1.355564
      13A     -1.235490    14A     -1.197005    15A     -1.041771
      16A     -0.972669    17A     -0.950960    18A     -0.840917
      19A     -0.822302    20A     -0.772313    21A     -0.732470
      22A     -0.663776    23A     -0.657636    24A     -0.646046
      25A     -0.618813    26A     -0.612187    27A     -0.592796
      28A     -0.583668    29A     -0.563825    30A     -0.563022
      31A     -0.545826    32A     -0.530350    33A     -0.456330
      34A     -0.424848    35A     -0.400596    36A     -0.388629
      37A     -0.327914

  @DF-RHF Final Energy:  -470.83332700022072

   => Energetics <=

    Nuclear Repulsion Energy =            529.8001383741174095
    One-Electron Energy =               -1691.5132474989359253
    Two-Electron Energy =                 690.8797821245976820
    Total Energy =                       -470.8333270002207200
  Basis Set: (AUG-CC-PVTZ AUX)
    Blend: AUG-CC-PVTZ-RI
    Molecular point group: c1

    Geometry (in Angstrom), charge = 0, multiplicity = 1:

       Center              X                  Y                   Z               Mass
    ------------   -----------------  -----------------  -----------------  -----------------
         O           -1.264407543086     1.535349786843     0.000002804510    15.994914619570
         N            1.447875456914     0.501522786843    -0.000007195490    14.003074004430
         N            0.597513756914    -1.473594813157     0.000009904510    14.003074004430
         N           -2.014660543086    -0.645690213157    -0.000001195490    14.003074004430
         C            0.309761456914    -0.258036213157     0.000009804510    12.000000000000
         C            2.505151456914    -0.373912213157    -0.000010195490    12.000000000000
         C            1.554925456914     1.959336786843     0.000001804510    12.000000000000
         C           -1.054510543086     0.311370786843     0.000001804510    12.000000000000
         C            1.952867456914    -1.640947213157    -0.000000195490    12.000000000000
         C           -3.426505543086    -0.326799213157    -0.000006195490    12.000000000000
         H            3.528545456914    -0.025404213157    -0.000012195490     1.007825032230
         H            1.068064456914     2.368061786843    -0.883911195490     1.007825032230
         H            1.068109456914     2.368047786843     0.883947804510     1.007825032230
         H            2.616105456914     2.211465786843    -0.000022195490     1.007825032230
         H            2.470457456914    -2.591275213157    -0.000005195490     1.007825032230
         H           -1.689409543086    -1.607139213157    -0.000001195490     1.007825032230
         H           -3.918787543086    -0.727830213157     0.890801804510     1.007825032230
         H           -3.918781543086    -0.727833213157    -0.890816195490     1.007825032230
         H           -3.512877543086     0.759741786843    -0.000009195490     1.007825032230

  Basis Set: AUG-CC-PVTZ
    Blend: AUG-CC-PVTZ
  Basis Set: (AUG-CC-PVTZ AUX)
    Blend: AUG-CC-PVTZ-JKFIT
	 Reference Energy          =    -470.8333270002207200 [Eh]
	 Singles Energy            =      -0.0000000000000000 [Eh]
	 Same-Spin Energy          =      -0.4973999390126325 [Eh]
	 Opposite-Spin Energy      =      -1.5329997984069976 [Eh]
	 Correlation Energy        =      -2.0303997374196303 [Eh]
	 Total Energy              =    -472.8637267376403770 [Eh]

	 ================> DF-SCS-MP2 Energies <==================
	-----------------------------------------------------------
	 SCS Same-Spin Scale       =       0.3333333333333333 [-]
	 SCS Opposite-Spin Scale   =       1.2000000000000000 [-]
	 SCS Same-Spin Energy      =      -0.1657999796708775 [Eh]
	 SCS Opposite-Spin Energy  =      -1.8395997580883972 [Eh]
	 SCS Correlation Energy    =      -2.0053997377592747 [Eh]
	 SCS Total Energy          =    -472.8387267379799823 [Eh]
	-----------------------------------------------------------

  Dipole Moment: [D]
     X:     1.2493      Y:    -0.2518      Z:    -0.0000     Total:     1.2744

*** Psi4 exiting successfully. Buy a developer a beer!
