                               Psi4 1.3.2 release

  ==> Input File <==

--------------------------------------------------------------------------
#psi4
#
memory 32 gb

molecule  {
0 1
  O       -1.3750198     1.5020057     0.0000021
  N        1.4640540     0.4968240    -0.0000070
  N        0.6053200    -1.5732460     0.0000100
  N       -1.9984820    -0.6503890    -0.0000010
  C        0.3259400    -0.2627350     0.0000100
  C        2.5213300    -0.3786110    -0.0000100
  C        1.5711040     1.9546380     0.0000020
  C       -1.0383320     0.3066720     0.0000020
  C        1.9690460    -1.6456460     0.0000000
  C       -3.4103270    -0.3314980    -0.0000060
  H        3.5447240    -0.0301030    -0.0000120
  H        1.0842430     2.3633630    -0.8839110
  H        1.0842880     2.3633490     0.8839480
  H        2.6322840     2.2067670    -0.0000220
  H        2.4866360    -2.5959740    -0.0000050
  H       -1.6732310    -1.6118380    -0.0000010
  H       -3.9026090    -0.7325290     0.8908020
  H       -3.9026030    -0.7325320    -0.8908160
  H       -3.4966990     0.7550430    -0.0000090
units angstrom
no_reorient  #important for SAPT in psi4, default
symmetry c1  #important for SAPT in psi4, default
}

set PROPERTIES_ORIGIN ["COM"]
properties('MP2/aug-cc-pvtz', properties = ['dipole'])
--------------------------------------------------------------------------

    Molecular point group: c1
  Charge       = 0
  Multiplicity = 1
  Basis Set: AUG-CC-PVTZ
    Blend: AUG-CC-PVTZ
  Basis Set: (AUG-CC-PVTZ AUX)
    Blend: AUG-CC-PVTZ-JKFIT

    Orbital Energies [Eh]
    ---------------------

    Doubly Occupied:

       1A    -20.519004     2A    -15.641600     3A    -15.577918
       4A    -15.569517     5A    -11.360642     6A    -11.310188
       7A    -11.279286     8A    -11.275936     9A    -11.258609
      10A    -11.252516    11A     -1.381411    12A     -1.350511
      13A     -1.226635    14A     -1.193249    15A     -1.039458
      16A     -0.982351    17A     -0.948483    18A     -0.842827
      19A     -0.817163    20A     -0.768626    21A     -0.737240
      22A     -0.661101    23A     -0.659033    24A     -0.643411
      25A     -0.616302    26A     -0.607282    27A     -0.598732
      28A     -0.582385    29A     -0.567903    30A     -0.562684
      31A     -0.538308    32A     -0.528034    33A     -0.460518
      34A     -0.433110    35A     -0.400939    36A     -0.384493
      37A     -0.326356

  @DF-RHF Final Energy:  -470.83182284119295

   => Energetics <=

    Nuclear Repulsion Energy =            526.5091607073245541
    One-Electron Energy =               -1684.8744444447181650
    Two-Electron Energy =                 687.5334608962006087
    Total Energy =                       -470.8318228411930022
  Basis Set: (AUG-CC-PVTZ AUX)
    Blend: AUG-CC-PVTZ-RI
    Molecular point group: c1

    Geometry (in Angstrom), charge = 0, multiplicity = 1:

       Center              X                  Y                   Z               Mass
    ------------   -----------------  -----------------  -----------------  -----------------
         O           -1.375773193243     1.519559494884     0.000002018087    15.994914619570
         N            1.463300606757     0.514377794884    -0.000007081913    14.003074004430
         N            0.604566606757    -1.555692205116     0.000009918087    14.003074004430
         N           -1.999235393243    -0.632835205116    -0.000001081913    14.003074004430
         C            0.325186606757    -0.245181205116     0.000009918087    12.000000000000
         C            2.520576606757    -0.361057205116    -0.000010081913    12.000000000000
         C            1.570350606757     1.972191794884     0.000001918087    12.000000000000
         C           -1.039085393243     0.324225794884     0.000001918087    12.000000000000
         C            1.968292606757    -1.628092205116    -0.000000081913    12.000000000000
         C           -3.411080393243    -0.313944205116    -0.000006081913    12.000000000000
         H            3.543970606757    -0.012549205116    -0.000012081913     1.007825032230
         H            1.083489606757     2.380916794884    -0.883911081913     1.007825032230
         H            1.083534606757     2.380902794884     0.883947918087     1.007825032230
         H            2.631530606757     2.224320794884    -0.000022081913     1.007825032230
         H            2.485882606757    -2.578420205116    -0.000005081913     1.007825032230
         H           -1.673984393243    -1.594284205116    -0.000001081913     1.007825032230
         H           -3.903362393243    -0.714975205116     0.890801918087     1.007825032230
         H           -3.903356393243    -0.714978205116    -0.890816081913     1.007825032230
         H           -3.497452393243     0.772596794884    -0.000009081913     1.007825032230

  Basis Set: AUG-CC-PVTZ
    Blend: AUG-CC-PVTZ
  Basis Set: (AUG-CC-PVTZ AUX)
    Blend: AUG-CC-PVTZ-JKFIT
	 Reference Energy          =    -470.8318228411929454 [Eh]
	 Singles Energy            =      -0.0000000000000000 [Eh]
	 Same-Spin Energy          =      -0.4995791982966820 [Eh]
	 Opposite-Spin Energy      =      -1.5373848200671101 [Eh]
	 Correlation Energy        =      -2.0369640183637920 [Eh]
	 Total Energy              =    -472.8687868595567352 [Eh]

	 ================> DF-SCS-MP2 Energies <==================
	-----------------------------------------------------------
	 SCS Same-Spin Scale       =       0.3333333333333333 [-]
	 SCS Opposite-Spin Scale   =       1.2000000000000000 [-]
	 SCS Same-Spin Energy      =      -0.1665263994322273 [Eh]
	 SCS Opposite-Spin Energy  =      -1.8448617840805319 [Eh]
	 SCS Correlation Energy    =      -2.0113881835127594 [Eh]
	 SCS Total Energy          =    -472.8432110247056812 [Eh]
	-----------------------------------------------------------

  Dipole Moment: [D]
     X:     1.8862      Y:     0.0654      Z:    -0.0000     Total:     1.8874

*** Psi4 exiting successfully. Buy a developer a beer!
