                               Psi4 1.3.2 release

  ==> Input File <==

--------------------------------------------------------------------------
#psi4
#
memory 32 gb

molecule  {
0 1
  O       -1.2482290     1.5306510     0.0000030
  N        1.4640540     0.4968240    -0.0000070
  N        0.6053200    -1.5732460     0.0000100
  N       -1.9984820    -0.6503890    -0.0000010
  C        0.3259400    -0.2627350     0.0000100
  C        2.4443066    -0.3148349    -0.0000098
  C        1.5711040     1.9546380     0.0000020
  C       -1.0383320     0.3066720     0.0000020
  C        1.9690460    -1.6456460     0.0000000
  C       -3.4103270    -0.3314980    -0.0000060
  H        3.5447240    -0.0301030    -0.0000120
  H        1.0842430     2.3633630    -0.8839110
  H        1.0842880     2.3633490     0.8839480
  H        2.6322840     2.2067670    -0.0000220
  H        2.4866360    -2.5959740    -0.0000050
  H       -1.6732310    -1.6118380    -0.0000010
  H       -3.9026090    -0.7325290     0.8908020
  H       -3.9026030    -0.7325320    -0.8908160
  H       -3.4966990     0.7550430    -0.0000090
units angstrom
no_reorient  #important for SAPT in psi4, default
symmetry c1  #important for SAPT in psi4, default
}

set PROPERTIES_ORIGIN ["COM"]
properties('MP2/aug-cc-pvtz', properties = ['dipole'])
--------------------------------------------------------------------------

    Molecular point group: c1
  Charge       = 0
  Multiplicity = 1
  Basis Set: AUG-CC-PVTZ
    Blend: AUG-CC-PVTZ
  Basis Set: (AUG-CC-PVTZ AUX)
    Blend: AUG-CC-PVTZ-JKFIT

    Orbital Energies [Eh]
    ---------------------

    Doubly Occupied:

       1A    -20.517839     2A    -15.643652     3A    -15.580799
       4A    -15.569362     5A    -11.358316     6A    -11.295385
       7A    -11.280217     8A    -11.275921     9A    -11.255960
      10A    -11.252725    11A     -1.388916    12A     -1.361597
      13A     -1.233105    14A     -1.200257    15A     -1.035179
      16A     -0.987504    17A     -0.947197    18A     -0.841211
      19A     -0.816153    20A     -0.770021    21A     -0.741514
      22A     -0.668215    23A     -0.664173    24A     -0.641263
      25A     -0.618029    26A     -0.609372    27A     -0.588757
      28A     -0.573171    29A     -0.572793    30A     -0.563798
      31A     -0.542940    32A     -0.530755    33A     -0.455451
      34A     -0.430781    35A     -0.409332    36A     -0.388233
      37A     -0.311766

  @DF-RHF Final Energy:  -470.82364624128979

   => Energetics <=

    Nuclear Repulsion Energy =            529.1536780187078648
    One-Electron Energy =               -1690.1113303386989628
    Two-Electron Energy =                 690.1340060787014181
    Total Energy =                       -470.8236462412897936
  Basis Set: (AUG-CC-PVTZ AUX)
    Blend: AUG-CC-PVTZ-RI
    Molecular point group: c1

    Geometry (in Angstrom), charge = 0, multiplicity = 1:

       Center              X                  Y                   Z               Mass
    ------------   -----------------  -----------------  -----------------  -----------------
         O           -1.256918619720     1.539407410871     0.000002797321    15.994914619570
         N            1.455364380280     0.505580410871    -0.000007202679    14.003074004430
         N            0.596630380280    -1.564489589129     0.000009797321    14.003074004430
         N           -2.007171619720    -0.641632589129    -0.000001202679    14.003074004430
         C            0.317250380280    -0.253978589129     0.000009797321    12.000000000000
         C            2.435616980280    -0.306078489129    -0.000010002679    12.000000000000
         C            1.562414380280     1.963394410871     0.000001797321    12.000000000000
         C           -1.047021619720     0.315428410871     0.000001797321    12.000000000000
         C            1.960356380280    -1.636889589129    -0.000000202679    12.000000000000
         C           -3.419016619720    -0.322741589129    -0.000006202679    12.000000000000
         H            3.536034380280    -0.021346589129    -0.000012202679     1.007825032230
         H            1.075553380280     2.372119410871    -0.883911202679     1.007825032230
         H            1.075598380280     2.372105410871     0.883947797321     1.007825032230
         H            2.623594380280     2.215523410871    -0.000022202679     1.007825032230
         H            2.477946380280    -2.587217589129    -0.000005202679     1.007825032230
         H           -1.681920619720    -1.603081589129    -0.000001202679     1.007825032230
         H           -3.911298619720    -0.723772589129     0.890801797321     1.007825032230
         H           -3.911292619720    -0.723775589129    -0.890816202679     1.007825032230
         H           -3.505388619720     0.763799410871    -0.000009202679     1.007825032230

  Basis Set: AUG-CC-PVTZ
    Blend: AUG-CC-PVTZ
  Basis Set: (AUG-CC-PVTZ AUX)
    Blend: AUG-CC-PVTZ-JKFIT
	 Reference Energy          =    -470.8236462412897936 [Eh]
	 Singles Energy            =      -0.0000000000000000 [Eh]
	 Same-Spin Energy          =      -0.4998879345240044 [Eh]
	 Opposite-Spin Energy      =      -1.5362523799804999 [Eh]
	 Correlation Energy        =      -2.0361403145045043 [Eh]
	 Total Energy              =    -472.8597865557943010 [Eh]

	 ================> DF-SCS-MP2 Energies <==================
	-----------------------------------------------------------
	 SCS Same-Spin Scale       =       0.3333333333333333 [-]
	 SCS Opposite-Spin Scale   =       1.2000000000000000 [-]
	 SCS Same-Spin Energy      =      -0.1666293115080014 [Eh]
	 SCS Opposite-Spin Energy  =      -1.8435028559765998 [Eh]
	 SCS Correlation Energy    =      -2.0101321674846013 [Eh]
	 SCS Total Energy          =    -472.8337784087743785 [Eh]
	-----------------------------------------------------------

  Dipole Moment: [D]
     X:     1.5152      Y:     0.1294      Z:    -0.0000     Total:     1.5207

*** Psi4 exiting successfully. Buy a developer a beer!
