                               Psi4 1.3.2 release

  ==> Input File <==

--------------------------------------------------------------------------
#psi4
#
memory 32 gb

molecule  {
0 1
  O       -1.2482290     1.5306510     0.0000030
  N        1.4640540     0.4968240    -0.0000070
  N        0.6053200    -1.5732460     0.0000100
  N       -1.9984820    -0.6503890    -0.0000010
  C        0.3259400    -0.2627350     0.0000100
  C        2.5213300    -0.3786110    -0.0000100
  C        1.5637805     1.8549065     0.0000014
  C       -1.0383320     0.3066720     0.0000020
  C        1.9690460    -1.6456460     0.0000000
  C       -3.4103270    -0.3314980    -0.0000060
  H        3.5447240    -0.0301030    -0.0000120
  H        1.0842430     2.3633630    -0.8839110
  H        1.0842880     2.3633490     0.8839480
  H        2.6322840     2.2067670    -0.0000220
  H        2.4866360    -2.5959740    -0.0000050
  H       -1.6732310    -1.6118380    -0.0000010
  H       -3.9026090    -0.7325290     0.8908020
  H       -3.9026030    -0.7325320    -0.8908160
  H       -3.4966990     0.7550430    -0.0000090
units angstrom
no_reorient  #important for SAPT in psi4, default
symmetry c1  #important for SAPT in psi4, default
}

set PROPERTIES_ORIGIN ["COM"]
properties('MP2/aug-cc-pvtz', properties = ['dipole'])
--------------------------------------------------------------------------

    Molecular point group: c1
  Charge       = 0
  Multiplicity = 1
  Basis Set: AUG-CC-PVTZ
    Blend: AUG-CC-PVTZ
  Basis Set: (AUG-CC-PVTZ AUX)
    Blend: AUG-CC-PVTZ-JKFIT

    Orbital Energies [Eh]
    ---------------------

    Doubly Occupied:

       1A    -20.523286     2A    -15.640094     3A    -15.585881
       4A    -15.569191     5A    -11.363621     6A    -11.308762
       7A    -11.275689     8A    -11.273383     9A    -11.259035
      10A    -11.258637    11A     -1.386076    12A     -1.356523
      13A     -1.237643    14A     -1.205876    15A     -1.040566
      16A     -0.980548    17A     -0.950957    18A     -0.843202
      19A     -0.820434    20A     -0.775698    21A     -0.743341
      22A     -0.666089    23A     -0.662479    24A     -0.647437
      25A     -0.619951    26A     -0.612482    27A     -0.604577
      28A     -0.584660    29A     -0.548753    30A     -0.546555
      31A     -0.545001    32A     -0.526796    33A     -0.460984
      34A     -0.432982    35A     -0.396433    36A     -0.389051
      37A     -0.326242

  @DF-RHF Final Energy:  -470.82442644038696

   => Energetics <=

    Nuclear Repulsion Energy =            529.1820619663503749
    One-Electron Energy =               -1690.0751479515697611
    Two-Electron Energy =                 690.0686595448323715
    Total Energy =                       -470.8244264403870147
  Basis Set: (AUG-CC-PVTZ AUX)
    Blend: AUG-CC-PVTZ-RI
    Molecular point group: c1

    Geometry (in Angstrom), charge = 0, multiplicity = 1:

       Center              X                  Y                   Z               Mass
    ------------   -----------------  -----------------  -----------------  -----------------
         O           -1.262932651247     1.553515607027     0.000002866349    15.994914619570
         N            1.449350348753     0.519688607027    -0.000007133651    14.003074004430
         N            0.590616348753    -1.550381392973     0.000009866349    14.003074004430
         N           -2.013185651247    -0.627524392973    -0.000001133651    14.003074004430
         C            0.311236348753    -0.239870392973     0.000009866349    12.000000000000
         C            2.506626348753    -0.355746392973    -0.000010133651    12.000000000000
         C            1.549076848753     1.877771107027     0.000001266349    12.000000000000
         C           -1.053035651247     0.329536607027     0.000001866349    12.000000000000
         C            1.954342348753    -1.622781392973    -0.000000133651    12.000000000000
         C           -3.425030651247    -0.308633392973    -0.000006133651    12.000000000000
         H            3.530020348753    -0.007238392973    -0.000012133651     1.007825032230
         H            1.069539348753     2.386227607027    -0.883911133651     1.007825032230
         H            1.069584348753     2.386213607027     0.883947866349     1.007825032230
         H            2.617580348753     2.229631607027    -0.000022133651     1.007825032230
         H            2.471932348753    -2.573109392973    -0.000005133651     1.007825032230
         H           -1.687934651247    -1.588973392973    -0.000001133651     1.007825032230
         H           -3.917312651247    -0.709664392973     0.890801866349     1.007825032230
         H           -3.917306651247    -0.709667392973    -0.890816133651     1.007825032230
         H           -3.511402651247     0.777907607027    -0.000009133651     1.007825032230

  Basis Set: AUG-CC-PVTZ
    Blend: AUG-CC-PVTZ
  Basis Set: (AUG-CC-PVTZ AUX)
    Blend: AUG-CC-PVTZ-JKFIT
	 Reference Energy          =    -470.8244264403869579 [Eh]
	 Singles Energy            =      -0.0000000000000000 [Eh]
	 Same-Spin Energy          =      -0.5002890381409706 [Eh]
	 Opposite-Spin Energy      =      -1.5379314332371565 [Eh]
	 Correlation Energy        =      -2.0382204713781271 [Eh]
	 Total Energy              =    -472.8626469117650686 [Eh]

	 ================> DF-SCS-MP2 Energies <==================
	-----------------------------------------------------------
	 SCS Same-Spin Scale       =       0.3333333333333333 [-]
	 SCS Opposite-Spin Scale   =       1.2000000000000000 [-]
	 SCS Same-Spin Energy      =      -0.1667630127136568 [Eh]
	 SCS Opposite-Spin Energy  =      -1.8455177198845878 [Eh]
	 SCS Correlation Energy    =      -2.0122807325982448 [Eh]
	 SCS Total Energy          =    -472.8367071729852000 [Eh]
	-----------------------------------------------------------

  Dipole Moment: [D]
     X:     1.3444      Y:    -0.2427      Z:    -0.0000     Total:     1.3662

*** Psi4 exiting successfully. Buy a developer a beer!
