                               Psi4 1.4a3.dev225

  ==> Input File <==

--------------------------------------------------------------------------
#psi4
#
memory 32 gb

molecule  {
0 1
  O       -1.2482290     1.5306510     0.0000030
  N        1.4640540     0.4968240    -0.0000070
  N        0.6053200    -1.5732460     0.0000100
  N       -1.9984820    -0.6503890    -0.0000010
  C        0.3259400    -0.2627350     0.0000100
  C        2.4828183    -0.3467229    -0.0000099
  C        1.5711040     1.9546380     0.0000020
  C       -1.0383320     0.3066720     0.0000020
  C        1.9690460    -1.6456460     0.0000000
  C       -3.4103270    -0.3314980    -0.0000060
  H        3.5447240    -0.0301030    -0.0000120
  H        1.0842430     2.3633630    -0.8839110
  H        1.0842880     2.3633490     0.8839480
  H        2.6322840     2.2067670    -0.0000220
  H        2.4866360    -2.5959740    -0.0000050
  H       -1.6732310    -1.6118380    -0.0000010
  H       -3.9026090    -0.7325290     0.8908020
  H       -3.9026030    -0.7325320    -0.8908160
  H       -3.4966990     0.7550430    -0.0000090
units angstrom
no_reorient  #important for SAPT in psi4, default
symmetry c1  #important for SAPT in psi4, default
}

set PROPERTIES_ORIGIN ["COM"]
properties('MP2/aug-cc-pvtz', properties = ['dipole'])
--------------------------------------------------------------------------

    Molecular point group: c1
  Charge       = 0
  Multiplicity = 1
  Basis Set: AUG-CC-PVTZ
    Blend: AUG-CC-PVTZ
  Basis Set: (AUG-CC-PVTZ AUX)
    Blend: AUG-CC-PVTZ-JKFIT

    Orbital Energies [Eh]
    ---------------------

    Doubly Occupied:

       1A    -20.520172     2A    -15.640883     3A    -15.582885
       4A    -15.567348     5A    -11.360329     6A    -11.300284
       7A    -11.277480     8A    -11.273993     9A    -11.257188
      10A    -11.253903    11A     -1.383216    12A     -1.354978
      13A     -1.233773    14A     -1.195544    15A     -1.035192
      16A     -0.983295    17A     -0.948950    18A     -0.840443
      19A     -0.815573    20A     -0.771555    21A     -0.738006
      22A     -0.661645    23A     -0.661380    24A     -0.643393
      25A     -0.618716    26A     -0.606882    27A     -0.590552
      28A     -0.580584    29A     -0.569553    30A     -0.561751
      31A     -0.544411    32A     -0.530399    33A     -0.456879
      34A     -0.432391    35A     -0.403662    36A     -0.388926
      37A     -0.317507

  @DF-RHF Final Energy:  -470.83296511021075

   => Energetics <=

    Nuclear Repulsion Energy =            528.1210380622914045
    One-Electron Energy =               -1688.1007650904950879
    Two-Electron Energy =                 689.1467619179929898
    Total Energy =                       -470.8329651102108073
  Basis Set: (AUG-CC-PVTZ AUX)
    Blend: AUG-CC-PVTZ-RI
    Molecular point group: c1

    Geometry (in Angstrom), charge = 0, multiplicity = 1:

       Center              X                  Y                   Z               Mass
    ------------   -----------------  -----------------  -----------------  -----------------
         O           -1.260241588303     1.542158855813     0.000002805950    15.994914619570
         N            1.452041411697     0.508331855813    -0.000007194050    14.003074004430
         N            0.593307411697    -1.561738144187     0.000009805950    14.003074004430
         N           -2.010494588303    -0.638881144187    -0.000001194050    14.003074004430
         C            0.313927411697    -0.251227144187     0.000009805950    12.000000000000
         C            2.470805711697    -0.335215044187    -0.000010094050    12.000000000000
         C            1.559091411697     1.966145855813     0.000001805950    12.000000000000
         C           -1.050344588303     0.318179855813     0.000001805950    12.000000000000
         C            1.957033411697    -1.634138144187    -0.000000194050    12.000000000000
         C           -3.422339588303    -0.319990144187    -0.000006194050    12.000000000000
         H            3.532711411697    -0.018595144187    -0.000012194050     1.007825032230
         H            1.072230411697     2.374870855813    -0.883911194050     1.007825032230
         H            1.072275411697     2.374856855813     0.883947805950     1.007825032230
         H            2.620271411697     2.218274855813    -0.000022194050     1.007825032230
         H            2.474623411697    -2.584466144187    -0.000005194050     1.007825032230
         H           -1.685243588303    -1.600330144187    -0.000001194050     1.007825032230
         H           -3.914621588303    -0.721021144187     0.890801805950     1.007825032230
         H           -3.914615588303    -0.721024144187    -0.890816194050     1.007825032230
         H           -3.508711588303     0.766550855813    -0.000009194050     1.007825032230

  Basis Set: AUG-CC-PVTZ
    Blend: AUG-CC-PVTZ
  Basis Set: (AUG-CC-PVTZ AUX)
    Blend: AUG-CC-PVTZ-JKFIT
	 Reference Energy          =    -470.8329651102107505 [Eh]
	 Singles Energy            =      -0.0000000000000000 [Eh]
	 Same-Spin Energy          =      -0.4996178124377074 [Eh]
	 Opposite-Spin Energy      =      -1.5366226176517879 [Eh]
	 Correlation Energy        =      -2.0362404300894954 [Eh]
	 Total Energy              =    -472.8692055403002428 [Eh]

	 ================> DF-SCS-MP2 Energies <==================
	-----------------------------------------------------------
	 SCS Same-Spin Scale       =       0.3333333333333333 [-]
	 SCS Opposite-Spin Scale   =       1.2000000000000000 [-]
	 SCS Same-Spin Energy      =      -0.1665392708125691 [Eh]
	 SCS Opposite-Spin Energy  =      -1.8439471411821453 [Eh]
	 SCS Correlation Energy    =      -2.0104864119947146 [Eh]
	 SCS Total Energy          =    -472.8434515222054415 [Eh]
	-----------------------------------------------------------

  Dipole Moment: [D]
     X:     1.4511      Y:     0.0681      Z:    -0.0000     Total:     1.4527

*** Psi4 exiting successfully. Buy a developer a beer!
