                               Psi4 1.3.2 release

  ==> Input File <==

--------------------------------------------------------------------------
#psi4
#
memory 32 gb

molecule  {
0 1
  O       -1.2482290     1.5306510     0.0000030
  N        1.4640540     0.4968240    -0.0000070
  N        0.6053200    -1.5732460     0.0000100
  N       -1.9644962    -0.6833147    -0.0000008
  C        0.3259400    -0.2627350     0.0000100
  C        2.5213300    -0.3786110    -0.0000100
  C        1.5711040     1.9546380     0.0000020
  C       -1.0383320     0.3066720     0.0000020
  C        1.9690460    -1.6456460     0.0000000
  C       -3.4103270    -0.3314980    -0.0000060
  H        3.5447240    -0.0301030    -0.0000120
  H        1.0842430     2.3633630    -0.8839110
  H        1.0842880     2.3633490     0.8839480
  H        2.6322840     2.2067670    -0.0000220
  H        2.4866360    -2.5959740    -0.0000050
  H       -1.6732310    -1.6118380    -0.0000010
  H       -3.9026090    -0.7325290     0.8908020
  H       -3.9026030    -0.7325320    -0.8908160
  H       -3.4966990     0.7550430    -0.0000090
units angstrom
no_reorient  #important for SAPT in psi4, default
symmetry c1  #important for SAPT in psi4, default
}

set PROPERTIES_ORIGIN ["COM"]
properties('MP2/aug-cc-pvtz', properties = ['dipole'])
--------------------------------------------------------------------------

    Molecular point group: c1
  Charge       = 0
  Multiplicity = 1
  Basis Set: AUG-CC-PVTZ
    Blend: AUG-CC-PVTZ
  Basis Set: (AUG-CC-PVTZ AUX)
    Blend: AUG-CC-PVTZ-JKFIT

    Orbital Energies [Eh]
    ---------------------

    Doubly Occupied:

       1A    -20.524500     2A    -15.636340     3A    -15.583449
       4A    -15.563787     5A    -11.362928     6A    -11.302662
       7A    -11.274387     8A    -11.271175     9A    -11.262074
      10A    -11.254225    11A     -1.381548    12A     -1.345298
      13A     -1.234651    14A     -1.189006    15A     -1.033545
      16A     -0.977979    17A     -0.948476    18A     -0.844668
      19A     -0.814318    20A     -0.780420    21A     -0.733921
      22A     -0.658035    23A     -0.655254    24A     -0.642968
      25A     -0.615827    26A     -0.602458    27A     -0.594843
      28A     -0.579695    29A     -0.562783    30A     -0.559848
      31A     -0.551776    32A     -0.531099    33A     -0.456782
      34A     -0.434166    35A     -0.400742    36A     -0.390199
      37A     -0.321799

  @DF-RHF Final Energy:  -470.83269406595355

   => Energetics <=

    Nuclear Repulsion Energy =            527.0819085453813386
    One-Electron Energy =               -1686.0739363443387901
    Two-Electron Energy =                 688.1593337330039049
    Total Energy =                       -470.8326940659535467
  Basis Set: (AUG-CC-PVTZ AUX)
    Blend: AUG-CC-PVTZ-RI
    Molecular point group: c1

    Geometry (in Angstrom), charge = 0, multiplicity = 1:

       Center              X                  Y                   Z               Mass
    ------------   -----------------  -----------------  -----------------  -----------------
         O           -1.266986503114     1.548225516761     0.000002794441    15.994914619570
         N            1.445296496886     0.514398516761    -0.000007205559    14.003074004430
         N            0.586562496886    -1.555671483239     0.000009794441    14.003074004430
         N           -1.983253703114    -0.665740183239    -0.000001005559    14.003074004430
         C            0.307182496886    -0.245160483239     0.000009794441    12.000000000000
         C            2.502572496886    -0.361036483239    -0.000010205559    12.000000000000
         C            1.552346496886     1.972212516761     0.000001794441    12.000000000000
         C           -1.057089503114     0.324246516761     0.000001794441    12.000000000000
         C            1.950288496886    -1.628071483239    -0.000000205559    12.000000000000
         C           -3.429084503114    -0.313923483239    -0.000006205559    12.000000000000
         H            3.525966496886    -0.012528483239    -0.000012205559     1.007825032230
         H            1.065485496886     2.380937516761    -0.883911205559     1.007825032230
         H            1.065530496886     2.380923516761     0.883947794441     1.007825032230
         H            2.613526496886     2.224341516761    -0.000022205559     1.007825032230
         H            2.467878496886    -2.578399483239    -0.000005205559     1.007825032230
         H           -1.691988503114    -1.594263483239    -0.000001205559     1.007825032230
         H           -3.921366503114    -0.714954483239     0.890801794441     1.007825032230
         H           -3.921360503114    -0.714957483239    -0.890816205559     1.007825032230
         H           -3.515456503114     0.772617516761    -0.000009205559     1.007825032230

  Basis Set: AUG-CC-PVTZ
    Blend: AUG-CC-PVTZ
  Basis Set: (AUG-CC-PVTZ AUX)
    Blend: AUG-CC-PVTZ-JKFIT
	 Reference Energy          =    -470.8326940659535467 [Eh]
	 Singles Energy            =      -0.0000000000000000 [Eh]
	 Same-Spin Energy          =      -0.4989723658076814 [Eh]
	 Opposite-Spin Energy      =      -1.5368694330833463 [Eh]
	 Correlation Energy        =      -2.0358417988910276 [Eh]
	 Total Energy              =    -472.8685358648446027 [Eh]

	 ================> DF-SCS-MP2 Energies <==================
	-----------------------------------------------------------
	 SCS Same-Spin Scale       =       0.3333333333333333 [-]
	 SCS Opposite-Spin Scale   =       1.2000000000000000 [-]
	 SCS Same-Spin Energy      =      -0.1663241219358938 [Eh]
	 SCS Opposite-Spin Energy  =      -1.8442433197000154 [Eh]
	 SCS Correlation Energy    =      -2.0105674416359092 [Eh]
	 SCS Total Energy          =    -472.8432615075894319 [Eh]
	-----------------------------------------------------------

  Dipole Moment: [D]
     X:     1.2613      Y:     0.0683      Z:    -0.0000     Total:     1.2631

*** Psi4 exiting successfully. Buy a developer a beer!
