                               Psi4 1.3.2 release

  ==> Input File <==

--------------------------------------------------------------------------
#psi4
#
memory 32 gb

molecule  {
0 1
  O       -1.2482290     1.5306510     0.0000030
  N        1.4368525     0.5360809    -0.0000077
  N        0.6053200    -1.5732460     0.0000100
  N       -1.9984820    -0.6503890    -0.0000010
  C        0.3259400    -0.2627350     0.0000100
  C        2.5213300    -0.3786110    -0.0000100
  C        1.5711040     1.9546380     0.0000020
  C       -1.0383320     0.3066720     0.0000020
  C        1.9690460    -1.6456460     0.0000000
  C       -3.4103270    -0.3314980    -0.0000060
  H        3.5447240    -0.0301030    -0.0000120
  H        1.0842430     2.3633630    -0.8839110
  H        1.0842880     2.3633490     0.8839480
  H        2.6322840     2.2067670    -0.0000220
  H        2.4866360    -2.5959740    -0.0000050
  H       -1.6732310    -1.6118380    -0.0000010
  H       -3.9026090    -0.7325290     0.8908020
  H       -3.9026030    -0.7325320    -0.8908160
  H       -3.4966990     0.7550430    -0.0000090
units angstrom
no_reorient  #important for SAPT in psi4, default
symmetry c1  #important for SAPT in psi4, default
}

set PROPERTIES_ORIGIN ["COM"]
properties('MP2/aug-cc-pvtz', properties = ['dipole'])
--------------------------------------------------------------------------

    Molecular point group: c1
  Charge       = 0
  Multiplicity = 1
  Basis Set: AUG-CC-PVTZ
    Blend: AUG-CC-PVTZ
  Basis Set: (AUG-CC-PVTZ AUX)
    Blend: AUG-CC-PVTZ-JKFIT

    Orbital Energies [Eh]
    ---------------------

    Doubly Occupied:

       1A    -20.523296     2A    -15.637077     3A    -15.585391
       4A    -15.565938     5A    -11.361923     6A    -11.309742
       7A    -11.275032     8A    -11.270721     9A    -11.259314
      10A    -11.258612    11A     -1.381845    12A     -1.340924
      13A     -1.235375    14A     -1.195196    15A     -1.033168
      16A     -0.981538    17A     -0.951220    18A     -0.840509
      19A     -0.813040    20A     -0.773552    21A     -0.733752
      22A     -0.657024    23A     -0.655359    24A     -0.646607
      25A     -0.619646    26A     -0.608050    27A     -0.605665
      28A     -0.582180    29A     -0.558581    30A     -0.555917
      31A     -0.546011    32A     -0.528217    33A     -0.459459
      34A     -0.433999    35A     -0.396798    36A     -0.388195
      37A     -0.325685

  @DF-RHF Final Energy:  -470.83108233001303

   => Energetics <=

    Nuclear Repulsion Energy =            526.9819917163168839
    One-Electron Energy =               -1685.8370368182502261
    Two-Electron Energy =                 688.0239627719201962
    Total Energy =                       -470.8310823300130323
  Basis Set: (AUG-CC-PVTZ AUX)
    Blend: AUG-CC-PVTZ-RI
    Molecular point group: c1

    Geometry (in Angstrom), charge = 0, multiplicity = 1:

       Center              X                  Y                   Z               Mass
    ------------   -----------------  -----------------  -----------------  -----------------
         O           -1.260825705063     1.540957629122     0.000002885060    15.994914619570
         N            1.424255794937     0.546387529122    -0.000007814940    14.003074004430
         N            0.592723294937    -1.562939370878     0.000009885060    14.003074004430
         N           -2.011078705063    -0.640082370878    -0.000001114940    14.003074004430
         C            0.313343294937    -0.252428370878     0.000009885060    12.000000000000
         C            2.508733294937    -0.368304370878    -0.000010114940    12.000000000000
         C            1.558507294937     1.964944629122     0.000001885060    12.000000000000
         C           -1.050928705063     0.316978629122     0.000001885060    12.000000000000
         C            1.956449294937    -1.635339370878    -0.000000114940    12.000000000000
         C           -3.422923705063    -0.321191370878    -0.000006114940    12.000000000000
         H            3.532127294937    -0.019796370878    -0.000012114940     1.007825032230
         H            1.071646294937     2.373669629122    -0.883911114940     1.007825032230
         H            1.071691294937     2.373655629122     0.883947885060     1.007825032230
         H            2.619687294937     2.217073629122    -0.000022114940     1.007825032230
         H            2.474039294937    -2.585667370878    -0.000005114940     1.007825032230
         H           -1.685827705063    -1.601531370878    -0.000001114940     1.007825032230
         H           -3.915205705063    -0.722222370878     0.890801885060     1.007825032230
         H           -3.915199705063    -0.722225370878    -0.890816114940     1.007825032230
         H           -3.509295705063     0.765349629122    -0.000009114940     1.007825032230

  Basis Set: AUG-CC-PVTZ
    Blend: AUG-CC-PVTZ
  Basis Set: (AUG-CC-PVTZ AUX)
    Blend: AUG-CC-PVTZ-JKFIT
	 Reference Energy          =    -470.8310823300130323 [Eh]
	 Singles Energy            =      -0.0000000000000000 [Eh]
	 Same-Spin Energy          =      -0.4994524699467496 [Eh]
	 Opposite-Spin Energy      =      -1.5379712275578798 [Eh]
	 Correlation Energy        =      -2.0374236975046296 [Eh]
	 Total Energy              =    -472.8685060275176397 [Eh]

	 ================> DF-SCS-MP2 Energies <==================
	-----------------------------------------------------------
	 SCS Same-Spin Scale       =       0.3333333333333333 [-]
	 SCS Opposite-Spin Scale   =       1.2000000000000000 [-]
	 SCS Same-Spin Energy      =      -0.1664841566489165 [Eh]
	 SCS Opposite-Spin Energy  =      -1.8455654730694557 [Eh]
	 SCS Correlation Energy    =      -2.0120496297183723 [Eh]
	 SCS Total Energy          =    -472.8431319597314086 [Eh]
	-----------------------------------------------------------

  Dipole Moment: [D]
     X:     1.3733      Y:    -0.1023      Z:    -0.0000     Total:     1.3771

*** Psi4 exiting successfully. Buy a developer a beer!
