                               Psi4 1.4a3.dev225

  ==> Input File <==

--------------------------------------------------------------------------
#psi4
#
memory 32 gb

molecule  {
0 1
  O       -1.2482290     1.5306510     0.0000030
  N        1.4640540     0.4968240    -0.0000070
  N        0.6053200    -1.5732460     0.0000100
  N       -1.9984820    -0.6503890    -0.0000010
  C        0.3093045    -0.2738373     0.0000102
  C        2.5213300    -0.3786110    -0.0000100
  C        1.5711040     1.9546380     0.0000020
  C       -1.0383320     0.3066720     0.0000020
  C        1.9690460    -1.6456460     0.0000000
  C       -3.4103270    -0.3314980    -0.0000060
  H        3.5447240    -0.0301030    -0.0000120
  H        1.0842430     2.3633630    -0.8839110
  H        1.0842880     2.3633490     0.8839480
  H        2.6322840     2.2067670    -0.0000220
  H        2.4866360    -2.5959740    -0.0000050
  H       -1.6732310    -1.6118380    -0.0000010
  H       -3.9026090    -0.7325290     0.8908020
  H       -3.9026030    -0.7325320    -0.8908160
  H       -3.4966990     0.7550430    -0.0000090
units angstrom
no_reorient  #important for SAPT in psi4, default
symmetry c1  #important for SAPT in psi4, default
}

set PROPERTIES_ORIGIN ["COM"]
properties('MP2/aug-cc-pvtz', properties = ['dipole'])
--------------------------------------------------------------------------

    Molecular point group: c1
  Charge       = 0
  Multiplicity = 1
  Basis Set: AUG-CC-PVTZ
    Blend: AUG-CC-PVTZ
  Basis Set: (AUG-CC-PVTZ AUX)
    Blend: AUG-CC-PVTZ-JKFIT

    Orbital Energies [Eh]
    ---------------------

    Doubly Occupied:

       1A    -20.522494     2A    -15.636594     3A    -15.584577
       4A    -15.567016     5A    -11.361655     6A    -11.305142
       7A    -11.274348     8A    -11.273746     9A    -11.258161
      10A    -11.255202    11A     -1.381284    12A     -1.343331
      13A     -1.235047    14A     -1.190830    15A     -1.037181
      16A     -0.978584    17A     -0.949036    18A     -0.843014
      19A     -0.813204    20A     -0.773137    21A     -0.733710
      22A     -0.660320    23A     -0.654373    24A     -0.646161
      25A     -0.618945    26A     -0.605358    27A     -0.595453
      28A     -0.583091    29A     -0.563225    30A     -0.560034
      31A     -0.545662    32A     -0.529688    33A     -0.458310
      34A     -0.434104    35A     -0.399537    36A     -0.388836
      37A     -0.322959

  @DF-RHF Final Energy:  -470.83408982188274

   => Energetics <=

    Nuclear Repulsion Energy =            527.0517980686764759
    One-Electron Energy =               -1686.0050773974007825
    Two-Electron Energy =                 688.1191895068416216
    Total Energy =                       -470.8340898218827988
  Basis Set: (AUG-CC-PVTZ AUX)
    Blend: AUG-CC-PVTZ-RI
    Molecular point group: c1

    Geometry (in Angstrom), charge = 0, multiplicity = 1:

       Center              X                  Y                   Z               Mass
    ------------   -----------------  -----------------  -----------------  -----------------
         O           -1.262129168579     1.545868267461     0.000002797321    15.994914619570
         N            1.450153831421     0.512041267461    -0.000007202679    14.003074004430
         N            0.591419831421    -1.558028732539     0.000009797321    14.003074004430
         N           -2.012382168579    -0.635171732539    -0.000001202679    14.003074004430
         C            0.295404331421    -0.258620032539     0.000009997321    12.000000000000
         C            2.507429831421    -0.363393732539    -0.000010202679    12.000000000000
         C            1.557203831421     1.969855267461     0.000001797321    12.000000000000
         C           -1.052232168579     0.321889267461     0.000001797321    12.000000000000
         C            1.955145831421    -1.630428732539    -0.000000202679    12.000000000000
         C           -3.424227168579    -0.316280732539    -0.000006202679    12.000000000000
         H            3.530823831421    -0.014885732539    -0.000012202679     1.007825032230
         H            1.070342831421     2.378580267461    -0.883911202679     1.007825032230
         H            1.070387831421     2.378566267461     0.883947797321     1.007825032230
         H            2.618383831421     2.221984267461    -0.000022202679     1.007825032230
         H            2.472735831421    -2.580756732539    -0.000005202679     1.007825032230
         H           -1.687131168579    -1.596620732539    -0.000001202679     1.007825032230
         H           -3.916509168579    -0.717311732539     0.890801797321     1.007825032230
         H           -3.916503168579    -0.717314732539    -0.890816202679     1.007825032230
         H           -3.510599168579     0.770260267461    -0.000009202679     1.007825032230

  Basis Set: AUG-CC-PVTZ
    Blend: AUG-CC-PVTZ
  Basis Set: (AUG-CC-PVTZ AUX)
    Blend: AUG-CC-PVTZ-JKFIT
	 Reference Energy          =    -470.8340898218827419 [Eh]
	 Singles Energy            =      -0.0000000000000000 [Eh]
	 Same-Spin Energy          =      -0.4995336675805548 [Eh]
	 Opposite-Spin Energy      =      -1.5374408961676940 [Eh]
	 Correlation Energy        =      -2.0369745637482488 [Eh]
	 Total Energy              =    -472.8710643856309730 [Eh]

	 ================> DF-SCS-MP2 Energies <==================
	-----------------------------------------------------------
	 SCS Same-Spin Scale       =       0.3333333333333333 [-]
	 SCS Opposite-Spin Scale   =       1.2000000000000000 [-]
	 SCS Same-Spin Energy      =      -0.1665112225268516 [Eh]
	 SCS Opposite-Spin Energy  =      -1.8449290754012326 [Eh]
	 SCS Correlation Energy    =      -2.0114402979280843 [Eh]
	 SCS Total Energy          =    -472.8455301198108032 [Eh]
	-----------------------------------------------------------

  Dipole Moment: [D]
     X:     1.3979      Y:    -0.0252      Z:    -0.0000     Total:     1.3981

*** Psi4 exiting successfully. Buy a developer a beer!
