                               Psi4 1.3.2 release

  ==> Input File <==

--------------------------------------------------------------------------
#psi4
#
memory 32 gb

molecule  {
0 1
  O       -1.2482290     1.5306510     0.0000030
  N        1.4640540     0.4968240    -0.0000070
  N        0.6960561    -1.5505651     0.0000106
  N       -1.9984820    -0.6503890    -0.0000010
  C        0.3259400    -0.2627350     0.0000100
  C        2.5213300    -0.3786110    -0.0000100
  C        1.5711040     1.9546380     0.0000020
  C       -1.0383320     0.3066720     0.0000020
  C        1.9690460    -1.6456460     0.0000000
  C       -3.4103270    -0.3314980    -0.0000060
  H        3.5447240    -0.0301030    -0.0000120
  H        1.0842430     2.3633630    -0.8839110
  H        1.0842880     2.3633490     0.8839480
  H        2.6322840     2.2067670    -0.0000220
  H        2.4866360    -2.5959740    -0.0000050
  H       -1.6732310    -1.6118380    -0.0000010
  H       -3.9026090    -0.7325290     0.8908020
  H       -3.9026030    -0.7325320    -0.8908160
  H       -3.4966990     0.7550430    -0.0000090
units angstrom
no_reorient  #important for SAPT in psi4, default
symmetry c1  #important for SAPT in psi4, default
}

set PROPERTIES_ORIGIN ["COM"]
properties('MP2/aug-cc-pvtz', properties = ['dipole'])
--------------------------------------------------------------------------

    Molecular point group: c1
  Charge       = 0
  Multiplicity = 1
  Basis Set: AUG-CC-PVTZ
    Blend: AUG-CC-PVTZ
  Basis Set: (AUG-CC-PVTZ AUX)
    Blend: AUG-CC-PVTZ-JKFIT

    Orbital Energies [Eh]
    ---------------------

    Doubly Occupied:

       1A    -20.521515     2A    -15.640380     3A    -15.585527
       4A    -15.553681     5A    -11.363366     6A    -11.298778
       7A    -11.273931     8A    -11.268167     9A    -11.258643
      10A    -11.246448    11A     -1.383305    12A     -1.355134
      13A     -1.234524    14A     -1.203938    15A     -1.034846
      16A     -0.982273    17A     -0.951876    18A     -0.839524
      19A     -0.814809    20A     -0.775725    21A     -0.739507
      22A     -0.663796    23A     -0.657318    24A     -0.645888
      25A     -0.619349    26A     -0.611931    27A     -0.597932
      28A     -0.584793    29A     -0.566823    30A     -0.563872
      31A     -0.545582    32A     -0.532097    33A     -0.445320
      34A     -0.430399    35A     -0.404548    36A     -0.392223
      37A     -0.316866

  @DF-RHF Final Energy:  -470.82911128945648

   => Energetics <=

    Nuclear Repulsion Energy =            528.4731436635127011
    One-Electron Energy =               -1688.7952437401006591
    Two-Electron Energy =                 689.4929887871314804
    Total Energy =                       -470.8291112894564776
  Basis Set: (AUG-CC-PVTZ AUX)
    Blend: AUG-CC-PVTZ-RI
    Molecular point group: c1

    Geometry (in Angstrom), charge = 0, multiplicity = 1:

       Center              X                  Y                   Z               Mass
    ------------   -----------------  -----------------  -----------------  -----------------
         O           -1.272700550598     1.542626625604     0.000002754166    15.994914619570
         N            1.439582449402     0.508799625604    -0.000007245834    14.003074004430
         N            0.671584549402    -1.538589474396     0.000010354166    14.003074004430
         N           -2.022953550598    -0.638413374396    -0.000001245834    14.003074004430
         C            0.301468449402    -0.250759374396     0.000009754166    12.000000000000
         C            2.496858449402    -0.366635374396    -0.000010245834    12.000000000000
         C            1.546632449402     1.966613625604     0.000001754166    12.000000000000
         C           -1.062803550598     0.318647625604     0.000001754166    12.000000000000
         C            1.944574449402    -1.633670374396    -0.000000245834    12.000000000000
         C           -3.434798550598    -0.319522374396    -0.000006245834    12.000000000000
         H            3.520252449402    -0.018127374396    -0.000012245834     1.007825032230
         H            1.059771449402     2.375338625604    -0.883911245834     1.007825032230
         H            1.059816449402     2.375324625604     0.883947754166     1.007825032230
         H            2.607812449402     2.218742625604    -0.000022245834     1.007825032230
         H            2.462164449402    -2.583998374396    -0.000005245834     1.007825032230
         H           -1.697702550598    -1.599862374396    -0.000001245834     1.007825032230
         H           -3.927080550598    -0.720553374396     0.890801754166     1.007825032230
         H           -3.927074550598    -0.720556374396    -0.890816245834     1.007825032230
         H           -3.521170550598     0.767018625604    -0.000009245834     1.007825032230

  Basis Set: AUG-CC-PVTZ
    Blend: AUG-CC-PVTZ
  Basis Set: (AUG-CC-PVTZ AUX)
    Blend: AUG-CC-PVTZ-JKFIT
	 Reference Energy          =    -470.8291112894564776 [Eh]
	 Singles Energy            =      -0.0000000000000000 [Eh]
	 Same-Spin Energy          =      -0.4997338110958296 [Eh]
	 Opposite-Spin Energy      =      -1.5356016516603941 [Eh]
	 Correlation Energy        =      -2.0353354627562235 [Eh]
	 Total Energy              =    -472.8644467522127002 [Eh]

	 ================> DF-SCS-MP2 Energies <==================
	-----------------------------------------------------------
	 SCS Same-Spin Scale       =       0.3333333333333333 [-]
	 SCS Opposite-Spin Scale   =       1.2000000000000000 [-]
	 SCS Same-Spin Energy      =      -0.1665779370319432 [Eh]
	 SCS Opposite-Spin Energy  =      -1.8427219819924727 [Eh]
	 SCS Correlation Energy    =      -2.0092999190244161 [Eh]
	 SCS Total Energy          =    -472.8384112084809203 [Eh]
	-----------------------------------------------------------

  Dipole Moment: [D]
     X:     1.2348      Y:    -0.1009      Z:    -0.0000     Total:     1.2389

*** Psi4 exiting successfully. Buy a developer a beer!
