                               Psi4 1.3.2 release

  ==> Input File <==

--------------------------------------------------------------------------
#psi4
#
memory 32 gb

molecule  {
0 1
  O       -1.2482290     1.5306510     0.0000030
  N        1.4640540     0.4968240    -0.0000070
  N        0.6086775    -1.5256968     0.0000098
  N       -1.9984820    -0.6503890    -0.0000010
  C        0.3259400    -0.2627350     0.0000100
  C        2.5213300    -0.3786110    -0.0000100
  C        1.5711040     1.9546380     0.0000020
  C       -1.0383320     0.3066720     0.0000020
  C        1.9690460    -1.6456460     0.0000000
  C       -3.4103270    -0.3314980    -0.0000060
  H        3.5447240    -0.0301030    -0.0000120
  H        1.0842430     2.3633630    -0.8839110
  H        1.0842880     2.3633490     0.8839480
  H        2.6322840     2.2067670    -0.0000220
  H        2.4866360    -2.5959740    -0.0000050
  H       -1.6732310    -1.6118380    -0.0000010
  H       -3.9026090    -0.7325290     0.8908020
  H       -3.9026030    -0.7325320    -0.8908160
  H       -3.4966990     0.7550430    -0.0000090
units angstrom
no_reorient  #important for SAPT in psi4, default
symmetry c1  #important for SAPT in psi4, default
}

set PROPERTIES_ORIGIN ["COM"]
properties('MP2/aug-cc-pvtz', properties = ['dipole'])
--------------------------------------------------------------------------

    Molecular point group: c1
  Charge       = 0
  Multiplicity = 1
  Basis Set: AUG-CC-PVTZ
    Blend: AUG-CC-PVTZ
  Basis Set: (AUG-CC-PVTZ AUX)
    Blend: AUG-CC-PVTZ-JKFIT

    Orbital Energies [Eh]
    ---------------------

    Doubly Occupied:

       1A    -20.522360     2A    -15.631733     3A    -15.584955
       4A    -15.558807     5A    -11.361719     6A    -11.299227
       7A    -11.273019     8A    -11.272433     9A    -11.258424
      10A    -11.254021    11A     -1.383073    12A     -1.350680
      13A     -1.235058    14A     -1.194039    15A     -1.038708
      16A     -0.975947    17A     -0.950792    18A     -0.840734
      19A     -0.818493    20A     -0.772626    21A     -0.733602
      22A     -0.661371    23A     -0.656725    24A     -0.645952
      25A     -0.618976    26A     -0.608638    27A     -0.594251
      28A     -0.583792    29A     -0.563662    30A     -0.561873
      31A     -0.545766    32A     -0.530153    33A     -0.456723
      34A     -0.430222    35A     -0.399734    36A     -0.388623
      37A     -0.325712

  @DF-RHF Final Energy:  -470.83708579679535

   => Energetics <=

    Nuclear Repulsion Energy =            528.4468821652114912
    One-Electron Energy =               -1688.8026865274346164
    Two-Electron Energy =                 689.5187185654277755
    Total Energy =                       -470.8370857967953498
  Basis Set: (AUG-CC-PVTZ AUX)
    Blend: AUG-CC-PVTZ-RI
    Molecular point group: c1

    Geometry (in Angstrom), charge = 0, multiplicity = 1:

       Center              X                  Y                   Z               Mass
    ------------   -----------------  -----------------  -----------------  -----------------
         O           -1.263902615265     1.540122697924     0.000002834716    15.994914619570
         N            1.448380384735     0.506295697924    -0.000007165284    14.003074004430
         N            0.593003884735    -1.516225102076     0.000009634716    14.003074004430
         N           -2.014155615265    -0.640917302076    -0.000001165284    14.003074004430
         C            0.310266384735    -0.253263302076     0.000009834716    12.000000000000
         C            2.505656384735    -0.369139302076    -0.000010165284    12.000000000000
         C            1.555430384735     1.964109697924     0.000001834716    12.000000000000
         C           -1.054005615265     0.316143697924     0.000001834716    12.000000000000
         C            1.953372384735    -1.636174302076    -0.000000165284    12.000000000000
         C           -3.426000615265    -0.322026302076    -0.000006165284    12.000000000000
         H            3.529050384735    -0.020631302076    -0.000012165284     1.007825032230
         H            1.068569384735     2.372834697924    -0.883911165284     1.007825032230
         H            1.068614384735     2.372820697924     0.883947834716     1.007825032230
         H            2.616610384735     2.216238697924    -0.000022165284     1.007825032230
         H            2.470962384735    -2.586502302076    -0.000005165284     1.007825032230
         H           -1.688904615265    -1.602366302076    -0.000001165284     1.007825032230
         H           -3.918282615265    -0.723057302076     0.890801834716     1.007825032230
         H           -3.918276615265    -0.723060302076    -0.890816165284     1.007825032230
         H           -3.512372615265     0.764514697924    -0.000009165284     1.007825032230

  Basis Set: AUG-CC-PVTZ
    Blend: AUG-CC-PVTZ
  Basis Set: (AUG-CC-PVTZ AUX)
    Blend: AUG-CC-PVTZ-JKFIT
	 Reference Energy          =    -470.8370857967953498 [Eh]
	 Singles Energy            =      -0.0000000000000000 [Eh]
	 Same-Spin Energy          =      -0.4983095611465933 [Eh]
	 Opposite-Spin Energy      =      -1.5349080102299109 [Eh]
	 Correlation Energy        =      -2.0332175713765039 [Eh]
	 Total Energy              =    -472.8703033681718466 [Eh]

	 ================> DF-SCS-MP2 Energies <==================
	-----------------------------------------------------------
	 SCS Same-Spin Scale       =       0.3333333333333333 [-]
	 SCS Opposite-Spin Scale   =       1.2000000000000000 [-]
	 SCS Same-Spin Energy      =      -0.1661031870488644 [Eh]
	 SCS Opposite-Spin Energy  =      -1.8418896122758930 [Eh]
	 SCS Correlation Energy    =      -2.0079927993247573 [Eh]
	 SCS Total Energy          =    -472.8450785961201177 [Eh]
	-----------------------------------------------------------

  Dipole Moment: [D]
     X:     1.3263      Y:    -0.1121      Z:    -0.0000     Total:     1.3310

*** Psi4 exiting successfully. Buy a developer a beer!
