                               Psi4 1.3.2 release

  ==> Input File <==

--------------------------------------------------------------------------
#psi4
#
memory 32 gb

molecule  {
0 1
  O       -1.1191385     1.5458861     0.0000039
  N        1.4640540     0.4968240    -0.0000070
  N        0.6053200    -1.5732460     0.0000100
  N       -1.9984820    -0.6503890    -0.0000010
  C        0.3259400    -0.2627350     0.0000100
  C        2.5213300    -0.3786110    -0.0000100
  C        1.5711040     1.9546380     0.0000020
  C       -1.0383320     0.3066720     0.0000020
  C        1.9690460    -1.6456460     0.0000000
  C       -3.4103270    -0.3314980    -0.0000060
  H        3.5447240    -0.0301030    -0.0000120
  H        1.0842430     2.3633630    -0.8839110
  H        1.0842880     2.3633490     0.8839480
  H        2.6322840     2.2067670    -0.0000220
  H        2.4866360    -2.5959740    -0.0000050
  H       -1.6732310    -1.6118380    -0.0000010
  H       -3.9026090    -0.7325290     0.8908020
  H       -3.9026030    -0.7325320    -0.8908160
  H       -3.4966990     0.7550430    -0.0000090
units angstrom
no_reorient  #important for SAPT in psi4, default
symmetry c1  #important for SAPT in psi4, default
}

set PROPERTIES_ORIGIN ["COM"]
properties('MP2/aug-cc-pvtz', properties = ['dipole'])
--------------------------------------------------------------------------

    Molecular point group: c1
  Charge       = 0
  Multiplicity = 1
  Basis Set: AUG-CC-PVTZ
    Blend: AUG-CC-PVTZ
  Basis Set: (AUG-CC-PVTZ AUX)
    Blend: AUG-CC-PVTZ-JKFIT

    Orbital Energies [Eh]
    ---------------------

    Doubly Occupied:

       1A    -20.524975     2A    -15.633805     3A    -15.591518
       4A    -15.561123     5A    -11.364075     6A    -11.299546
       7A    -11.270477     8A    -11.268949     9A    -11.263596
      10A    -11.251889    11A     -1.383436    12A     -1.342116
      13A     -1.242315    14A     -1.187406    15A     -1.032023
      16A     -0.977035    17A     -0.951884    18A     -0.838778
      19A     -0.811686    20A     -0.776937    21A     -0.732122
      22A     -0.658511    23A     -0.654010    24A     -0.649079
      25A     -0.621804    26A     -0.602774    27A     -0.592204
      28A     -0.584672    29A     -0.558320    30A     -0.557743
      31A     -0.552342    32A     -0.531581    33A     -0.454759
      34A     -0.432455    35A     -0.400415    36A     -0.389814
      37A     -0.319566

  @DF-RHF Final Energy:  -470.83180846146251

   => Energetics <=

    Nuclear Repulsion Energy =            528.0799495767658982
    One-Electron Energy =               -1688.0920327989554153
    Two-Electron Energy =                 689.1802747607271158
    Total Energy =                       -470.8318084614625150
  Basis Set: (AUG-CC-PVTZ AUX)
    Blend: AUG-CC-PVTZ-RI
    Molecular point group: c1

    Geometry (in Angstrom), charge = 0, multiplicity = 1:

       Center              X                  Y                   Z               Mass
    ------------   -----------------  -----------------  -----------------  -----------------
         O           -1.149320708187     1.558393226092     0.000003611070    15.994914619570
         N            1.433871791813     0.509331126092    -0.000007288930    14.003074004430
         N            0.575137791813    -1.560738873908     0.000009711070    14.003074004430
         N           -2.028664208187    -0.637881873908    -0.000001288930    14.003074004430
         C            0.295757791813    -0.250227873908     0.000009711070    12.000000000000
         C            2.491147791813    -0.366103873908    -0.000010288930    12.000000000000
         C            1.540921791813     1.967145126092     0.000001711070    12.000000000000
         C           -1.068514208187     0.319179126092     0.000001711070    12.000000000000
         C            1.938863791813    -1.633138873908    -0.000000288930    12.000000000000
         C           -3.440509208187    -0.318990873908    -0.000006288930    12.000000000000
         H            3.514541791813    -0.017595873908    -0.000012288930     1.007825032230
         H            1.054060791813     2.375870126092    -0.883911288930     1.007825032230
         H            1.054105791813     2.375856126092     0.883947711070     1.007825032230
         H            2.602101791813     2.219274126092    -0.000022288930     1.007825032230
         H            2.456453791813    -2.583466873908    -0.000005288930     1.007825032230
         H           -1.703413208187    -1.599330873908    -0.000001288930     1.007825032230
         H           -3.932791208187    -0.720021873908     0.890801711070     1.007825032230
         H           -3.932785208187    -0.720024873908    -0.890816288930     1.007825032230
         H           -3.526881208187     0.767550126092    -0.000009288930     1.007825032230

  Basis Set: AUG-CC-PVTZ
    Blend: AUG-CC-PVTZ
  Basis Set: (AUG-CC-PVTZ AUX)
    Blend: AUG-CC-PVTZ-JKFIT
	 Reference Energy          =    -470.8318084614625150 [Eh]
	 Singles Energy            =      -0.0000000000000000 [Eh]
	 Same-Spin Energy          =      -0.4994206221591282 [Eh]
	 Opposite-Spin Energy      =      -1.5373439983465431 [Eh]
	 Correlation Energy        =      -2.0367646205056715 [Eh]
	 Total Energy              =    -472.8685730819681794 [Eh]

	 ================> DF-SCS-MP2 Energies <==================
	-----------------------------------------------------------
	 SCS Same-Spin Scale       =       0.3333333333333333 [-]
	 SCS Opposite-Spin Scale   =       1.2000000000000000 [-]
	 SCS Same-Spin Energy      =      -0.1664735407197094 [Eh]
	 SCS Opposite-Spin Energy  =      -1.8448127980158517 [Eh]
	 SCS Correlation Energy    =      -2.0112863387355611 [Eh]
	 SCS Total Energy          =    -472.8430948001980596 [Eh]
	-----------------------------------------------------------

  Dipole Moment: [D]
     X:     0.8904      Y:    -0.0002      Z:    -0.0000     Total:     0.8904

*** Psi4 exiting successfully. Buy a developer a beer!
