                               Psi4 1.3.2 release

  ==> Input File <==

--------------------------------------------------------------------------
#psi4
#
memory 32 gb

molecule  {
0 1
  O       -1.2482290     1.5306510     0.0000030
  N        1.5613537     0.6025437    -0.0000082
  N        0.6053200    -1.5732460     0.0000100
  N       -1.9984820    -0.6503890    -0.0000010
  C        0.3259400    -0.2627350     0.0000100
  C        2.5213300    -0.3786110    -0.0000100
  C        1.5711040     1.9546380     0.0000020
  C       -1.0383320     0.3066720     0.0000020
  C        1.9690460    -1.6456460     0.0000000
  C       -3.4103270    -0.3314980    -0.0000060
  H        3.5447240    -0.0301030    -0.0000120
  H        1.0842430     2.3633630    -0.8839110
  H        1.0842880     2.3633490     0.8839480
  H        2.6322840     2.2067670    -0.0000220
  H        2.4866360    -2.5959740    -0.0000050
  H       -1.6732310    -1.6118380    -0.0000010
  H       -3.9026090    -0.7325290     0.8908020
  H       -3.9026030    -0.7325320    -0.8908160
  H       -3.4966990     0.7550430    -0.0000090
units angstrom
no_reorient  #important for SAPT in psi4, default
symmetry c1  #important for SAPT in psi4, default
}

set PROPERTIES_ORIGIN ["COM"]
properties('MP2/aug-cc-pvtz', properties = ['dipole'])
--------------------------------------------------------------------------

    Molecular point group: c1
  Charge       = 0
  Multiplicity = 1
  Basis Set: AUG-CC-PVTZ
    Blend: AUG-CC-PVTZ
  Basis Set: (AUG-CC-PVTZ AUX)
    Blend: AUG-CC-PVTZ-JKFIT

    Orbital Energies [Eh]
    ---------------------

    Doubly Occupied:

       1A    -20.521423     2A    -15.636618     3A    -15.584480
       4A    -15.583987     5A    -11.362085     6A    -11.316020
       7A    -11.285257     8A    -11.263047     9A    -11.258309
      10A    -11.257575    11A     -1.377836    12A     -1.333972
      13A     -1.237978    14A     -1.212211    15A     -1.037019
      16A     -0.986416    17A     -0.939539    18A     -0.842342
      19A     -0.806176    20A     -0.775192    21A     -0.736007
      22A     -0.663922    23A     -0.657429    24A     -0.644854
      25A     -0.620869    26A     -0.617402    27A     -0.609060
      28A     -0.578467    29A     -0.555922    30A     -0.545899
      31A     -0.542571    32A     -0.526453    33A     -0.466150
      34A     -0.431614    35A     -0.401461    36A     -0.390296
      37A     -0.316607

  @DF-RHF Final Energy:  -470.80314228154816

   => Energetics <=

    Nuclear Repulsion Energy =            525.1441230069970061
    One-Electron Energy =               -1682.0495957089653984
    Two-Electron Energy =                 686.1023304204202304
    Total Energy =                       -470.8031422815481619
  Basis Set: (AUG-CC-PVTZ AUX)
    Blend: AUG-CC-PVTZ-RI
    Molecular point group: c1

    Geometry (in Angstrom), charge = 0, multiplicity = 1:

       Center              X                  Y                   Z               Mass
    ------------   -----------------  -----------------  -----------------  -----------------
         O           -1.273361423264     1.534265654011     0.000002935403    15.994914619570
         N            1.536221276736     0.606158354011    -0.000008264597    14.003074004430
         N            0.580187576736    -1.569631345989     0.000009935403    14.003074004430
         N           -2.023614423264    -0.646774345989    -0.000001064597    14.003074004430
         C            0.300807576736    -0.259120345989     0.000009935403    12.000000000000
         C            2.496197576736    -0.374996345989    -0.000010064597    12.000000000000
         C            1.545971576736     1.958252654011     0.000001935403    12.000000000000
         C           -1.063464423264     0.310286654011     0.000001935403    12.000000000000
         C            1.943913576736    -1.642031345989    -0.000000064597    12.000000000000
         C           -3.435459423264    -0.327883345989    -0.000006064597    12.000000000000
         H            3.519591576736    -0.026488345989    -0.000012064597     1.007825032230
         H            1.059110576736     2.366977654011    -0.883911064597     1.007825032230
         H            1.059155576736     2.366963654011     0.883947935403     1.007825032230
         H            2.607151576736     2.210381654011    -0.000022064597     1.007825032230
         H            2.461503576736    -2.592359345989    -0.000005064597     1.007825032230
         H           -1.698363423264    -1.608223345989    -0.000001064597     1.007825032230
         H           -3.927741423264    -0.728914345989     0.890801935403     1.007825032230
         H           -3.927735423264    -0.728917345989    -0.890816064597     1.007825032230
         H           -3.521831423264     0.758657654011    -0.000009064597     1.007825032230

  Basis Set: AUG-CC-PVTZ
    Blend: AUG-CC-PVTZ
  Basis Set: (AUG-CC-PVTZ AUX)
    Blend: AUG-CC-PVTZ-JKFIT
	 Reference Energy          =    -470.8031422815481619 [Eh]
	 Singles Energy            =      -0.0000000000000000 [Eh]
	 Same-Spin Energy          =      -0.5014536372946786 [Eh]
	 Opposite-Spin Energy      =      -1.5413519079435136 [Eh]
	 Correlation Energy        =      -2.0428055452381924 [Eh]
	 Total Energy              =    -472.8459478267863574 [Eh]

	 ================> DF-SCS-MP2 Energies <==================
	-----------------------------------------------------------
	 SCS Same-Spin Scale       =       0.3333333333333333 [-]
	 SCS Opposite-Spin Scale   =       1.2000000000000000 [-]
	 SCS Same-Spin Energy      =      -0.1671512124315595 [Eh]
	 SCS Opposite-Spin Energy  =      -1.8496222895322163 [Eh]
	 SCS Correlation Energy    =      -2.0167735019637760 [Eh]
	 SCS Total Energy          =    -472.8199157835119308 [Eh]
	-----------------------------------------------------------

  Dipole Moment: [D]
     X:     1.3071      Y:    -0.3262      Z:    -0.0000     Total:     1.3472

*** Psi4 exiting successfully. Buy a developer a beer!
