                               Psi4 1.3.2 release

  ==> Input File <==

--------------------------------------------------------------------------
#psi4
#
memory 32 gb

molecule  {
0 1
  O       -1.2482290     1.5306510     0.0000030
  N        1.4952503     0.5331891    -0.0000074
  N        0.6053200    -1.5732460     0.0000100
  N       -1.9984820    -0.6503890    -0.0000010
  C        0.3259400    -0.2627350     0.0000100
  C        2.5213300    -0.3786110    -0.0000100
  C        1.5711040     1.9546380     0.0000020
  C       -1.0383320     0.3066720     0.0000020
  C        1.9690460    -1.6456460     0.0000000
  C       -3.4103270    -0.3314980    -0.0000060
  H        3.5447240    -0.0301030    -0.0000120
  H        1.0842430     2.3633630    -0.8839110
  H        1.0842880     2.3633490     0.8839480
  H        2.6322840     2.2067670    -0.0000220
  H        2.4866360    -2.5959740    -0.0000050
  H       -1.6732310    -1.6118380    -0.0000010
  H       -3.9026090    -0.7325290     0.8908020
  H       -3.9026030    -0.7325320    -0.8908160
  H       -3.4966990     0.7550430    -0.0000090
units angstrom
no_reorient  #important for SAPT in psi4, default
symmetry c1  #important for SAPT in psi4, default
}

set PROPERTIES_ORIGIN ["COM"]
properties('MP2/aug-cc-pvtz', properties = ['dipole'])
--------------------------------------------------------------------------

    Molecular point group: c1
  Charge       = 0
  Multiplicity = 1
  Basis Set: AUG-CC-PVTZ
    Blend: AUG-CC-PVTZ
  Basis Set: (AUG-CC-PVTZ AUX)
    Blend: AUG-CC-PVTZ-JKFIT

    Orbital Energies [Eh]
    ---------------------

    Doubly Occupied:

       1A    -20.521905     2A    -15.637704     3A    -15.584615
       4A    -15.571969     5A    -11.362025     6A    -11.309102
       7A    -11.276700     8A    -11.270659     9A    -11.258263
      10A    -11.256111    11A     -1.379897    12A     -1.341120
      13A     -1.235183    14A     -1.198149    15A     -1.035014
      16A     -0.981987    17A     -0.946615    18A     -0.841271
      19A     -0.811975    20A     -0.773681    21A     -0.735167
      22A     -0.659418    23A     -0.655876    24A     -0.645620
      25A     -0.619630    26A     -0.606499    27A     -0.603321
      28A     -0.579664    29A     -0.560707    30A     -0.558176
      31A     -0.545650    32A     -0.528777    33A     -0.461357
      34A     -0.433397    35A     -0.399971    36A     -0.389374
      37A     -0.321125

  @DF-RHF Final Energy:  -470.83026095612530

   => Energetics <=

    Nuclear Repulsion Energy =            526.4316890206124526
    One-Electron Energy =               -1684.7285573971357735
    Two-Electron Energy =                 687.4666074203981907
    Total Energy =                       -470.8302609561252439
  Basis Set: (AUG-CC-PVTZ AUX)
    Blend: AUG-CC-PVTZ-RI
    Molecular point group: c1

    Geometry (in Angstrom), charge = 0, multiplicity = 1:

       Center              X                  Y                   Z               Mass
    ------------   -----------------  -----------------  -----------------  -----------------
         O           -1.266705635251     1.541248797318     0.000002854853    15.994914619570
         N            1.476773664749     0.543786897318    -0.000007545147    14.003074004430
         N            0.586843364749    -1.562648202682     0.000009854853    14.003074004430
         N           -2.016958635251    -0.639791202682    -0.000001145147    14.003074004430
         C            0.307463364749    -0.252137202682     0.000009854853    12.000000000000
         C            2.502853364749    -0.368013202682    -0.000010145147    12.000000000000
         C            1.552627364749     1.965235797318     0.000001854853    12.000000000000
         C           -1.056808635251     0.317269797318     0.000001854853    12.000000000000
         C            1.950569364749    -1.635048202682    -0.000000145147    12.000000000000
         C           -3.428803635251    -0.320900202682    -0.000006145147    12.000000000000
         H            3.526247364749    -0.019505202682    -0.000012145147     1.007825032230
         H            1.065766364749     2.373960797318    -0.883911145147     1.007825032230
         H            1.065811364749     2.373946797318     0.883947854853     1.007825032230
         H            2.613807364749     2.217364797318    -0.000022145147     1.007825032230
         H            2.468159364749    -2.585376202682    -0.000005145147     1.007825032230
         H           -1.691707635251    -1.601240202682    -0.000001145147     1.007825032230
         H           -3.921085635251    -0.721931202682     0.890801854853     1.007825032230
         H           -3.921079635251    -0.721934202682    -0.890816145147     1.007825032230
         H           -3.515175635251     0.765640797318    -0.000009145147     1.007825032230

  Basis Set: AUG-CC-PVTZ
    Blend: AUG-CC-PVTZ
  Basis Set: (AUG-CC-PVTZ AUX)
    Blend: AUG-CC-PVTZ-JKFIT
	 Reference Energy          =    -470.8302609561253007 [Eh]
	 Singles Energy            =      -0.0000000000000000 [Eh]
	 Same-Spin Energy          =      -0.4998681081190481 [Eh]
	 Opposite-Spin Energy      =      -1.5381455602607936 [Eh]
	 Correlation Energy        =      -2.0380136683798415 [Eh]
	 Total Energy              =    -472.8682746245051476 [Eh]

	 ================> DF-SCS-MP2 Energies <==================
	-----------------------------------------------------------
	 SCS Same-Spin Scale       =       0.3333333333333333 [-]
	 SCS Opposite-Spin Scale   =       1.2000000000000000 [-]
	 SCS Same-Spin Energy      =      -0.1666227027063494 [Eh]
	 SCS Opposite-Spin Energy  =      -1.8457746723129522 [Eh]
	 SCS Correlation Energy    =      -2.0123973750193018 [Eh]
	 SCS Total Energy          =    -472.8426583311446052 [Eh]
	-----------------------------------------------------------

  Dipole Moment: [D]
     X:     1.3754      Y:    -0.1056      Z:    -0.0000     Total:     1.3795

*** Psi4 exiting successfully. Buy a developer a beer!
