                               Psi4 1.4a3.dev225

  ==> Input File <==

--------------------------------------------------------------------------
#psi4
#
memory 32 gb

molecule  {
0 1
  O       -1.2482290     1.5306510     0.0000030
  N        1.4640540     0.4968240    -0.0000070
  N        0.6053200    -1.5732460     0.0000100
  N       -1.9984820    -0.6503890    -0.0000010
  C        0.3363649    -0.3116361     0.0000100
  C        2.5213300    -0.3786110    -0.0000100
  C        1.5711040     1.9546380     0.0000020
  C       -1.0383320     0.3066720     0.0000020
  C        1.9690460    -1.6456460     0.0000000
  C       -3.4103270    -0.3314980    -0.0000060
  H        3.5447240    -0.0301030    -0.0000120
  H        1.0842430     2.3633630    -0.8839110
  H        1.0842880     2.3633490     0.8839480
  H        2.6322840     2.2067670    -0.0000220
  H        2.4866360    -2.5959740    -0.0000050
  H       -1.6732310    -1.6118380    -0.0000010
  H       -3.9026090    -0.7325290     0.8908020
  H       -3.9026030    -0.7325320    -0.8908160
  H       -3.4966990     0.7550430    -0.0000090
units angstrom
no_reorient  #important for SAPT in psi4, default
symmetry c1  #important for SAPT in psi4, default
}

set PROPERTIES_ORIGIN ["COM"]
properties('MP2/aug-cc-pvtz', properties = ['dipole'])
--------------------------------------------------------------------------

    Molecular point group: c1
  Charge       = 0
  Multiplicity = 1
  Basis Set: AUG-CC-PVTZ
    Blend: AUG-CC-PVTZ
  Basis Set: (AUG-CC-PVTZ AUX)
    Blend: AUG-CC-PVTZ-JKFIT

    Orbital Energies [Eh]
    ---------------------

    Doubly Occupied:

       1A    -20.524096     2A    -15.631461     3A    -15.585337
       4A    -15.563595     5A    -11.363775     6A    -11.304834
       7A    -11.273767     8A    -11.272727     9A    -11.258498
      10A    -11.253273    11A     -1.381445    12A     -1.348784
      13A     -1.235681    14A     -1.199174    15A     -1.033718
      16A     -0.978047    17A     -0.948761    18A     -0.835946
      19A     -0.815956    20A     -0.773128    21A     -0.733741
      22A     -0.658163    23A     -0.654551    24A     -0.645673
      25A     -0.619090    26A     -0.606408    27A     -0.597709
      28A     -0.577739    29A     -0.562829    30A     -0.562194
      31A     -0.546114    32A     -0.530731    33A     -0.464980
      34A     -0.430561    35A     -0.402766    36A     -0.390009
      37A     -0.323535

  @DF-RHF Final Energy:  -470.83480459765826

   => Energetics <=

    Nuclear Repulsion Energy =            527.1704436217327157
    One-Electron Energy =               -1686.2329021648070011
    Two-Electron Energy =                 688.2276539454159092
    Total Energy =                       -470.8348045976582625
  Basis Set: (AUG-CC-PVTZ AUX)
    Blend: AUG-CC-PVTZ-RI
    Molecular point group: c1

    Geometry (in Angstrom), charge = 0, multiplicity = 1:

       Center              X                  Y                   Z               Mass
    ------------   -----------------  -----------------  -----------------  -----------------
         O           -1.264464065742     1.549129723717     0.000002814578    15.994914619570
         N            1.447818934258     0.515302723717    -0.000007185422    14.003074004430
         N            0.589084934258    -1.554767276283     0.000009814578    14.003074004430
         N           -2.014717065742    -0.631910276283    -0.000001185422    14.003074004430
         C            0.320129834258    -0.293157376283     0.000009814578    12.000000000000
         C            2.505094934258    -0.360132276283    -0.000010185422    12.000000000000
         C            1.554868934258     1.973116723717     0.000001814578    12.000000000000
         C           -1.054567065742     0.325150723717     0.000001814578    12.000000000000
         C            1.952810934258    -1.627167276283    -0.000000185422    12.000000000000
         C           -3.426562065742    -0.313019276283    -0.000006185422    12.000000000000
         H            3.528488934258    -0.011624276283    -0.000012185422     1.007825032230
         H            1.068007934258     2.381841723717    -0.883911185422     1.007825032230
         H            1.068052934258     2.381827723717     0.883947814578     1.007825032230
         H            2.616048934258     2.225245723717    -0.000022185422     1.007825032230
         H            2.470400934258    -2.577495276283    -0.000005185422     1.007825032230
         H           -1.689466065742    -1.593359276283    -0.000001185422     1.007825032230
         H           -3.918844065742    -0.714050276283     0.890801814578     1.007825032230
         H           -3.918838065742    -0.714053276283    -0.890816185422     1.007825032230
         H           -3.512934065742     0.773521723717    -0.000009185422     1.007825032230

  Basis Set: AUG-CC-PVTZ
    Blend: AUG-CC-PVTZ
  Basis Set: (AUG-CC-PVTZ AUX)
    Blend: AUG-CC-PVTZ-JKFIT
	 Reference Energy          =    -470.8348045976582625 [Eh]
	 Singles Energy            =      -0.0000000000000000 [Eh]
	 Same-Spin Energy          =      -0.4982235951178763 [Eh]
	 Opposite-Spin Energy      =      -1.5353939657095739 [Eh]
	 Correlation Energy        =      -2.0336175608274503 [Eh]
	 Total Energy              =    -472.8684221584857141 [Eh]

	 ================> DF-SCS-MP2 Energies <==================
	-----------------------------------------------------------
	 SCS Same-Spin Scale       =       0.3333333333333333 [-]
	 SCS Opposite-Spin Scale   =       1.2000000000000000 [-]
	 SCS Same-Spin Energy      =      -0.1660745317059588 [Eh]
	 SCS Opposite-Spin Energy  =      -1.8424727588514886 [Eh]
	 SCS Correlation Energy    =      -2.0085472905574475 [Eh]
	 SCS Total Energy          =    -472.8433518882156932 [Eh]
	-----------------------------------------------------------

  Dipole Moment: [D]
     X:     1.2556      Y:    -0.0322      Z:    -0.0000     Total:     1.2561

*** Psi4 exiting successfully. Buy a developer a beer!
