                               Psi4 1.4a3.dev225

  ==> Input File <==

--------------------------------------------------------------------------
#psi4
#
memory 32 gb

molecule  {
0 1
  O       -1.2482290     1.5306510     0.0000030
  N        1.4640540     0.4968240    -0.0000070
  N        0.6053200    -1.5732460     0.0000100
  N       -1.9984820    -0.6503890    -0.0000010
  C        0.3217700    -0.2431745     0.0000100
  C        2.5213300    -0.3786110    -0.0000100
  C        1.5711040     1.9546380     0.0000020
  C       -1.0383320     0.3066720     0.0000020
  C        1.9690460    -1.6456460     0.0000000
  C       -3.4103270    -0.3314980    -0.0000060
  H        3.5447240    -0.0301030    -0.0000120
  H        1.0842430     2.3633630    -0.8839110
  H        1.0842880     2.3633490     0.8839480
  H        2.6322840     2.2067670    -0.0000220
  H        2.4866360    -2.5959740    -0.0000050
  H       -1.6732310    -1.6118380    -0.0000010
  H       -3.9026090    -0.7325290     0.8908020
  H       -3.9026030    -0.7325320    -0.8908160
  H       -3.4966990     0.7550430    -0.0000090
units angstrom
no_reorient  #important for SAPT in psi4, default
symmetry c1  #important for SAPT in psi4, default
}

set PROPERTIES_ORIGIN ["COM"]
properties('MP2/aug-cc-pvtz', properties = ['dipole'])
--------------------------------------------------------------------------

    Molecular point group: c1
  Charge       = 0
  Multiplicity = 1
  Basis Set: AUG-CC-PVTZ
    Blend: AUG-CC-PVTZ
  Basis Set: (AUG-CC-PVTZ AUX)
    Blend: AUG-CC-PVTZ-JKFIT

    Orbital Energies [Eh]
    ---------------------

    Doubly Occupied:

       1A    -20.521549     2A    -15.640324     3A    -15.584598
       4A    -15.566116     5A    -11.361460     6A    -11.304855
       7A    -11.275319     8A    -11.272532     9A    -11.258236
      10A    -11.256235    11A     -1.381916    12A     -1.345940
      13A     -1.234191    14A     -1.187405    15A     -1.036822
      16A     -0.979890    17A     -0.951115    18A     -0.843017
      19A     -0.814023    20A     -0.772751    21A     -0.735063
      22A     -0.660264    23A     -0.657083    24A     -0.645795
      25A     -0.619156    26A     -0.605106    27A     -0.594417
      28A     -0.585359    29A     -0.563691    30A     -0.559578
      31A     -0.545511    32A     -0.529686    33A     -0.455151
      34A     -0.434848    35A     -0.398119    36A     -0.388440
      37A     -0.322697

  @DF-RHF Final Energy:  -470.83354856889258

   => Energetics <=

    Nuclear Repulsion Energy =            527.1283900451870750
    One-Electron Energy =               -1686.1473536545643128
    Two-Electron Energy =                 688.1854150404847132
    Total Energy =                       -470.8335485688926383
  Basis Set: (AUG-CC-PVTZ AUX)
    Blend: AUG-CC-PVTZ-RI
    Molecular point group: c1

    Geometry (in Angstrom), charge = 0, multiplicity = 1:

       Center              X                  Y                   Z               Mass
    ------------   -----------------  -----------------  -----------------  -----------------
         O           -1.263204749893     1.543222538473     0.000002814578    15.994914619570
         N            1.449078250107     0.509395538473    -0.000007185422    14.003074004430
         N            0.590344250107    -1.560674461527     0.000009814578    14.003074004430
         N           -2.013457749893    -0.637817461527    -0.000001185422    14.003074004430
         C            0.306794250107    -0.230602961527     0.000009814578    12.000000000000
         C            2.506354250107    -0.366039461527    -0.000010185422    12.000000000000
         C            1.556128250107     1.967209538473     0.000001814578    12.000000000000
         C           -1.053307749893     0.319243538473     0.000001814578    12.000000000000
         C            1.954070250107    -1.633074461527    -0.000000185422    12.000000000000
         C           -3.425302749893    -0.318926461527    -0.000006185422    12.000000000000
         H            3.529748250107    -0.017531461527    -0.000012185422     1.007825032230
         H            1.069267250107     2.375934538473    -0.883911185422     1.007825032230
         H            1.069312250107     2.375920538473     0.883947814578     1.007825032230
         H            2.617308250107     2.219338538473    -0.000022185422     1.007825032230
         H            2.471660250107    -2.583402461527    -0.000005185422     1.007825032230
         H           -1.688206749893    -1.599266461527    -0.000001185422     1.007825032230
         H           -3.917584749893    -0.719957461527     0.890801814578     1.007825032230
         H           -3.917578749893    -0.719960461527    -0.890816185422     1.007825032230
         H           -3.511674749893     0.767614538473    -0.000009185422     1.007825032230

  Basis Set: AUG-CC-PVTZ
    Blend: AUG-CC-PVTZ
  Basis Set: (AUG-CC-PVTZ AUX)
    Blend: AUG-CC-PVTZ-JKFIT
	 Reference Energy          =    -470.8335485688925814 [Eh]
	 Singles Energy            =      -0.0000000000000000 [Eh]
	 Same-Spin Energy          =      -0.4997990230228601 [Eh]
	 Opposite-Spin Energy      =      -1.5378449226312161 [Eh]
	 Correlation Energy        =      -2.0376439456540760 [Eh]
	 Total Energy              =    -472.8711925145466353 [Eh]

	 ================> DF-SCS-MP2 Energies <==================
	-----------------------------------------------------------
	 SCS Same-Spin Scale       =       0.3333333333333333 [-]
	 SCS Opposite-Spin Scale   =       1.2000000000000000 [-]
	 SCS Same-Spin Energy      =      -0.1665996743409534 [Eh]
	 SCS Opposite-Spin Energy  =      -1.8454139071574591 [Eh]
	 SCS Correlation Energy    =      -2.0120135814984126 [Eh]
	 SCS Total Energy          =    -472.8455621503910038 [Eh]
	-----------------------------------------------------------

  Dipole Moment: [D]
     X:     1.4484      Y:     0.0273      Z:    -0.0000     Total:     1.4487

*** Psi4 exiting successfully. Buy a developer a beer!
