                               Psi4 1.4a3.dev225

  ==> Input File <==

--------------------------------------------------------------------------
#psi4
#
memory 32 gb

molecule  {
0 1
  O       -1.2482290     1.5306510     0.0000030
  N        1.4640540     0.4968240    -0.0000070
  N        0.6053200    -1.5732460     0.0000100
  N       -1.9984820    -0.6503890    -0.0000010
  C        0.3259400    -0.2627350     0.0000100
  C        2.5367347    -0.3913662    -0.0000100
  C        1.5711040     1.9546380     0.0000020
  C       -1.0383320     0.3066720     0.0000020
  C        1.9690460    -1.6456460     0.0000000
  C       -3.4103270    -0.3314980    -0.0000060
  H        3.5447240    -0.0301030    -0.0000120
  H        1.0842430     2.3633630    -0.8839110
  H        1.0842880     2.3633490     0.8839480
  H        2.6322840     2.2067670    -0.0000220
  H        2.4866360    -2.5959740    -0.0000050
  H       -1.6732310    -1.6118380    -0.0000010
  H       -3.9026090    -0.7325290     0.8908020
  H       -3.9026030    -0.7325320    -0.8908160
  H       -3.4966990     0.7550430    -0.0000090
units angstrom
no_reorient  #important for SAPT in psi4, default
symmetry c1  #important for SAPT in psi4, default
}

set PROPERTIES_ORIGIN ["COM"]
properties('MP2/aug-cc-pvtz', properties = ['dipole'])
--------------------------------------------------------------------------

    Molecular point group: c1
  Charge       = 0
  Multiplicity = 1
  Basis Set: AUG-CC-PVTZ
    Blend: AUG-CC-PVTZ
  Basis Set: (AUG-CC-PVTZ AUX)
    Blend: AUG-CC-PVTZ-JKFIT

    Orbital Energies [Eh]
    ---------------------

    Doubly Occupied:

       1A    -20.523091     2A    -15.636544     3A    -15.585538
       4A    -15.564782     5A    -11.362870     6A    -11.306626
       7A    -11.273918     8A    -11.272137     9A    -11.258741
      10A    -11.256033    11A     -1.381610    12A     -1.342998
      13A     -1.234974    14A     -1.188796    15A     -1.036252
      16A     -0.978034    17A     -0.951005    18A     -0.841256
      19A     -0.814156    20A     -0.773422    21A     -0.733449
      22A     -0.659160    23A     -0.654438    24A     -0.646749
      25A     -0.619244    26A     -0.605686    27A     -0.596788
      28A     -0.584059    29A     -0.560479    30A     -0.559648
      31A     -0.546153    32A     -0.529795    33A     -0.458356
      34A     -0.434371    35A     -0.397923    36A     -0.388440
      37A     -0.325330

  @DF-RHF Final Energy:  -470.83450078288098

   => Energetics <=

    Nuclear Repulsion Energy =            526.7481546404150095
    One-Electron Energy =               -1685.3996100799486157
    Two-Electron Energy =                 687.8169546566524559
    Total Energy =                       -470.8345007828810367
  Basis Set: (AUG-CC-PVTZ AUX)
    Blend: AUG-CC-PVTZ-RI
    Molecular point group: c1

    Geometry (in Angstrom), charge = 0, multiplicity = 1:

       Center              X                  Y                   Z               Mass
    ------------   -----------------  -----------------  -----------------  -----------------
         O           -1.264893746045     1.546010887361     0.000002814578    15.994914619570
         N            1.447389253955     0.512183887361    -0.000007185422    14.003074004430
         N            0.588655253955    -1.557886112639     0.000009814578    14.003074004430
         N           -2.015146746045    -0.635029112639    -0.000001185422    14.003074004430
         C            0.309275253955    -0.247375112639     0.000009814578    12.000000000000
         C            2.520069953955    -0.376006312639    -0.000010185422    12.000000000000
         C            1.554439253955     1.969997887361     0.000001814578    12.000000000000
         C           -1.054996746045     0.322031887361     0.000001814578    12.000000000000
         C            1.952381253955    -1.630286112639    -0.000000185422    12.000000000000
         C           -3.426991746045    -0.316138112639    -0.000006185422    12.000000000000
         H            3.528059253955    -0.014743112639    -0.000012185422     1.007825032230
         H            1.067578253955     2.378722887361    -0.883911185422     1.007825032230
         H            1.067623253955     2.378708887361     0.883947814578     1.007825032230
         H            2.615619253955     2.222126887361    -0.000022185422     1.007825032230
         H            2.469971253955    -2.580614112639    -0.000005185422     1.007825032230
         H           -1.689895746045    -1.596478112639    -0.000001185422     1.007825032230
         H           -3.919273746045    -0.717169112639     0.890801814578     1.007825032230
         H           -3.919267746045    -0.717172112639    -0.890816185422     1.007825032230
         H           -3.513363746045     0.770402887361    -0.000009185422     1.007825032230

  Basis Set: AUG-CC-PVTZ
    Blend: AUG-CC-PVTZ
  Basis Set: (AUG-CC-PVTZ AUX)
    Blend: AUG-CC-PVTZ-JKFIT
	 Reference Energy          =    -470.8345007828809798 [Eh]
	 Singles Energy            =      -0.0000000000000000 [Eh]
	 Same-Spin Energy          =      -0.4992117104325801 [Eh]
	 Opposite-Spin Energy      =      -1.5372905657418308 [Eh]
	 Correlation Energy        =      -2.0365022761744109 [Eh]
	 Total Energy              =    -472.8710030590553970 [Eh]

	 ================> DF-SCS-MP2 Energies <==================
	-----------------------------------------------------------
	 SCS Same-Spin Scale       =       0.3333333333333333 [-]
	 SCS Opposite-Spin Scale   =       1.2000000000000000 [-]
	 SCS Same-Spin Energy      =      -0.1664039034775267 [Eh]
	 SCS Opposite-Spin Energy  =      -1.8447486788901968 [Eh]
	 SCS Correlation Energy    =      -2.0111525823677234 [Eh]
	 SCS Total Energy          =    -472.8456533652487224 [Eh]
	-----------------------------------------------------------

  Dipole Moment: [D]
     X:     1.3742      Y:    -0.0056      Z:    -0.0000     Total:     1.3742

*** Psi4 exiting successfully. Buy a developer a beer!
