                               Psi4 1.3.2 release

  ==> Input File <==

--------------------------------------------------------------------------
#psi4
#
memory 32 gb

molecule  {
0 1
  O       -1.2482290     1.5306510     0.0000030
  N        1.4640540     0.4968240    -0.0000070
  N        0.6508860    -1.5626975     0.0000103
  N       -1.9984820    -0.6503890    -0.0000010
  C        0.3259400    -0.2627350     0.0000100
  C        2.5213300    -0.3786110    -0.0000100
  C        1.5711040     1.9546380     0.0000020
  C       -1.0383320     0.3066720     0.0000020
  C        1.9690460    -1.6456460     0.0000000
  C       -3.4103270    -0.3314980    -0.0000060
  H        3.5447240    -0.0301030    -0.0000120
  H        1.0842430     2.3633630    -0.8839110
  H        1.0842880     2.3633490     0.8839480
  H        2.6322840     2.2067670    -0.0000220
  H        2.4866360    -2.5959740    -0.0000050
  H       -1.6732310    -1.6118380    -0.0000010
  H       -3.9026090    -0.7325290     0.8908020
  H       -3.9026030    -0.7325320    -0.8908160
  H       -3.4966990     0.7550430    -0.0000090
units angstrom
no_reorient  #important for SAPT in psi4, default
symmetry c1  #important for SAPT in psi4, default
}

set PROPERTIES_ORIGIN ["COM"]
properties('MP2/aug-cc-pvtz', properties = ['dipole'])
--------------------------------------------------------------------------

    Molecular point group: c1
  Charge       = 0
  Multiplicity = 1
  Basis Set: AUG-CC-PVTZ
    Blend: AUG-CC-PVTZ
  Basis Set: (AUG-CC-PVTZ AUX)
    Blend: AUG-CC-PVTZ-JKFIT

    Orbital Energies [Eh]
    ---------------------

    Doubly Occupied:

       1A    -20.521985     2A    -15.639077     3A    -15.585264
       4A    -15.559756     5A    -11.362835     6A    -11.301845
       7A    -11.274429     8A    -11.270278     9A    -11.258531
      10A    -11.250996    11A     -1.382294    12A     -1.350518
      13A     -1.234587    14A     -1.197077    15A     -1.035300
      16A     -0.980871    17A     -0.951189    18A     -0.840201
      19A     -0.814530    20A     -0.774381    21A     -0.737178
      22A     -0.661316    23A     -0.656700    24A     -0.645923
      25A     -0.619286    26A     -0.608325    27A     -0.596813
      28A     -0.584375    29A     -0.565516    30A     -0.561805
      31A     -0.545659    32A     -0.531045    33A     -0.451269
      34A     -0.433151    35A     -0.401246    36A     -0.390906
      37A     -0.320077

  @DF-RHF Final Energy:  -470.83466755808450

   => Energetics <=

    Nuclear Repulsion Energy =            527.7697249247574973
    One-Electron Energy =               -1687.4157089193727188
    Two-Electron Energy =                 688.8113164365306602
    Total Energy =                       -470.8346675580844476
  Basis Set: (AUG-CC-PVTZ AUX)
    Blend: AUG-CC-PVTZ-RI
    Molecular point group: c1

    Geometry (in Angstrom), charge = 0, multiplicity = 1:

       Center              X                  Y                   Z               Mass
    ------------   -----------------  -----------------  -----------------  -----------------
         O           -1.268152484839     1.543848206983     0.000002784372    15.994914619570
         N            1.444130515161     0.510021206983    -0.000007215628    14.003074004430
         N            0.630962515161    -1.549500293017     0.000010084372    14.003074004430
         N           -2.018405484839    -0.637191793017    -0.000001215628    14.003074004430
         C            0.306016515161    -0.249537793017     0.000009784372    12.000000000000
         C            2.501406515161    -0.365413793017    -0.000010215628    12.000000000000
         C            1.551180515161     1.967835206983     0.000001784372    12.000000000000
         C           -1.058255484839     0.319869206983     0.000001784372    12.000000000000
         C            1.949122515161    -1.632448793017    -0.000000215628    12.000000000000
         C           -3.430250484839    -0.318300793017    -0.000006215628    12.000000000000
         H            3.524800515161    -0.016905793017    -0.000012215628     1.007825032230
         H            1.064319515161     2.376560206983    -0.883911215628     1.007825032230
         H            1.064364515161     2.376546206983     0.883947784372     1.007825032230
         H            2.612360515161     2.219964206983    -0.000022215628     1.007825032230
         H            2.466712515161    -2.582776793017    -0.000005215628     1.007825032230
         H           -1.693154484839    -1.598640793017    -0.000001215628     1.007825032230
         H           -3.922532484839    -0.719331793017     0.890801784372     1.007825032230
         H           -3.922526484839    -0.719334793017    -0.890816215628     1.007825032230
         H           -3.516622484839     0.768240206983    -0.000009215628     1.007825032230

  Basis Set: AUG-CC-PVTZ
    Blend: AUG-CC-PVTZ
  Basis Set: (AUG-CC-PVTZ AUX)
    Blend: AUG-CC-PVTZ-JKFIT
	 Reference Energy          =    -470.8346675580845044 [Eh]
	 Singles Energy            =      -0.0000000000000000 [Eh]
	 Same-Spin Energy          =      -0.4995031389860752 [Eh]
	 Opposite-Spin Energy      =      -1.5362324685389450 [Eh]
	 Correlation Energy        =      -2.0357356075250204 [Eh]
	 Total Energy              =    -472.8704031656095026 [Eh]

	 ================> DF-SCS-MP2 Energies <==================
	-----------------------------------------------------------
	 SCS Same-Spin Scale       =       0.3333333333333333 [-]
	 SCS Opposite-Spin Scale   =       1.2000000000000000 [-]
	 SCS Same-Spin Energy      =      -0.1665010463286917 [Eh]
	 SCS Opposite-Spin Energy  =      -1.8434789622467340 [Eh]
	 SCS Correlation Energy    =      -2.0099800085754258 [Eh]
	 SCS Total Energy          =    -472.8446475666599440 [Eh]
	-----------------------------------------------------------

  Dipole Moment: [D]
     X:     1.3182      Y:    -0.0386      Z:    -0.0000     Total:     1.3188

*** Psi4 exiting successfully. Buy a developer a beer!
