                               Psi4 1.3.2 release

  ==> Input File <==

--------------------------------------------------------------------------
#psi4
#
memory 32 gb

molecule  {
0 1
  O       -1.2482290     1.5306510     0.0000030
  N        1.4640540     0.4968240    -0.0000070
  N        0.6053200    -1.5732460     0.0000100
  N       -1.9984820    -0.6503890    -0.0000010
  C        0.1904848    -0.2991173     0.0000111
  C        2.5213300    -0.3786110    -0.0000100
  C        1.5711040     1.9546380     0.0000020
  C       -1.0383320     0.3066720     0.0000020
  C        1.9690460    -1.6456460     0.0000000
  C       -3.4103270    -0.3314980    -0.0000060
  H        3.5447240    -0.0301030    -0.0000120
  H        1.0842430     2.3633630    -0.8839110
  H        1.0842880     2.3633490     0.8839480
  H        2.6322840     2.2067670    -0.0000220
  H        2.4866360    -2.5959740    -0.0000050
  H       -1.6732310    -1.6118380    -0.0000010
  H       -3.9026090    -0.7325290     0.8908020
  H       -3.9026030    -0.7325320    -0.8908160
  H       -3.4966990     0.7550430    -0.0000090
units angstrom
no_reorient  #important for SAPT in psi4, default
symmetry c1  #important for SAPT in psi4, default
}

set PROPERTIES_ORIGIN ["COM"]
properties('MP2/aug-cc-pvtz', properties = ['dipole'])
--------------------------------------------------------------------------

    Molecular point group: c1
  Charge       = 0
  Multiplicity = 1
  Basis Set: AUG-CC-PVTZ
    Blend: AUG-CC-PVTZ
  Basis Set: (AUG-CC-PVTZ AUX)
    Blend: AUG-CC-PVTZ-JKFIT

    Orbital Energies [Eh]
    ---------------------

    Doubly Occupied:

       1A    -20.520375     2A    -15.634155     3A    -15.581478
       4A    -15.579973     5A    -11.354210     6A    -11.306953
       7A    -11.286637     8A    -11.267828     9A    -11.257951
      10A    -11.256323    11A     -1.380453    12A     -1.323931
      13A     -1.236930    14A     -1.184304    15A     -1.049929
      16A     -0.980821    17A     -0.939227    18A     -0.861578
      19A     -0.803848    20A     -0.772815    21A     -0.729051
      22A     -0.667258    23A     -0.648666    24A     -0.646902
      25A     -0.616598    26A     -0.606837    27A     -0.599445
      28A     -0.573632    29A     -0.559399    30A     -0.559272
      31A     -0.544360    32A     -0.525988    33A     -0.452669
      34A     -0.434693    35A     -0.399824    36A     -0.387536
      37A     -0.320149

  @DF-RHF Final Energy:  -470.80185147145539

   => Energetics <=

    Nuclear Repulsion Energy =            526.6519787617975226
    One-Electron Energy =               -1685.2036697728633499
    Two-Electron Energy =                 687.7498395396105479
    Total Energy =                       -470.8018514714553930
  Basis Set: (AUG-CC-PVTZ AUX)
    Blend: AUG-CC-PVTZ-RI
    Molecular point group: c1

    Geometry (in Angstrom), charge = 0, multiplicity = 1:

       Center              X                  Y                   Z               Mass
    ------------   -----------------  -----------------  -----------------  -----------------
         O           -1.251876852266     1.548049543432     0.000002719665    15.994914619570
         N            1.460406147734     0.514222543432    -0.000007280335    14.003074004430
         N            0.601672147734    -1.555847456568     0.000009719665    14.003074004430
         N           -2.002129852266    -0.632990456568    -0.000001280335    14.003074004430
         C            0.186836947734    -0.281718756568     0.000010819665    12.000000000000
         C            2.517682147734    -0.361212456568    -0.000010280335    12.000000000000
         C            1.567456147734     1.972036543432     0.000001719665    12.000000000000
         C           -1.041979852266     0.324070543432     0.000001719665    12.000000000000
         C            1.965398147734    -1.628247456568    -0.000000280335    12.000000000000
         C           -3.413974852266    -0.314099456568    -0.000006280335    12.000000000000
         H            3.541076147734    -0.012704456568    -0.000012280335     1.007825032230
         H            1.080595147734     2.380761543432    -0.883911280335     1.007825032230
         H            1.080640147734     2.380747543432     0.883947719665     1.007825032230
         H            2.628636147734     2.224165543432    -0.000022280335     1.007825032230
         H            2.482988147734    -2.578575456568    -0.000005280335     1.007825032230
         H           -1.676878852266    -1.594439456568    -0.000001280335     1.007825032230
         H           -3.906256852266    -0.715130456568     0.890801719665     1.007825032230
         H           -3.906250852266    -0.715133456568    -0.890816280335     1.007825032230
         H           -3.500346852266     0.772441543432    -0.000009280335     1.007825032230

  Basis Set: AUG-CC-PVTZ
    Blend: AUG-CC-PVTZ
  Basis Set: (AUG-CC-PVTZ AUX)
    Blend: AUG-CC-PVTZ-JKFIT
	 Reference Energy          =    -470.8018514714553930 [Eh]
	 Singles Energy            =      -0.0000000000000000 [Eh]
	 Same-Spin Energy          =      -0.5027516314164527 [Eh]
	 Opposite-Spin Energy      =      -1.5429545442658794 [Eh]
	 Correlation Energy        =      -2.0457061756823323 [Eh]
	 Total Energy              =    -472.8475576471377053 [Eh]

	 ================> DF-SCS-MP2 Energies <==================
	-----------------------------------------------------------
	 SCS Same-Spin Scale       =       0.3333333333333333 [-]
	 SCS Opposite-Spin Scale   =       1.2000000000000000 [-]
	 SCS Same-Spin Energy      =      -0.1675838771388176 [Eh]
	 SCS Opposite-Spin Energy  =      -1.8515454531190552 [Eh]
	 SCS Correlation Energy    =      -2.0191293302578726 [Eh]
	 SCS Total Energy          =    -472.8209808017132900 [Eh]
	-----------------------------------------------------------

  Dipole Moment: [D]
     X:     1.5580      Y:    -0.2311      Z:    -0.0000     Total:     1.5751

*** Psi4 exiting successfully. Buy a developer a beer!
