                               Psi4 1.4a3.dev225

  ==> Input File <==

--------------------------------------------------------------------------
#psi4
#
memory 32 gb

molecule  {
0 1
  O       -1.2482290     1.5306510     0.0000030
  N        1.4640540     0.4968240    -0.0000070
  N        0.6053200    -1.5732460     0.0000100
  N       -1.9984820    -0.6503890    -0.0000010
  C        0.3259400    -0.2627350     0.0000100
  C        2.5213300    -0.3786110    -0.0000100
  C        1.5711040     1.9546380     0.0000020
  C       -1.0383320     0.3066720     0.0000020
  C        1.9690460    -1.6456460     0.0000000
  C       -3.4103270    -0.3314980    -0.0000060
  H        3.5447240    -0.0301030    -0.0000120
  H        1.0842430     2.3633630    -0.8839110
  H        1.0842880     2.3633490     0.8839480
  H        2.6322840     2.2067670    -0.0000220
  H        2.4627208    -2.5520643    -0.0000048
  H       -1.6732310    -1.6118380    -0.0000010
  H       -3.9026090    -0.7325290     0.8908020
  H       -3.9026030    -0.7325320    -0.8908160
  H       -3.4966990     0.7550430    -0.0000090
units angstrom
no_reorient  #important for SAPT in psi4, default
symmetry c1  #important for SAPT in psi4, default
}

set PROPERTIES_ORIGIN ["COM"]
properties('MP2/aug-cc-pvtz', properties = ['dipole'])
--------------------------------------------------------------------------

    Molecular point group: c1
  Charge       = 0
  Multiplicity = 1
  Basis Set: AUG-CC-PVTZ
    Blend: AUG-CC-PVTZ
  Basis Set: (AUG-CC-PVTZ AUX)
    Blend: AUG-CC-PVTZ-JKFIT

    Orbital Energies [Eh]
    ---------------------

    Doubly Occupied:

       1A    -20.522175     2A    -15.637618     3A    -15.584702
       4A    -15.565090     5A    -11.362021     6A    -11.304585
       7A    -11.274777     8A    -11.272250     9A    -11.258246
      10A    -11.249636    11A     -1.381537    12A     -1.346165
      13A     -1.234499    14A     -1.190648    15A     -1.036506
      16A     -0.979375    17A     -0.951068    18A     -0.843105
      19A     -0.817467    20A     -0.772807    21A     -0.736277
      22A     -0.659999    23A     -0.656102    24A     -0.646439
      25A     -0.619057    26A     -0.610374    27A     -0.595817
      28A     -0.584092    29A     -0.565547    30A     -0.560000
      31A     -0.545634    32A     -0.529836    33A     -0.458263
      34A     -0.433684    35A     -0.399004    36A     -0.388710
      37A     -0.323002

  @DF-RHF Final Energy:  -470.83443295728347

   => Energetics <=

    Nuclear Repulsion Energy =            527.4081808055443616
    One-Electron Energy =               -1686.6929953866233518
    Two-Electron Energy =                 688.4503816237955789
    Total Energy =                       -470.8344329572834113
  Basis Set: (AUG-CC-PVTZ AUX)
    Blend: AUG-CC-PVTZ-RI
    Molecular point group: c1

    Geometry (in Angstrom), charge = 0, multiplicity = 1:

       Center              X                  Y                   Z               Mass
    ------------   -----------------  -----------------  -----------------  -----------------
         O           -1.263391251741     1.544592111043     0.000002813129    15.994914619570
         N            1.448891748259     0.510765111043    -0.000007186871    14.003074004430
         N            0.590157748259    -1.559304888957     0.000009813129    14.003074004430
         N           -2.013644251741    -0.636447888957    -0.000001186871    14.003074004430
         C            0.310777748259    -0.248793888957     0.000009813129    12.000000000000
         C            2.506167748259    -0.364669888957    -0.000010186871    12.000000000000
         C            1.555941748259     1.968579111043     0.000001813129    12.000000000000
         C           -1.053494251741     0.320613111043     0.000001813129    12.000000000000
         C            1.953883748259    -1.631704888957    -0.000000186871    12.000000000000
         C           -3.425489251741    -0.317556888957    -0.000006186871    12.000000000000
         H            3.529561748259    -0.016161888957    -0.000012186871     1.007825032230
         H            1.069080748259     2.377304111043    -0.883911186871     1.007825032230
         H            1.069125748259     2.377290111043     0.883947813129     1.007825032230
         H            2.617121748259     2.220708111043    -0.000022186871     1.007825032230
         H            2.447558548259    -2.538123188957    -0.000004986871     1.007825032230
         H           -1.688393251741    -1.597896888957    -0.000001186871     1.007825032230
         H           -3.917771251741    -0.718587888957     0.890801813129     1.007825032230
         H           -3.917765251741    -0.718590888957    -0.890816186871     1.007825032230
         H           -3.511861251741     0.768984111043    -0.000009186871     1.007825032230

  Basis Set: AUG-CC-PVTZ
    Blend: AUG-CC-PVTZ
  Basis Set: (AUG-CC-PVTZ AUX)
    Blend: AUG-CC-PVTZ-JKFIT
	 Reference Energy          =    -470.8344329572834681 [Eh]
	 Singles Energy            =      -0.0000000000000000 [Eh]
	 Same-Spin Energy          =      -0.4992348103900876 [Eh]
	 Opposite-Spin Energy      =      -1.5367766833005347 [Eh]
	 Correlation Energy        =      -2.0360114936906224 [Eh]
	 Total Energy              =    -472.8704444509741052 [Eh]

	 ================> DF-SCS-MP2 Energies <==================
	-----------------------------------------------------------
	 SCS Same-Spin Scale       =       0.3333333333333333 [-]
	 SCS Opposite-Spin Scale   =       1.2000000000000000 [-]
	 SCS Same-Spin Energy      =      -0.1664116034633625 [Eh]
	 SCS Opposite-Spin Energy  =      -1.8441320199606417 [Eh]
	 SCS Correlation Energy    =      -2.0105436234240042 [Eh]
	 SCS Total Energy          =    -472.8449765807074527 [Eh]
	-----------------------------------------------------------

  Dipole Moment: [D]
     X:     1.4047      Y:     0.0124      Z:    -0.0000     Total:     1.4048

*** Psi4 exiting successfully. Buy a developer a beer!
