                               Psi4 1.3.2 release

  ==> Input File <==

--------------------------------------------------------------------------
#psi4
#
memory 32 gb

molecule  {
0 1
  O       -1.2482290     1.5306510     0.0000030
  N        1.4640540     0.4968240    -0.0000070
  N        0.6053200    -1.5732460     0.0000100
  N       -1.9984820    -0.6503890    -0.0000010
  C        0.3259400    -0.2627350     0.0000100
  C        2.5058905    -0.3969297    -0.0000101
  C        1.5711040     1.9546380     0.0000020
  C       -1.0383320     0.3066720     0.0000020
  C        1.9690460    -1.6456460     0.0000000
  C       -3.4103270    -0.3314980    -0.0000060
  H        3.5447240    -0.0301030    -0.0000120
  H        1.0842430     2.3633630    -0.8839110
  H        1.0842880     2.3633490     0.8839480
  H        2.6322840     2.2067670    -0.0000220
  H        2.4866360    -2.5959740    -0.0000050
  H       -1.6732310    -1.6118380    -0.0000010
  H       -3.9026090    -0.7325290     0.8908020
  H       -3.9026030    -0.7325320    -0.8908160
  H       -3.4966990     0.7550430    -0.0000090
units angstrom
no_reorient  #important for SAPT in psi4, default
symmetry c1  #important for SAPT in psi4, default
}

set PROPERTIES_ORIGIN ["COM"]
properties('MP2/aug-cc-pvtz', properties = ['dipole'])
--------------------------------------------------------------------------

    Molecular point group: c1
  Charge       = 0
  Multiplicity = 1
  Basis Set: AUG-CC-PVTZ
    Blend: AUG-CC-PVTZ
  Basis Set: (AUG-CC-PVTZ AUX)
    Blend: AUG-CC-PVTZ-JKFIT

    Orbital Energies [Eh]
    ---------------------

    Doubly Occupied:

       1A    -20.522577     2A    -15.636160     3A    -15.584848
       4A    -15.564448     5A    -11.362197     6A    -11.305131
       7A    -11.275165     8A    -11.271299     9A    -11.258338
      10A    -11.252121    11A     -1.382013    12A     -1.347392
      13A     -1.234585    14A     -1.190323    15A     -1.037863
      16A     -0.979539    17A     -0.950822    18A     -0.842617
      19A     -0.811724    20A     -0.772956    21A     -0.735379
      22A     -0.656621    23A     -0.656545    24A     -0.644978
      25A     -0.619190    26A     -0.603827    27A     -0.597720
      28A     -0.582887    29A     -0.562937    30A     -0.560751
      31A     -0.545703    32A     -0.530576    33A     -0.457593
      34A     -0.433922    35A     -0.398621    36A     -0.388675
      37A     -0.326354

  @DF-RHF Final Energy:  -470.83521583658762

   => Energetics <=

    Nuclear Repulsion Energy =            527.4896612842453578
    One-Electron Energy =               -1686.8809607786433844
    Two-Electron Energy =                 688.5560836578104045
    Total Energy =                       -470.8352158365876221
  Basis Set: (AUG-CC-PVTZ AUX)
    Blend: AUG-CC-PVTZ-RI
    Molecular point group: c1

    Geometry (in Angstrom), charge = 0, multiplicity = 1:

       Center              X                  Y                   Z               Mass
    ------------   -----------------  -----------------  -----------------  -----------------
         O           -1.262232365021     1.546490932015     0.000002823207    15.994914619570
         N            1.450050634979     0.512663932015    -0.000007176793    14.003074004430
         N            0.591316634979    -1.557406067985     0.000009823207    14.003074004430
         N           -2.012485365021    -0.634549067985    -0.000001176793    14.003074004430
         C            0.311936634979    -0.246895067985     0.000009823207    12.000000000000
         C            2.491887134979    -0.381089767985    -0.000010276793    12.000000000000
         C            1.557100634979     1.970477932015     0.000001823207    12.000000000000
         C           -1.052335365021     0.322511932015     0.000001823207    12.000000000000
         C            1.955042634979    -1.629806067985    -0.000000176793    12.000000000000
         C           -3.424330365021    -0.315658067985    -0.000006176793    12.000000000000
         H            3.530720634979    -0.014263067985    -0.000012176793     1.007825032230
         H            1.070239634979     2.379202932015    -0.883911176793     1.007825032230
         H            1.070284634979     2.379188932015     0.883947823207     1.007825032230
         H            2.618280634979     2.222606932015    -0.000022176793     1.007825032230
         H            2.472632634979    -2.580134067985    -0.000005176793     1.007825032230
         H           -1.687234365021    -1.595998067985    -0.000001176793     1.007825032230
         H           -3.916612365021    -0.716689067985     0.890801823207     1.007825032230
         H           -3.916606365021    -0.716692067985    -0.890816176793     1.007825032230
         H           -3.510702365021     0.770882932015    -0.000009176793     1.007825032230

  Basis Set: AUG-CC-PVTZ
    Blend: AUG-CC-PVTZ
  Basis Set: (AUG-CC-PVTZ AUX)
    Blend: AUG-CC-PVTZ-JKFIT
	 Reference Energy          =    -470.8352158365876221 [Eh]
	 Singles Energy            =      -0.0000000000000000 [Eh]
	 Same-Spin Energy          =      -0.4990434865519355 [Eh]
	 Opposite-Spin Energy      =      -1.5366103679196328 [Eh]
	 Correlation Energy        =      -2.0356538544715681 [Eh]
	 Total Energy              =    -472.8708696910591698 [Eh]

	 ================> DF-SCS-MP2 Energies <==================
	-----------------------------------------------------------
	 SCS Same-Spin Scale       =       0.3333333333333333 [-]
	 SCS Opposite-Spin Scale   =       1.2000000000000000 [-]
	 SCS Same-Spin Energy      =      -0.1663478288506451 [Eh]
	 SCS Opposite-Spin Energy  =      -1.8439324415035592 [Eh]
	 SCS Correlation Energy    =      -2.0102802703542042 [Eh]
	 SCS Total Energy          =    -472.8454961069418232 [Eh]
	-----------------------------------------------------------

  Dipole Moment: [D]
     X:     1.3890      Y:     0.0104      Z:    -0.0000     Total:     1.3891

*** Psi4 exiting successfully. Buy a developer a beer!
