                               Psi4 1.3.2 release

  ==> Input File <==

--------------------------------------------------------------------------
#psi4
#
memory 32 gb

molecule  {
0 1
  O       -1.2482290     1.5306510     0.0000030
  N        1.4640540     0.4968240    -0.0000070
  N        0.6053200    -1.5732460     0.0000100
  N       -2.0629043    -0.5810810    -0.0000015
  C        0.3259400    -0.2627350     0.0000100
  C        2.5213300    -0.3786110    -0.0000100
  C        1.5711040     1.9546380     0.0000020
  C       -1.0383320     0.3066720     0.0000020
  C        1.9690460    -1.6456460     0.0000000
  C       -3.4103270    -0.3314980    -0.0000060
  H        3.5447240    -0.0301030    -0.0000120
  H        1.0842430     2.3633630    -0.8839110
  H        1.0842880     2.3633490     0.8839480
  H        2.6322840     2.2067670    -0.0000220
  H        2.4866360    -2.5959740    -0.0000050
  H       -1.6732310    -1.6118380    -0.0000010
  H       -3.9026090    -0.7325290     0.8908020
  H       -3.9026030    -0.7325320    -0.8908160
  H       -3.4966990     0.7550430    -0.0000090
units angstrom
no_reorient  #important for SAPT in psi4, default
symmetry c1  #important for SAPT in psi4, default
}

set PROPERTIES_ORIGIN ["COM"]
properties('MP2/aug-cc-pvtz', properties = ['dipole'])
--------------------------------------------------------------------------

    Molecular point group: c1
  Charge       = 0
  Multiplicity = 1
  Basis Set: AUG-CC-PVTZ
    Blend: AUG-CC-PVTZ
  Basis Set: (AUG-CC-PVTZ AUX)
    Blend: AUG-CC-PVTZ-JKFIT

    Orbital Energies [Eh]
    ---------------------

    Doubly Occupied:

       1A    -20.518365     2A    -15.640882     3A    -15.587180
       4A    -15.568874     5A    -11.362189     6A    -11.309460
       7A    -11.276039     8A    -11.275347     9A    -11.257675
      10A    -11.251148    11A     -1.382866    12A     -1.348945
      13A     -1.238435    14A     -1.194381    15A     -1.040484
      16A     -0.982545    17A     -0.954986    18A     -0.838391
      19A     -0.815878    20A     -0.758236    21A     -0.735381
      22A     -0.665262    23A     -0.658702    24A     -0.650944
      25A     -0.626939    26A     -0.611367    27A     -0.597353
      28A     -0.588517    29A     -0.565028    30A     -0.561270
      31A     -0.527990    32A     -0.527320    33A     -0.460066
      34A     -0.432520    35A     -0.399341    36A     -0.382669
      37A     -0.325804

  @DF-RHF Final Energy:  -470.82070816149570

   => Energetics <=

    Nuclear Repulsion Energy =            527.3634969174557909
    One-Electron Energy =               -1686.5308455227673221
    Two-Electron Energy =                 688.3466404438157724
    Total Energy =                       -470.8207081614956451
  Basis Set: (AUG-CC-PVTZ AUX)
    Blend: AUG-CC-PVTZ-RI
    Molecular point group: c1

    Geometry (in Angstrom), charge = 0, multiplicity = 1:

       Center              X                  Y                   Z               Mass
    ------------   -----------------  -----------------  -----------------  -----------------
         O           -1.257078034679     1.537931858115     0.000002864922    15.994914619570
         N            1.455204965321     0.504104858115    -0.000007135078    14.003074004430
         N            0.596470965321    -1.565965141885     0.000009864922    14.003074004430
         N           -2.071753334679    -0.573800141885    -0.000001635078    14.003074004430
         C            0.317090965321    -0.255454141885     0.000009864922    12.000000000000
         C            2.512480965321    -0.371330141885    -0.000010135078    12.000000000000
         C            1.562254965321     1.961918858115     0.000001864922    12.000000000000
         C           -1.047181034679     0.313952858115     0.000001864922    12.000000000000
         C            1.960196965321    -1.638365141885    -0.000000135078    12.000000000000
         C           -3.419176034679    -0.324217141885    -0.000006135078    12.000000000000
         H            3.535874965321    -0.022822141885    -0.000012135078     1.007825032230
         H            1.075393965321     2.370643858115    -0.883911135078     1.007825032230
         H            1.075438965321     2.370629858115     0.883947864922     1.007825032230
         H            2.623434965321     2.214047858115    -0.000022135078     1.007825032230
         H            2.477786965321    -2.588693141885    -0.000005135078     1.007825032230
         H           -1.682080034679    -1.604557141885    -0.000001135078     1.007825032230
         H           -3.911458034679    -0.725248141885     0.890801864922     1.007825032230
         H           -3.911452034679    -0.725251141885    -0.890816135078     1.007825032230
         H           -3.505548034679     0.762323858115    -0.000009135078     1.007825032230

  Basis Set: AUG-CC-PVTZ
    Blend: AUG-CC-PVTZ
  Basis Set: (AUG-CC-PVTZ AUX)
    Blend: AUG-CC-PVTZ-JKFIT
	 Reference Energy          =    -470.8207081614957019 [Eh]
	 Singles Energy            =      -0.0000000000000000 [Eh]
	 Same-Spin Energy          =      -0.5005277792466511 [Eh]
	 Opposite-Spin Energy      =      -1.5387326695048595 [Eh]
	 Correlation Energy        =      -2.0392604487515107 [Eh]
	 Total Energy              =    -472.8599686102472219 [Eh]

	 ================> DF-SCS-MP2 Energies <==================
	-----------------------------------------------------------
	 SCS Same-Spin Scale       =       0.3333333333333333 [-]
	 SCS Opposite-Spin Scale   =       1.2000000000000000 [-]
	 SCS Same-Spin Energy      =      -0.1668425930822170 [Eh]
	 SCS Opposite-Spin Energy  =      -1.8464792034058313 [Eh]
	 SCS Correlation Energy    =      -2.0133217964880483 [Eh]
	 SCS Total Energy          =    -472.8340299579837733 [Eh]
	-----------------------------------------------------------

  Dipole Moment: [D]
     X:     1.6719      Y:    -0.0744      Z:    -0.0000     Total:     1.6736

*** Psi4 exiting successfully. Buy a developer a beer!
