                               Psi4 1.3.2 release

  ==> Input File <==

--------------------------------------------------------------------------
#psi4
#
memory 32 gb

molecule  {
0 1
  O       -1.2482290     1.5306510     0.0000030
  N        1.4640540     0.4968240    -0.0000070
  N        0.6053200    -1.5732460     0.0000100
  N       -1.9984820    -0.6503890    -0.0000010
  C        0.3259400    -0.2627350     0.0000100
  C        2.5213300    -0.3786110    -0.0000100
  C        1.5711040     1.9546380     0.0000020
  C       -1.0383320     0.3066720     0.0000020
  C        1.7693273    -1.6350430     0.0000015
  C       -3.4103270    -0.3314980    -0.0000060
  H        3.5447240    -0.0301030    -0.0000120
  H        1.0842430     2.3633630    -0.8839110
  H        1.0842880     2.3633490     0.8839480
  H        2.6322840     2.2067670    -0.0000220
  H        2.4866360    -2.5959740    -0.0000050
  H       -1.6732310    -1.6118380    -0.0000010
  H       -3.9026090    -0.7325290     0.8908020
  H       -3.9026030    -0.7325320    -0.8908160
  H       -3.4966990     0.7550430    -0.0000090
units angstrom
no_reorient  #important for SAPT in psi4, default
symmetry c1  #important for SAPT in psi4, default
}

set PROPERTIES_ORIGIN ["COM"]
properties('MP2/aug-cc-pvtz', properties = ['dipole'])
--------------------------------------------------------------------------

    Molecular point group: c1
  Charge       = 0
  Multiplicity = 1
  Basis Set: AUG-CC-PVTZ
    Blend: AUG-CC-PVTZ
  Basis Set: (AUG-CC-PVTZ AUX)
    Blend: AUG-CC-PVTZ-JKFIT

    Orbital Energies [Eh]
    ---------------------

    Doubly Occupied:

       1A    -20.514886     2A    -15.655693     3A    -15.581123
       4A    -15.557327     5A    -11.356578     6A    -11.295829
       7A    -11.278585     8A    -11.272636     9A    -11.261023
      10A    -11.256191    11A     -1.395008    12A     -1.362828
      13A     -1.249890    14A     -1.225643    15A     -1.025113
      16A     -0.996623    17A     -0.944702    18A     -0.832502
      19A     -0.811987    20A     -0.775602    21A     -0.746805
      22A     -0.664076    23A     -0.659125    24A     -0.646441
      25A     -0.619357    26A     -0.617156    27A     -0.589822
      28A     -0.577959    29A     -0.577089    30A     -0.566644
      31A     -0.541771    32A     -0.530474    33A     -0.436994
      34A     -0.432796    35A     -0.430404    36A     -0.389819
      37A     -0.299826

  @DF-RHF Final Energy:  -470.77527049941727

   => Energetics <=

    Nuclear Repulsion Energy =            530.7150854617683535
    One-Electron Energy =               -1693.0280608113387188
    Two-Electron Energy =                 691.5377048501532045
    Total Energy =                       -470.7752704994172746
  Basis Set: (AUG-CC-PVTZ AUX)
    Blend: AUG-CC-PVTZ-RI
    Molecular point group: c1

    Geometry (in Angstrom), charge = 0, multiplicity = 1:

       Center              X                  Y                   Z               Mass
    ------------   -----------------  -----------------  -----------------  -----------------
         O           -1.246331898614     1.543995433232     0.000002685151    15.994914619570
         N            1.465951101386     0.510168433232    -0.000007314849    14.003074004430
         N            0.607217101386    -1.559901566768     0.000009685151    14.003074004430
         N           -1.996584898614    -0.637044566768    -0.000001314849    14.003074004430
         C            0.327837101386    -0.249390566768     0.000009685151    12.000000000000
         C            2.523227101386    -0.365266566768    -0.000010314849    12.000000000000
         C            1.573001101386     1.967982433232     0.000001685151    12.000000000000
         C           -1.036434898614     0.320016433232     0.000001685151    12.000000000000
         C            1.771224401386    -1.621698566768     0.000001185151    12.000000000000
         C           -3.408429898614    -0.318153566768    -0.000006314849    12.000000000000
         H            3.546621101386    -0.016758566768    -0.000012314849     1.007825032230
         H            1.086140101386     2.376707433232    -0.883911314849     1.007825032230
         H            1.086185101386     2.376693433232     0.883947685151     1.007825032230
         H            2.634181101386     2.220111433232    -0.000022314849     1.007825032230
         H            2.488533101386    -2.582629566768    -0.000005314849     1.007825032230
         H           -1.671333898614    -1.598493566768    -0.000001314849     1.007825032230
         H           -3.900711898614    -0.719184566768     0.890801685151     1.007825032230
         H           -3.900705898614    -0.719187566768    -0.890816314849     1.007825032230
         H           -3.494801898614     0.768387433232    -0.000009314849     1.007825032230

  Basis Set: AUG-CC-PVTZ
    Blend: AUG-CC-PVTZ
  Basis Set: (AUG-CC-PVTZ AUX)
    Blend: AUG-CC-PVTZ-JKFIT
	 Reference Energy          =    -470.7752704994172746 [Eh]
	 Singles Energy            =      -0.0000000000000000 [Eh]
	 Same-Spin Energy          =      -0.5014363324612194 [Eh]
	 Opposite-Spin Energy      =      -1.5383060686002448 [Eh]
	 Correlation Energy        =      -2.0397424010614644 [Eh]
	 Total Energy              =    -472.8150129004787345 [Eh]

	 ================> DF-SCS-MP2 Energies <==================
	-----------------------------------------------------------
	 SCS Same-Spin Scale       =       0.3333333333333333 [-]
	 SCS Opposite-Spin Scale   =       1.2000000000000000 [-]
	 SCS Same-Spin Energy      =      -0.1671454441537398 [Eh]
	 SCS Opposite-Spin Energy  =      -1.8459672823202937 [Eh]
	 SCS Correlation Energy    =      -2.0131127264740334 [Eh]
	 SCS Total Energy          =    -472.7883832258913230 [Eh]
	-----------------------------------------------------------

  Dipole Moment: [D]
     X:     1.3139      Y:    -0.0376      Z:    -0.0000     Total:     1.3144

*** Psi4 exiting successfully. Buy a developer a beer!
