                               Psi4 1.3.2 release

  ==> Input File <==

--------------------------------------------------------------------------
#psi4
#
memory 32 gb

molecule  {
0 1
  O       -1.2482290     1.5306510     0.0000030
  N        1.4640540     0.4968240    -0.0000070
  N        0.5824059    -1.5779223     0.0000098
  N       -1.9984820    -0.6503890    -0.0000010
  C        0.3259400    -0.2627350     0.0000100
  C        2.5213300    -0.3786110    -0.0000100
  C        1.5711040     1.9546380     0.0000020
  C       -1.0383320     0.3066720     0.0000020
  C        1.9690460    -1.6456460     0.0000000
  C       -3.4103270    -0.3314980    -0.0000060
  H        3.5447240    -0.0301030    -0.0000120
  H        1.0842430     2.3633630    -0.8839110
  H        1.0842880     2.3633490     0.8839480
  H        2.6322840     2.2067670    -0.0000220
  H        2.4866360    -2.5959740    -0.0000050
  H       -1.6732310    -1.6118380    -0.0000010
  H       -3.9026090    -0.7325290     0.8908020
  H       -3.9026030    -0.7325320    -0.8908160
  H       -3.4966990     0.7550430    -0.0000090
units angstrom
no_reorient  #important for SAPT in psi4, default
symmetry c1  #important for SAPT in psi4, default
}

set PROPERTIES_ORIGIN ["COM"]
properties('MP2/aug-cc-pvtz', properties = ['dipole'])
--------------------------------------------------------------------------

    Molecular point group: c1
  Charge       = 0
  Multiplicity = 1
  Basis Set: AUG-CC-PVTZ
    Blend: AUG-CC-PVTZ
  Basis Set: (AUG-CC-PVTZ AUX)
    Blend: AUG-CC-PVTZ-JKFIT

    Orbital Energies [Eh]
    ---------------------

    Doubly Occupied:

       1A    -20.522400     2A    -15.637251     3A    -15.584517
       4A    -15.568208     5A    -11.361807     6A    -11.306385
       7A    -11.275142     8A    -11.273732     9A    -11.258175
      10A    -11.257461    11A     -1.381467    12A     -1.344580
      13A     -1.234619    14A     -1.187757    15A     -1.036163
      16A     -0.978658    17A     -0.950157    18A     -0.841204
      19A     -0.814611    20A     -0.772197    21A     -0.733406
      22A     -0.658936    23A     -0.656143    24A     -0.645617
      25A     -0.619054    26A     -0.603983    27A     -0.594963
      28A     -0.582880    29A     -0.562262    30A     -0.559488
      31A     -0.545688    32A     -0.529448    33A     -0.461219
      34A     -0.433791    35A     -0.398572    36A     -0.387640
      37A     -0.324580

  @DF-RHF Final Energy:  -470.83397886865549

   => Energetics <=

    Nuclear Repulsion Energy =            526.8388008372952527
    One-Electron Energy =               -1685.5772410632719129
    Two-Electron Energy =                 687.9044613573212246
    Total Energy =                       -470.8339788686555494
  Basis Set: (AUG-CC-PVTZ AUX)
    Blend: AUG-CC-PVTZ-RI
    Molecular point group: c1

    Geometry (in Angstrom), charge = 0, multiplicity = 1:

       Center              X                  Y                   Z               Mass
    ------------   -----------------  -----------------  -----------------  -----------------
         O           -1.261257392775     1.545381154476     0.000002834716    15.994914619570
         N            1.451025607225     0.511554154476    -0.000007165284    14.003074004430
         N            0.569377507225    -1.563192145524     0.000009634716    14.003074004430
         N           -2.011510392775    -0.635658845524    -0.000001165284    14.003074004430
         C            0.312911607225    -0.248004845524     0.000009834716    12.000000000000
         C            2.508301607225    -0.363880845524    -0.000010165284    12.000000000000
         C            1.558075607225     1.969368154476     0.000001834716    12.000000000000
         C           -1.051360392775     0.321402154476     0.000001834716    12.000000000000
         C            1.956017607225    -1.630915845524    -0.000000165284    12.000000000000
         C           -3.423355392775    -0.316767845524    -0.000006165284    12.000000000000
         H            3.531695607225    -0.015372845524    -0.000012165284     1.007825032230
         H            1.071214607225     2.378093154476    -0.883911165284     1.007825032230
         H            1.071259607225     2.378079154476     0.883947834716     1.007825032230
         H            2.619255607225     2.221497154476    -0.000022165284     1.007825032230
         H            2.473607607225    -2.581243845524    -0.000005165284     1.007825032230
         H           -1.686259392775    -1.597107845524    -0.000001165284     1.007825032230
         H           -3.915637392775    -0.717798845524     0.890801834716     1.007825032230
         H           -3.915631392775    -0.717801845524    -0.890816165284     1.007825032230
         H           -3.509727392775     0.769773154476    -0.000009165284     1.007825032230

  Basis Set: AUG-CC-PVTZ
    Blend: AUG-CC-PVTZ
  Basis Set: (AUG-CC-PVTZ AUX)
    Blend: AUG-CC-PVTZ-JKFIT
	 Reference Energy          =    -470.8339788686554925 [Eh]
	 Singles Energy            =      -0.0000000000000000 [Eh]
	 Same-Spin Energy          =      -0.4992605370099651 [Eh]
	 Opposite-Spin Energy      =      -1.5375817959818590 [Eh]
	 Correlation Energy        =      -2.0368423329918239 [Eh]
	 Total Energy              =    -472.8708212016472885 [Eh]

	 ================> DF-SCS-MP2 Energies <==================
	-----------------------------------------------------------
	 SCS Same-Spin Scale       =       0.3333333333333333 [-]
	 SCS Opposite-Spin Scale   =       1.2000000000000000 [-]
	 SCS Same-Spin Energy      =      -0.1664201790033217 [Eh]
	 SCS Opposite-Spin Energy  =      -1.8450981551782306 [Eh]
	 SCS Correlation Energy    =      -2.0115183341815523 [Eh]
	 SCS Total Energy          =    -472.8454972028370662 [Eh]
	-----------------------------------------------------------

  Dipole Moment: [D]
     X:     1.4312      Y:     0.0371      Z:    -0.0000     Total:     1.4317

*** Psi4 exiting successfully. Buy a developer a beer!
