                               Psi4 1.3.2 release

  ==> Input File <==

--------------------------------------------------------------------------
#psi4
#
memory 32 gb

molecule  {
0 1
  O       -1.1623372     1.5423111     0.0000036
  N        1.4640540     0.4968240    -0.0000070
  N        0.6053200    -1.5732460     0.0000100
  N       -1.9984820    -0.6503890    -0.0000010
  C        0.3259400    -0.2627350     0.0000100
  C        2.5213300    -0.3786110    -0.0000100
  C        1.5711040     1.9546380     0.0000020
  C       -1.0383320     0.3066720     0.0000020
  C        1.9690460    -1.6456460     0.0000000
  C       -3.4103270    -0.3314980    -0.0000060
  H        3.5447240    -0.0301030    -0.0000120
  H        1.0842430     2.3633630    -0.8839110
  H        1.0842880     2.3633490     0.8839480
  H        2.6322840     2.2067670    -0.0000220
  H        2.4866360    -2.5959740    -0.0000050
  H       -1.6732310    -1.6118380    -0.0000010
  H       -3.9026090    -0.7325290     0.8908020
  H       -3.9026030    -0.7325320    -0.8908160
  H       -3.4966990     0.7550430    -0.0000090
units angstrom
no_reorient  #important for SAPT in psi4, default
symmetry c1  #important for SAPT in psi4, default
}

set PROPERTIES_ORIGIN ["COM"]
properties('MP2/aug-cc-pvtz', properties = ['dipole'])
--------------------------------------------------------------------------

    Molecular point group: c1
  Charge       = 0
  Multiplicity = 1
  Basis Set: AUG-CC-PVTZ
    Blend: AUG-CC-PVTZ
  Basis Set: (AUG-CC-PVTZ AUX)
    Blend: AUG-CC-PVTZ-JKFIT

    Orbital Energies [Eh]
    ---------------------

    Doubly Occupied:

       1A    -20.524147     2A    -15.635180     3A    -15.589305
       4A    -15.562613     5A    -11.363407     6A    -11.301324
       7A    -11.271953     8A    -11.270173     9A    -11.261893
      10A    -11.253071    11A     -1.382685    12A     -1.343578
      13A     -1.239798    14A     -1.188568    15A     -1.033326
      16A     -0.977744    17A     -0.951510    18A     -0.839484
      19A     -0.812651    20A     -0.775647    21A     -0.732960
      22A     -0.658806    23A     -0.654698    24A     -0.647880
      25A     -0.620959    26A     -0.603603    27A     -0.593358
      28A     -0.584343    29A     -0.560156    30A     -0.558530
      31A     -0.550197    32A     -0.531091    33A     -0.455917
      34A     -0.433123    35A     -0.399566    36A     -0.389983
      37A     -0.320792

  @DF-RHF Final Energy:  -470.83371953328214

   => Energetics <=

    Nuclear Repulsion Energy =            527.7282087580226744
    One-Electron Energy =               -1687.3758170595720003
    Two-Electron Energy =                 688.8138887682672475
    Total Energy =                       -470.8337195332820784
  Basis Set: (AUG-CC-PVTZ AUX)
    Blend: AUG-CC-PVTZ-RI
    Molecular point group: c1

    Geometry (in Angstrom), charge = 0, multiplicity = 1:

       Center              X                  Y                   Z               Mass
    ------------   -----------------  -----------------  -----------------  -----------------
         O           -1.187551141463     1.555229385537     0.000003345573    15.994914619570
         N            1.438840058537     0.509742285537    -0.000007254427    14.003074004430
         N            0.580106058537    -1.560327714463     0.000009745573    14.003074004430
         N           -2.023695941463    -0.637470714463    -0.000001254427    14.003074004430
         C            0.300726058537    -0.249816714463     0.000009745573    12.000000000000
         C            2.496116058537    -0.365692714463    -0.000010254427    12.000000000000
         C            1.545890058537     1.967556285537     0.000001745573    12.000000000000
         C           -1.063545941463     0.319590285537     0.000001745573    12.000000000000
         C            1.943832058537    -1.632727714463    -0.000000254427    12.000000000000
         C           -3.435540941463    -0.318579714463    -0.000006254427    12.000000000000
         H            3.519510058537    -0.017184714463    -0.000012254427     1.007825032230
         H            1.059029058537     2.376281285537    -0.883911254427     1.007825032230
         H            1.059074058537     2.376267285537     0.883947745573     1.007825032230
         H            2.607070058537     2.219685285537    -0.000022254427     1.007825032230
         H            2.461422058537    -2.583055714463    -0.000005254427     1.007825032230
         H           -1.698444941463    -1.598919714463    -0.000001254427     1.007825032230
         H           -3.927822941463    -0.719610714463     0.890801745573     1.007825032230
         H           -3.927816941463    -0.719613714463    -0.890816254427     1.007825032230
         H           -3.521912941463     0.767961285537    -0.000009254427     1.007825032230

  Basis Set: AUG-CC-PVTZ
    Blend: AUG-CC-PVTZ
  Basis Set: (AUG-CC-PVTZ AUX)
    Blend: AUG-CC-PVTZ-JKFIT
	 Reference Energy          =    -470.8337195332821352 [Eh]
	 Singles Energy            =      -0.0000000000000000 [Eh]
	 Same-Spin Energy          =      -0.4993497619344629 [Eh]
	 Opposite-Spin Energy      =      -1.5371930796960886 [Eh]
	 Correlation Energy        =      -2.0365428416305518 [Eh]
	 Total Energy              =    -472.8702623749126701 [Eh]

	 ================> DF-SCS-MP2 Energies <==================
	-----------------------------------------------------------
	 SCS Same-Spin Scale       =       0.3333333333333333 [-]
	 SCS Opposite-Spin Scale   =       1.2000000000000000 [-]
	 SCS Same-Spin Energy      =      -0.1664499206448209 [Eh]
	 SCS Opposite-Spin Energy  =      -1.8446316956353064 [Eh]
	 SCS Correlation Energy    =      -2.0110816162801273 [Eh]
	 SCS Total Energy          =    -472.8448011495622723 [Eh]
	-----------------------------------------------------------

  Dipole Moment: [D]
     X:     1.0598      Y:     0.0006      Z:    -0.0000     Total:     1.0598

*** Psi4 exiting successfully. Buy a developer a beer!
