                               Psi4 1.3.2 release

  ==> Input File <==

--------------------------------------------------------------------------
#psi4
#
memory 32 gb

molecule  {
0 1
  O       -1.2482290     1.5306510     0.0000030
  N        1.4640540     0.4968240    -0.0000070
  N        0.6053200    -1.5732460     0.0000100
  N       -2.0150388    -0.6334863    -0.0000011
  C        0.3259400    -0.2627350     0.0000100
  C        2.5213300    -0.3786110    -0.0000100
  C        1.5711040     1.9546380     0.0000020
  C       -1.0383320     0.3066720     0.0000020
  C        1.9690460    -1.6456460     0.0000000
  C       -3.4103270    -0.3314980    -0.0000060
  H        3.5447240    -0.0301030    -0.0000120
  H        1.0842430     2.3633630    -0.8839110
  H        1.0842880     2.3633490     0.8839480
  H        2.6322840     2.2067670    -0.0000220
  H        2.4866360    -2.5959740    -0.0000050
  H       -1.6732310    -1.6118380    -0.0000010
  H       -3.9026090    -0.7325290     0.8908020
  H       -3.9026030    -0.7325320    -0.8908160
  H       -3.4966990     0.7550430    -0.0000090
units angstrom
no_reorient  #important for SAPT in psi4, default
symmetry c1  #important for SAPT in psi4, default
}

set PROPERTIES_ORIGIN ["COM"]
properties('MP2/aug-cc-pvtz', properties = ['dipole'])
--------------------------------------------------------------------------

    Molecular point group: c1
  Charge       = 0
  Multiplicity = 1
  Basis Set: AUG-CC-PVTZ
    Blend: AUG-CC-PVTZ
  Basis Set: (AUG-CC-PVTZ AUX)
    Blend: AUG-CC-PVTZ-JKFIT

    Orbital Energies [Eh]
    ---------------------

    Doubly Occupied:

       1A    -20.521255     2A    -15.638593     3A    -15.585450
       4A    -15.566335     5A    -11.361992     6A    -11.306017
       7A    -11.275180     8A    -11.273243     9A    -11.256464
      10A    -11.255937    11A     -1.381873    12A     -1.347004
      13A     -1.235074    14A     -1.191606    15A     -1.037025
      16A     -0.980165    17A     -0.951572    18A     -0.839739
      19A     -0.814762    20A     -0.769000    21A     -0.734989
      22A     -0.660677    23A     -0.656845    24A     -0.647162
      25A     -0.620958    26A     -0.606739    27A     -0.596003
      28A     -0.585075    29A     -0.563916    30A     -0.560397
      31A     -0.541785    32A     -0.529439    33A     -0.458551
      34A     -0.433604    35A     -0.398913    36A     -0.387649
      37A     -0.323803

  @DF-RHF Final Energy:  -470.83402085737436

   => Energetics <=

    Nuclear Repulsion Energy =            527.1748322198194501
    One-Electron Energy =               -1686.2281249574548383
    Two-Electron Energy =                 688.2192718802609761
    Total Energy =                       -470.8340208573742984
  Basis Set: (AUG-CC-PVTZ AUX)
    Blend: AUG-CC-PVTZ-RI
    Molecular point group: c1

    Geometry (in Angstrom), charge = 0, multiplicity = 1:

       Center              X                  Y                   Z               Mass
    ------------   -----------------  -----------------  -----------------  -----------------
         O           -1.261897493604     1.543208418285     0.000002824647    15.994914619570
         N            1.450385506396     0.509381418285    -0.000007175353    14.003074004430
         N            0.591651506396    -1.560688581715     0.000009824647    14.003074004430
         N           -2.028707293604    -0.620928881715    -0.000001275353    14.003074004430
         C            0.312271506396    -0.250177581715     0.000009824647    12.000000000000
         C            2.507661506396    -0.366053581715    -0.000010175353    12.000000000000
         C            1.557435506396     1.967195418285     0.000001824647    12.000000000000
         C           -1.052000493604     0.319229418285     0.000001824647    12.000000000000
         C            1.955377506396    -1.633088581715    -0.000000175353    12.000000000000
         C           -3.423995493604    -0.318940581715    -0.000006175353    12.000000000000
         H            3.531055506396    -0.017545581715    -0.000012175353     1.007825032230
         H            1.070574506396     2.375920418285    -0.883911175353     1.007825032230
         H            1.070619506396     2.375906418285     0.883947824647     1.007825032230
         H            2.618615506396     2.219324418285    -0.000022175353     1.007825032230
         H            2.472967506396    -2.583416581715    -0.000005175353     1.007825032230
         H           -1.686899493604    -1.599280581715    -0.000001175353     1.007825032230
         H           -3.916277493604    -0.719971581715     0.890801824647     1.007825032230
         H           -3.916271493604    -0.719974581715    -0.890816175353     1.007825032230
         H           -3.510367493604     0.767600418285    -0.000009175353     1.007825032230

  Basis Set: AUG-CC-PVTZ
    Blend: AUG-CC-PVTZ
  Basis Set: (AUG-CC-PVTZ AUX)
    Blend: AUG-CC-PVTZ-JKFIT
	 Reference Energy          =    -470.8340208573743553 [Eh]
	 Singles Energy            =      -0.0000000000000000 [Eh]
	 Same-Spin Energy          =      -0.4995659918065358 [Eh]
	 Opposite-Spin Energy      =      -1.5373411621437079 [Eh]
	 Correlation Energy        =      -2.0369071539502435 [Eh]
	 Total Energy              =    -472.8709280113246223 [Eh]

	 ================> DF-SCS-MP2 Energies <==================
	-----------------------------------------------------------
	 SCS Same-Spin Scale       =       0.3333333333333333 [-]
	 SCS Opposite-Spin Scale   =       1.2000000000000000 [-]
	 SCS Same-Spin Energy      =      -0.1665219972688453 [Eh]
	 SCS Opposite-Spin Energy  =      -1.8448093945724493 [Eh]
	 SCS Correlation Energy    =      -2.0113313918412947 [Eh]
	 SCS Total Energy          =    -472.8453522492156367 [Eh]
	-----------------------------------------------------------

  Dipole Moment: [D]
     X:     1.4632      Y:    -0.0107      Z:    -0.0000     Total:     1.4633

*** Psi4 exiting successfully. Buy a developer a beer!
