                               Psi4 1.3.2 release

  ==> Input File <==

--------------------------------------------------------------------------
#psi4
#
memory 32 gb

molecule  {
0 1
  O       -1.4607440    -0.6783760    -0.0000110
  N        0.8364910    -1.0546300    -0.0000300
  N        2.0492790    -0.4487200    -0.0000870
  C       -0.2000590    -0.1785130    -0.0000310
  C        0.3504846     1.0933259     0.0499380
  C        1.7415550     0.8590090    -0.0000990
  C       -2.4699820     0.3361590     0.0002330
  H       -0.1651650     2.0416990    -0.0000660
  H        0.7745000    -2.0647320    -0.0000170
  H        2.5420040     1.5875080    -0.0001330
  H       -3.4206380    -0.1946080     0.0003100
  H       -2.3886930     0.9604430    -0.8948830
  H       -2.3884390     0.9602630     0.8954520
units angstrom
no_reorient  #important for SAPT in psi4, default
symmetry c1  #important for SAPT in psi4, default
}

set PROPERTIES_ORIGIN ["COM"]
properties('MP2/aug-cc-pvtz', properties = ['dipole'])
--------------------------------------------------------------------------

    Molecular point group: c1
  Charge       = 0
  Multiplicity = 1
  Basis Set: AUG-CC-PVTZ
    Blend: AUG-CC-PVTZ
  Basis Set: (AUG-CC-PVTZ AUX)
    Blend: AUG-CC-PVTZ-JKFIT

    Orbital Energies [Eh]
    ---------------------

    Doubly Occupied:

       1A    -20.612674     2A    -15.630514     3A    -15.580890
       4A    -11.343241     5A    -11.300207     6A    -11.257560
       7A    -11.220400     8A     -1.440046     9A     -1.356390
      10A     -1.091345    11A     -1.048363    12A     -0.961511
      13A     -0.818049    14A     -0.799847    15A     -0.754970
      16A     -0.679608    17A     -0.649901    18A     -0.625365
      19A     -0.601067    20A     -0.596581    21A     -0.580146
      22A     -0.527618    23A     -0.506739    24A     -0.453990
      25A     -0.366518    26A     -0.325742

  @DF-RHF Final Energy:  -338.79895583639757

   => Energetics <=

    Nuclear Repulsion Energy =            295.6793384329375272
    One-Electron Energy =               -1046.6980273373123964
    Two-Electron Energy =                 412.2197330679772449
    Total Energy =                       -338.7989558363975675
  Basis Set: (AUG-CC-PVTZ AUX)
    Blend: AUG-CC-PVTZ-RI
    Molecular point group: c1

    Geometry (in Angstrom), charge = 0, multiplicity = 1:

       Center              X                  Y                   Z               Mass
    ------------   -----------------  -----------------  -----------------  -----------------
         O           -1.511976440913    -0.645065841326    -0.006123779515    15.994914619570
         N            0.785258559087    -1.021319841326    -0.006142779515    14.003074004430
         N            1.998046559087    -0.415409841326    -0.006199779515    14.003074004430
         C           -0.251291440913    -0.145202841326    -0.006143779515    12.000000000000
         C            0.299252159087     1.126636058674     0.043825220485    12.000000000000
         C            1.690322559087     0.892319158674    -0.006211779515    12.000000000000
         C           -2.521214440913     0.369469158674    -0.005879779515    12.000000000000
         H           -0.216397440913     2.075009158674    -0.006178779515     1.007825032230
         H            0.723267559087    -2.031421841326    -0.006129779515     1.007825032230
         H            2.490771559087     1.620818158674    -0.006245779515     1.007825032230
         H           -3.471870440913    -0.161297841326    -0.005802779515     1.007825032230
         H           -2.439925440913     0.993753158674    -0.900995779515     1.007825032230
         H           -2.439671440913     0.993573158674     0.889339220485     1.007825032230

  Basis Set: AUG-CC-PVTZ
    Blend: AUG-CC-PVTZ
  Basis Set: (AUG-CC-PVTZ AUX)
    Blend: AUG-CC-PVTZ-JKFIT
	 Reference Energy          =    -338.7989558363975675 [Eh]
	 Singles Energy            =      -0.0000000000000000 [Eh]
	 Same-Spin Energy          =      -0.3532641522663575 [Eh]
	 Opposite-Spin Energy      =      -1.0833847710236937 [Eh]
	 Correlation Energy        =      -1.4366489232900512 [Eh]
	 Total Energy              =    -340.2356047596876465 [Eh]

	 ================> DF-SCS-MP2 Energies <==================
	-----------------------------------------------------------
	 SCS Same-Spin Scale       =       0.3333333333333333 [-]
	 SCS Opposite-Spin Scale   =       1.2000000000000000 [-]
	 SCS Same-Spin Energy      =      -0.1177547174221192 [Eh]
	 SCS Opposite-Spin Energy  =      -1.3000617252284323 [Eh]
	 SCS Correlation Energy    =      -1.4178164426505515 [Eh]
	 SCS Total Energy          =    -340.2167722790481434 [Eh]
	-----------------------------------------------------------

  Dipole Moment: [D]
     X:    -3.1263      Y:     0.6409      Z:    -0.0511     Total:     3.1918

*** Psi4 exiting successfully. Buy a developer a beer!
