                               Psi4 1.3.2 release

  ==> Input File <==

--------------------------------------------------------------------------
#psi4
#
memory 32 gb

molecule  {
0 1
  O       -1.4607440    -0.6783760    -0.0000110
  N        0.8364910    -1.0546300    -0.0000300
  N        2.0492790    -0.4487200    -0.0000870
  C       -0.2000590    -0.1785130    -0.0000310
  C        0.3504857     1.0933276     0.1499380
  C        1.7415550     0.8590090    -0.0000990
  C       -2.4699820     0.3361590     0.0002330
  H       -0.1651650     2.0416990    -0.0000660
  H        0.7745000    -2.0647320    -0.0000170
  H        2.5420040     1.5875080    -0.0001330
  H       -3.4206380    -0.1946080     0.0003100
  H       -2.3886930     0.9604430    -0.8948830
  H       -2.3884390     0.9602630     0.8954520
units angstrom
no_reorient  #important for SAPT in psi4, default
symmetry c1  #important for SAPT in psi4, default
}

set PROPERTIES_ORIGIN ["COM"]
properties('MP2/aug-cc-pvtz', properties = ['dipole'])
--------------------------------------------------------------------------

    Molecular point group: c1
  Charge       = 0
  Multiplicity = 1
  Basis Set: AUG-CC-PVTZ
    Blend: AUG-CC-PVTZ
  Basis Set: (AUG-CC-PVTZ AUX)
    Blend: AUG-CC-PVTZ-JKFIT

    Orbital Energies [Eh]
    ---------------------

    Doubly Occupied:

       1A    -20.613405     2A    -15.631201     3A    -15.581393
       4A    -11.345301     5A    -11.300314     6A    -11.258917
       7A    -11.222082     8A     -1.440664     9A     -1.356777
      10A     -1.091757    11A     -1.046985    12A     -0.961632
      13A     -0.817176    14A     -0.799575    15A     -0.754952
      16A     -0.680088    17A     -0.648797    18A     -0.624195
      19A     -0.603803    20A     -0.591217    21A     -0.579535
      22A     -0.526992    23A     -0.506875    24A     -0.453933
      25A     -0.366330    26A     -0.326043

  @DF-RHF Final Energy:  -338.79410111131961

   => Energetics <=

    Nuclear Repulsion Energy =            295.4479794286073684
    One-Electron Energy =               -1046.2242820622145700
    Two-Electron Energy =                 411.9822015222875962
    Total Energy =                       -338.7941011113196055
  Basis Set: (AUG-CC-PVTZ AUX)
    Blend: AUG-CC-PVTZ-RI
    Molecular point group: c1

    Geometry (in Angstrom), charge = 0, multiplicity = 1:

       Center              X                  Y                   Z               Mass
    ------------   -----------------  -----------------  -----------------  -----------------
         O           -1.511976575541    -0.645066049388    -0.018362681309    15.994914619570
         N            0.785258424459    -1.021320049388    -0.018381681309    14.003074004430
         N            1.998046424459    -0.415410049388    -0.018438681309    14.003074004430
         C           -0.251291575541    -0.145203049388    -0.018382681309    12.000000000000
         C            0.299253124459     1.126637550612     0.131586318691    12.000000000000
         C            1.690322424459     0.892318950612    -0.018450681309    12.000000000000
         C           -2.521214575541     0.369468950612    -0.018118681309    12.000000000000
         H           -0.216397575541     2.075008950612    -0.018417681309     1.007825032230
         H            0.723267424459    -2.031422049388    -0.018368681309     1.007825032230
         H            2.490771424459     1.620817950612    -0.018484681309     1.007825032230
         H           -3.471870575541    -0.161298049388    -0.018041681309     1.007825032230
         H           -2.439925575541     0.993752950612    -0.913234681309     1.007825032230
         H           -2.439671575541     0.993572950612     0.877100318691     1.007825032230

  Basis Set: AUG-CC-PVTZ
    Blend: AUG-CC-PVTZ
  Basis Set: (AUG-CC-PVTZ AUX)
    Blend: AUG-CC-PVTZ-JKFIT
	 Reference Energy          =    -338.7941011113196055 [Eh]
	 Singles Energy            =      -0.0000000000000000 [Eh]
	 Same-Spin Energy          =      -0.3534174008920913 [Eh]
	 Opposite-Spin Energy      =      -1.0839336901238976 [Eh]
	 Correlation Energy        =      -1.4373510910159890 [Eh]
	 Total Energy              =    -340.2314522023356176 [Eh]

	 ================> DF-SCS-MP2 Energies <==================
	-----------------------------------------------------------
	 SCS Same-Spin Scale       =       0.3333333333333333 [-]
	 SCS Opposite-Spin Scale   =       1.2000000000000000 [-]
	 SCS Same-Spin Energy      =      -0.1178058002973638 [Eh]
	 SCS Opposite-Spin Energy  =      -1.3007204281486771 [Eh]
	 SCS Correlation Energy    =      -1.4185262284460407 [Eh]
	 SCS Total Energy          =    -340.2126273397656178 [Eh]
	-----------------------------------------------------------

  Dipole Moment: [D]
     X:    -3.1101      Y:     0.5941      Z:    -0.1554     Total:     3.1701

*** Psi4 exiting successfully. Buy a developer a beer!
