                               Psi4 1.3.2 release

  ==> Input File <==

--------------------------------------------------------------------------
#psi4
#
memory 32 gb

molecule  {
0 1
  O       -1.4607440    -0.6783760    -0.0000110
  N        0.8364910    -1.0546300    -0.0000300
  N        2.0492790    -0.4487200    -0.0000870
  C       -0.2000590    -0.1785130    -0.0000310
  C        0.3504840     1.0933250    -0.0000620
  C        1.7415550     0.8590090    -0.0000990
  C       -2.4699820     0.3361590     0.0002330
  H       -0.1651650     2.0416990    -0.0000660
  H        0.7745000    -2.0647320    -0.0000170
  H        2.5419982     1.5875049    -0.2001330
  H       -3.4206380    -0.1946080     0.0003100
  H       -2.3886930     0.9604430    -0.8948830
  H       -2.3884390     0.9602630     0.8954520
units angstrom
no_reorient  #important for SAPT in psi4, default
symmetry c1  #important for SAPT in psi4, default
}

set PROPERTIES_ORIGIN ["COM"]
properties('MP2/aug-cc-pvtz', properties = ['dipole'])
--------------------------------------------------------------------------

    Molecular point group: c1
  Charge       = 0
  Multiplicity = 1
  Basis Set: AUG-CC-PVTZ
    Blend: AUG-CC-PVTZ
  Basis Set: (AUG-CC-PVTZ AUX)
    Blend: AUG-CC-PVTZ-JKFIT

    Orbital Energies [Eh]
    ---------------------

    Doubly Occupied:

       1A    -20.612692     2A    -15.630921     3A    -15.581419
       4A    -11.343136     5A    -11.300278     6A    -11.258957
       7A    -11.220344     8A     -1.440116     9A     -1.356728
      10A     -1.091292    11A     -1.048729    12A     -0.961573
      13A     -0.816554    14A     -0.799368    15A     -0.754762
      16A     -0.679704    17A     -0.649998    18A     -0.625566
      19A     -0.602217    20A     -0.595765    21A     -0.576870
      22A     -0.527397    23A     -0.506597    24A     -0.454249
      25A     -0.366256    26A     -0.325843

  @DF-RHF Final Energy:  -338.79692707706562

   => Energetics <=

    Nuclear Repulsion Energy =            295.6396760509970818
    One-Electron Energy =               -1046.6185448097903645
    Two-Electron Energy =                 412.1819416817276647
    Total Energy =                       -338.7969270770656181
  Basis Set: (AUG-CC-PVTZ AUX)
    Blend: AUG-CC-PVTZ-RI
    Molecular point group: c1

    Geometry (in Angstrom), charge = 0, multiplicity = 1:

       Center              X                  Y                   Z               Mass
    ------------   -----------------  -----------------  -----------------  -----------------
         O           -1.511976307862    -0.645065699312     0.002051449981    15.994914619570
         N            0.785258692138    -1.021319699312     0.002032449981    14.003074004430
         N            1.998046692138    -0.415409699312     0.001975449981    14.003074004430
         C           -0.251291307862    -0.145202699312     0.002031449981    12.000000000000
         C            0.299251692138     1.126635300688     0.002000449981    12.000000000000
         C            1.690322692138     0.892319300688     0.001963449981    12.000000000000
         C           -2.521214307862     0.369469300688     0.002295449981    12.000000000000
         H           -0.216397307862     2.075009300688     0.001996449981     1.007825032230
         H            0.723267692138    -2.031421699312     0.002045449981     1.007825032230
         H            2.490765892138     1.620815200688    -0.198070550019     1.007825032230
         H           -3.471870307862    -0.161297699312     0.002372449981     1.007825032230
         H           -2.439925307862     0.993753300688    -0.892820550019     1.007825032230
         H           -2.439671307862     0.993573300688     0.897514449981     1.007825032230

  Basis Set: AUG-CC-PVTZ
    Blend: AUG-CC-PVTZ
  Basis Set: (AUG-CC-PVTZ AUX)
    Blend: AUG-CC-PVTZ-JKFIT
	 Reference Energy          =    -338.7969270770656181 [Eh]
	 Singles Energy            =      -0.0000000000000000 [Eh]
	 Same-Spin Energy          =      -0.3534196046964377 [Eh]
	 Opposite-Spin Energy      =      -1.0836918128452107 [Eh]
	 Correlation Energy        =      -1.4371114175416484 [Eh]
	 Total Energy              =    -340.2340384946072618 [Eh]

	 ================> DF-SCS-MP2 Energies <==================
	-----------------------------------------------------------
	 SCS Same-Spin Scale       =       0.3333333333333333 [-]
	 SCS Opposite-Spin Scale   =       1.2000000000000000 [-]
	 SCS Same-Spin Energy      =      -0.1178065348988126 [Eh]
	 SCS Opposite-Spin Energy  =      -1.3004301754142527 [Eh]
	 SCS Correlation Energy    =      -1.4182367103130653 [Eh]
	 SCS Total Energy          =    -340.2151637873786854 [Eh]
	-----------------------------------------------------------

  Dipole Moment: [D]
     X:    -3.1525      Y:     0.6209      Z:    -0.1423     Total:     3.2162

*** Psi4 exiting successfully. Buy a developer a beer!
