                               Psi4 1.3.2 release

  ==> Input File <==

--------------------------------------------------------------------------
#psi4
#
memory 32 gb

molecule  {
0 1
  O       -1.4607440    -0.6783760    -0.0000110
  N        0.8364910    -1.0546300    -0.0000300
  N        2.0492790    -0.4487200    -0.0000870
  C       -0.2000590    -0.1785130    -0.0000310
  C        0.3504840     1.0933250    -0.0000620
  C        1.7415550     0.8590090    -0.0000990
  C       -2.4699820     0.3361590     0.0002330
  H       -0.1651596     2.0417021     0.1999340
  H        0.7745000    -2.0647320    -0.0000170
  H        2.5420040     1.5875080    -0.0001330
  H       -3.4206380    -0.1946080     0.0003100
  H       -2.3886930     0.9604430    -0.8948830
  H       -2.3884390     0.9602630     0.8954520
units angstrom
no_reorient  #important for SAPT in psi4, default
symmetry c1  #important for SAPT in psi4, default
}

set PROPERTIES_ORIGIN ["COM"]
properties('MP2/aug-cc-pvtz', properties = ['dipole'])
--------------------------------------------------------------------------

    Molecular point group: c1
  Charge       = 0
  Multiplicity = 1
  Basis Set: AUG-CC-PVTZ
    Blend: AUG-CC-PVTZ
  Basis Set: (AUG-CC-PVTZ AUX)
    Blend: AUG-CC-PVTZ-JKFIT

    Orbital Energies [Eh]
    ---------------------

    Doubly Occupied:

       1A    -20.612899     2A    -15.630774     3A    -15.581125
       4A    -11.343533     5A    -11.300136     6A    -11.257652
       7A    -11.221544     8A     -1.440251     9A     -1.356686
      10A     -1.091564    11A     -1.048359    12A     -0.961453
      13A     -0.818107    14A     -0.798593    15A     -0.754930
      16A     -0.679814    17A     -0.648977    18A     -0.625172
      19A     -0.601386    20A     -0.594263    21A     -0.579565
      22A     -0.527437    23A     -0.506788    24A     -0.454139
      25A     -0.366524    26A     -0.325926

  @DF-RHF Final Energy:  -338.79745537255184

   => Energetics <=

    Nuclear Repulsion Energy =            295.6364224389286051
    One-Electron Energy =               -1046.6125626877465038
    Two-Electron Energy =                 412.1786848762661180
    Total Energy =                       -338.7974553725518376
  Basis Set: (AUG-CC-PVTZ AUX)
    Blend: AUG-CC-PVTZ-RI
    Molecular point group: c1

    Geometry (in Angstrom), charge = 0, multiplicity = 1:

       Center              X                  Y                   Z               Mass
    ------------   -----------------  -----------------  -----------------  -----------------
         O           -1.511976422985    -0.645065763041    -0.002060107217    15.994914619570
         N            0.785258577015    -1.021319763041    -0.002079107217    14.003074004430
         N            1.998046577015    -0.415409763041    -0.002136107217    14.003074004430
         C           -0.251291422985    -0.145202763041    -0.002080107217    12.000000000000
         C            0.299251577015     1.126635236959    -0.002111107217    12.000000000000
         C            1.690322577015     0.892319236959    -0.002148107217    12.000000000000
         C           -2.521214422985     0.369469236959    -0.001816107217    12.000000000000
         H           -0.216392022985     2.075012336959     0.197884892783     1.007825032230
         H            0.723267577015    -2.031421763041    -0.002066107217     1.007825032230
         H            2.490771577015     1.620818236959    -0.002182107217     1.007825032230
         H           -3.471870422985    -0.161297763041    -0.001739107217     1.007825032230
         H           -2.439925422985     0.993753236959    -0.896932107217     1.007825032230
         H           -2.439671422985     0.993573236959     0.893402892783     1.007825032230

  Basis Set: AUG-CC-PVTZ
    Blend: AUG-CC-PVTZ
  Basis Set: (AUG-CC-PVTZ AUX)
    Blend: AUG-CC-PVTZ-JKFIT
	 Reference Energy          =    -338.7974553725518376 [Eh]
	 Singles Energy            =      -0.0000000000000000 [Eh]
	 Same-Spin Energy          =      -0.3533230863818189 [Eh]
	 Opposite-Spin Energy      =      -1.0835074507116609 [Eh]
	 Correlation Energy        =      -1.4368305370934797 [Eh]
	 Total Energy              =    -340.2342859096453367 [Eh]

	 ================> DF-SCS-MP2 Energies <==================
	-----------------------------------------------------------
	 SCS Same-Spin Scale       =       0.3333333333333333 [-]
	 SCS Opposite-Spin Scale   =       1.2000000000000000 [-]
	 SCS Same-Spin Energy      =      -0.1177743621272730 [Eh]
	 SCS Opposite-Spin Energy  =      -1.3002089408539930 [Eh]
	 SCS Correlation Energy    =      -1.4179833029812658 [Eh]
	 SCS Total Energy          =    -340.2154386755331075 [Eh]
	-----------------------------------------------------------

  Dipole Moment: [D]
     X:    -3.1145      Y:     0.6163      Z:     0.1769     Total:     3.1798

*** Psi4 exiting successfully. Buy a developer a beer!
