                               Psi4 1.3.2 release

  ==> Input File <==

--------------------------------------------------------------------------
#psi4
#
memory 32 gb

molecule  {
0 1
  O       -1.4607440    -0.6783760    -0.0000110
  N        0.8364910    -1.0546300    -0.0000300
  N        2.0492790    -0.4487200    -0.0000870
  C       -0.2000590    -0.1785130    -0.0000310
  C        0.3504840     1.0933250    -0.0000620
  C        1.7415550     0.8590090    -0.0000990
  C       -2.4699820     0.3361590     0.0002330
  H       -0.1651637     2.0416998     0.0499340
  H        0.7745000    -2.0647320    -0.0000170
  H        2.5420040     1.5875080    -0.0001330
  H       -3.4206380    -0.1946080     0.0003100
  H       -2.3886930     0.9604430    -0.8948830
  H       -2.3884390     0.9602630     0.8954520
units angstrom
no_reorient  #important for SAPT in psi4, default
symmetry c1  #important for SAPT in psi4, default
}

set PROPERTIES_ORIGIN ["COM"]
properties('MP2/aug-cc-pvtz', properties = ['dipole'])
--------------------------------------------------------------------------

    Molecular point group: c1
  Charge       = 0
  Multiplicity = 1
  Basis Set: AUG-CC-PVTZ
    Blend: AUG-CC-PVTZ
  Basis Set: (AUG-CC-PVTZ AUX)
    Blend: AUG-CC-PVTZ-JKFIT

    Orbital Energies [Eh]
    ---------------------

    Doubly Occupied:

       1A    -20.612603     2A    -15.630451     3A    -15.580847
       4A    -11.343015     5A    -11.300190     6A    -11.257404
       7A    -11.220275     8A     -1.439986     9A     -1.356364
      10A     -1.091312    11A     -1.048524    12A     -0.961493
      13A     -0.818158    14A     -0.799801    15A     -0.754971
      16A     -0.679562    17A     -0.649979    18A     -0.625499
      19A     -0.600115    20A     -0.597719    21A     -0.580176
      22A     -0.527677    23A     -0.506726    24A     -0.454005
      25A     -0.366542    26A     -0.325720

  @DF-RHF Final Energy:  -338.79943541853731

   => Energetics <=

    Nuclear Repulsion Energy =            295.7038929838327590
    One-Electron Energy =               -1046.7484250743661960
    Two-Electron Energy =                 412.2450966719961798
    Total Energy =                       -338.7994354185373140
  Basis Set: (AUG-CC-PVTZ AUX)
    Blend: AUG-CC-PVTZ-RI
    Molecular point group: c1

    Geometry (in Angstrom), charge = 0, multiplicity = 1:

       Center              X                  Y                   Z               Mass
    ------------   -----------------  -----------------  -----------------  -----------------
         O           -1.511976380842    -0.645065739399    -0.000518273268    15.994914619570
         N            0.785258619158    -1.021319739399    -0.000537273268    14.003074004430
         N            1.998046619158    -0.415409739399    -0.000594273268    14.003074004430
         C           -0.251291380842    -0.145202739399    -0.000538273268    12.000000000000
         C            0.299251619158     1.126635260601    -0.000569273268    12.000000000000
         C            1.690322619158     0.892319260601    -0.000606273268    12.000000000000
         C           -2.521214380842     0.369469260601    -0.000274273268    12.000000000000
         H           -0.216396080842     2.075010060601     0.049426726732     1.007825032230
         H            0.723267619158    -2.031421739399    -0.000524273268     1.007825032230
         H            2.490771619158     1.620818260601    -0.000640273268     1.007825032230
         H           -3.471870380842    -0.161297739399    -0.000197273268     1.007825032230
         H           -2.439925380842     0.993753260601    -0.895390273268     1.007825032230
         H           -2.439671380842     0.993573260601     0.894944726732     1.007825032230

  Basis Set: AUG-CC-PVTZ
    Blend: AUG-CC-PVTZ
  Basis Set: (AUG-CC-PVTZ AUX)
    Blend: AUG-CC-PVTZ-JKFIT
	 Reference Energy          =    -338.7994354185373140 [Eh]
	 Singles Energy            =      -0.0000000000000000 [Eh]
	 Same-Spin Energy          =      -0.3532495859019000 [Eh]
	 Opposite-Spin Energy      =      -1.0833365911318638 [Eh]
	 Correlation Energy        =      -1.4365861770337638 [Eh]
	 Total Energy              =    -340.2360215955710601 [Eh]

	 ================> DF-SCS-MP2 Energies <==================
	-----------------------------------------------------------
	 SCS Same-Spin Scale       =       0.3333333333333333 [-]
	 SCS Opposite-Spin Scale   =       1.2000000000000000 [-]
	 SCS Same-Spin Energy      =      -0.1177498619673000 [Eh]
	 SCS Opposite-Spin Energy  =      -1.3000039093582365 [Eh]
	 SCS Correlation Energy    =      -1.4177537713255366 [Eh]
	 SCS Total Energy          =    -340.2171891898628360 [Eh]
	-----------------------------------------------------------

  Dipole Moment: [D]
     X:    -3.1275      Y:     0.6449      Z:     0.0449     Total:     3.1937

*** Psi4 exiting successfully. Buy a developer a beer!
