                               Psi4 1.3.2 release

  ==> Input File <==

--------------------------------------------------------------------------
#psi4
#
memory 32 gb

molecule  {
0 1
  O       -1.4607440    -0.6783760    -0.0000110
  N        0.8364910    -1.0546300    -0.0000300
  N        2.0492790    -0.4487200    -0.0000870
  C       -0.2000590    -0.1785130    -0.0000310
  C        0.3504840     1.0933250    -0.0000620
  C        1.7415550     0.8590090    -0.0000990
  C       -2.4699820     0.3361590     0.0002330
  H       -0.1651650     2.0416990    -0.0000660
  H        0.7745000    -2.0647320    -0.0000170
  H        2.5419968     1.5875041    -0.2501330
  H       -3.4206380    -0.1946080     0.0003100
  H       -2.3886930     0.9604430    -0.8948830
  H       -2.3884390     0.9602630     0.8954520
units angstrom
no_reorient  #important for SAPT in psi4, default
symmetry c1  #important for SAPT in psi4, default
}

set PROPERTIES_ORIGIN ["COM"]
properties('MP2/aug-cc-pvtz', properties = ['dipole'])
--------------------------------------------------------------------------

    Molecular point group: c1
  Charge       = 0
  Multiplicity = 1
  Basis Set: AUG-CC-PVTZ
    Blend: AUG-CC-PVTZ
  Basis Set: (AUG-CC-PVTZ AUX)
    Blend: AUG-CC-PVTZ-JKFIT

    Orbital Energies [Eh]
    ---------------------

    Doubly Occupied:

       1A    -20.612754     2A    -15.631192     3A    -15.581747
       4A    -11.343225     5A    -11.300326     6A    -11.259822
       7A    -11.220435     8A     -1.440199     9A     -1.356942
      10A     -1.091298    11A     -1.048840    12A     -0.961619
      13A     -0.815786    14A     -0.799042    15A     -0.754646
      16A     -0.679793    17A     -0.649979    18A     -0.625596
      19A     -0.602820    20A     -0.595244    21A     -0.574965
      22A     -0.527211    23A     -0.506522    24A     -0.454380
      25A     -0.366103    26A     -0.325920

  @DF-RHF Final Energy:  -338.79532554410719

   => Energetics <=

    Nuclear Repulsion Energy =            295.6021176645970741
    One-Electron Energy =               -1046.5420707503599260
    Two-Electron Energy =                 412.1446275416557228
    Total Energy =                       -338.7953255441071860
  Basis Set: (AUG-CC-PVTZ AUX)
    Blend: AUG-CC-PVTZ-RI
    Molecular point group: c1

    Geometry (in Angstrom), charge = 0, multiplicity = 1:

       Center              X                  Y                   Z               Mass
    ------------   -----------------  -----------------  -----------------  -----------------
         O           -1.511976293471    -0.645065691088     0.002565394631    15.994914619570
         N            0.785258706529    -1.021319691088     0.002546394631    14.003074004430
         N            1.998046706529    -0.415409691088     0.002489394631    14.003074004430
         C           -0.251291293471    -0.145202691088     0.002545394631    12.000000000000
         C            0.299251706529     1.126635308912     0.002514394631    12.000000000000
         C            1.690322706529     0.892319308912     0.002477394631    12.000000000000
         C           -2.521214293471     0.369469308912     0.002809394631    12.000000000000
         H           -0.216397293471     2.075009308912     0.002510394631     1.007825032230
         H            0.723267706529    -2.031421691088     0.002559394631     1.007825032230
         H            2.490764506529     1.620814408912    -0.247556605369     1.007825032230
         H           -3.471870293471    -0.161297691088     0.002886394631     1.007825032230
         H           -2.439925293471     0.993753308912    -0.892306605369     1.007825032230
         H           -2.439671293471     0.993573308912     0.898028394631     1.007825032230

  Basis Set: AUG-CC-PVTZ
    Blend: AUG-CC-PVTZ
  Basis Set: (AUG-CC-PVTZ AUX)
    Blend: AUG-CC-PVTZ-JKFIT
	 Reference Energy          =    -338.7953255441071860 [Eh]
	 Singles Energy            =      -0.0000000000000000 [Eh]
	 Same-Spin Energy          =      -0.3535158402119725 [Eh]
	 Opposite-Spin Energy      =      -1.0839101674442433 [Eh]
	 Correlation Energy        =      -1.4374260076562158 [Eh]
	 Total Energy              =    -340.2327515517633856 [Eh]

	 ================> DF-SCS-MP2 Energies <==================
	-----------------------------------------------------------
	 SCS Same-Spin Scale       =       0.3333333333333333 [-]
	 SCS Opposite-Spin Scale   =       1.2000000000000000 [-]
	 SCS Same-Spin Energy      =      -0.1178386134039908 [Eh]
	 SCS Opposite-Spin Energy  =      -1.3006922009330919 [Eh]
	 SCS Correlation Energy    =      -1.4185308143370827 [Eh]
	 SCS Total Energy          =    -340.2138563584442750 [Eh]
	-----------------------------------------------------------

  Dipole Moment: [D]
     X:    -3.1658      Y:     0.6066      Z:    -0.1770     Total:     3.2283

*** Psi4 exiting successfully. Buy a developer a beer!
