                               Psi4 1.3.2 release

  ==> Input File <==

--------------------------------------------------------------------------
#psi4
#
memory 32 gb

molecule  {
0 1
  O       -1.4607440    -0.6783760    -0.0000110
  N        0.8364910    -1.0546300    -0.0000300
  N        2.0492790    -0.4487200    -0.0000870
  C       -0.2000590    -0.1785130    -0.0000310
  C        0.3504868     1.0933294     0.2499380
  C        1.7415550     0.8590090    -0.0000990
  C       -2.4699820     0.3361590     0.0002330
  H       -0.1651650     2.0416990    -0.0000660
  H        0.7745000    -2.0647320    -0.0000170
  H        2.5420040     1.5875080    -0.0001330
  H       -3.4206380    -0.1946080     0.0003100
  H       -2.3886930     0.9604430    -0.8948830
  H       -2.3884390     0.9602630     0.8954520
units angstrom
no_reorient  #important for SAPT in psi4, default
symmetry c1  #important for SAPT in psi4, default
}

set PROPERTIES_ORIGIN ["COM"]
properties('MP2/aug-cc-pvtz', properties = ['dipole'])
--------------------------------------------------------------------------

    Molecular point group: c1
  Charge       = 0
  Multiplicity = 1
  Basis Set: AUG-CC-PVTZ
    Blend: AUG-CC-PVTZ
  Basis Set: (AUG-CC-PVTZ AUX)
    Blend: AUG-CC-PVTZ-JKFIT

    Orbital Energies [Eh]
    ---------------------

    Doubly Occupied:

       1A    -20.614840     2A    -15.632581     3A    -15.582457
       4A    -11.349278     5A    -11.300528     6A    -11.261523
       7A    -11.225424     8A     -1.441875     9A     -1.357576
      10A     -1.092617    11A     -1.044205    12A     -0.961844
      13A     -0.815623    14A     -0.799167    15A     -0.754997
      16A     -0.680888    17A     -0.647083    18A     -0.622299
      19A     -0.605416    20A     -0.585249    21A     -0.577244
      22A     -0.525497    23A     -0.507107    24A     -0.453762
      25A     -0.366050    26A     -0.326732

  @DF-RHF Final Energy:  -338.78417206852538

   => Energetics <=

    Nuclear Repulsion Energy =            294.9943267135834617
    One-Electron Energy =               -1045.2932725975497306
    Two-Electron Energy =                 411.5147738154409467
    Total Energy =                       -338.7841720685253790
  Basis Set: (AUG-CC-PVTZ AUX)
    Blend: AUG-CC-PVTZ-RI
    Molecular point group: c1

    Geometry (in Angstrom), charge = 0, multiplicity = 1:

       Center              X                  Y                   Z               Mass
    ------------   -----------------  -----------------  -----------------  -----------------
         O           -1.511976710168    -0.645066269688    -0.030601583103    15.994914619570
         N            0.785258289832    -1.021320269688    -0.030620583103    14.003074004430
         N            1.998046289832    -0.415410269688    -0.030677583103    14.003074004430
         C           -0.251291710168    -0.145203269688    -0.030621583103    12.000000000000
         C            0.299254089832     1.126639130312     0.219347416897    12.000000000000
         C            1.690322289832     0.892318730312    -0.030689583103    12.000000000000
         C           -2.521214710168     0.369468730312    -0.030357583103    12.000000000000
         H           -0.216397710168     2.075008730312    -0.030656583103     1.007825032230
         H            0.723267289832    -2.031422269688    -0.030607583103     1.007825032230
         H            2.490771289832     1.620817730312    -0.030723583103     1.007825032230
         H           -3.471870710168    -0.161298269688    -0.030280583103     1.007825032230
         H           -2.439925710168     0.993752730312    -0.925473583103     1.007825032230
         H           -2.439671710168     0.993572730312     0.864861416897     1.007825032230

  Basis Set: AUG-CC-PVTZ
    Blend: AUG-CC-PVTZ
  Basis Set: (AUG-CC-PVTZ AUX)
    Blend: AUG-CC-PVTZ-JKFIT
	 Reference Energy          =    -338.7841720685253790 [Eh]
	 Singles Energy            =      -0.0000000000000000 [Eh]
	 Same-Spin Energy          =      -0.3537058386742421 [Eh]
	 Opposite-Spin Energy      =      -1.0851663991408405 [Eh]
	 Correlation Energy        =      -1.4388722378150827 [Eh]
	 Total Energy              =    -340.2230443063404550 [Eh]

	 ================> DF-SCS-MP2 Energies <==================
	-----------------------------------------------------------
	 SCS Same-Spin Scale       =       0.3333333333333333 [-]
	 SCS Opposite-Spin Scale   =       1.2000000000000000 [-]
	 SCS Same-Spin Energy      =      -0.1179019462247474 [Eh]
	 SCS Opposite-Spin Energy  =      -1.3021996789690085 [Eh]
	 SCS Correlation Energy    =      -1.4201016251937557 [Eh]
	 SCS Total Energy          =    -340.2042736937191307 [Eh]
	-----------------------------------------------------------

  Dipole Moment: [D]
     X:    -3.0786      Y:     0.5036      Z:    -0.2625     Total:     3.1306

*** Psi4 exiting successfully. Buy a developer a beer!
