                               Psi4 1.3.2 release

  ==> Input File <==

--------------------------------------------------------------------------
#psi4
#
memory 32 gb

molecule  {
0 1
  O       -1.4607440    -0.6783760    -0.0000110
  N        0.8364910    -1.0546300    -0.0000300
  N        2.0492790    -0.4487200    -0.0000870
  C       -0.2000590    -0.1785130    -0.0000310
  C        0.3504862     1.0933285     0.1999380
  C        1.7415550     0.8590090    -0.0000990
  C       -2.4699820     0.3361590     0.0002330
  H       -0.1651650     2.0416990    -0.0000660
  H        0.7745000    -2.0647320    -0.0000170
  H        2.5420040     1.5875080    -0.0001330
  H       -3.4206380    -0.1946080     0.0003100
  H       -2.3886930     0.9604430    -0.8948830
  H       -2.3884390     0.9602630     0.8954520
units angstrom
no_reorient  #important for SAPT in psi4, default
symmetry c1  #important for SAPT in psi4, default
}

set PROPERTIES_ORIGIN ["COM"]
properties('MP2/aug-cc-pvtz', properties = ['dipole'])
--------------------------------------------------------------------------

    Molecular point group: c1
  Charge       = 0
  Multiplicity = 1
  Basis Set: AUG-CC-PVTZ
    Blend: AUG-CC-PVTZ
  Basis Set: (AUG-CC-PVTZ AUX)
    Blend: AUG-CC-PVTZ-JKFIT

    Orbital Energies [Eh]
    ---------------------

    Doubly Occupied:

       1A    -20.614038     2A    -15.631805     3A    -15.581851
       4A    -11.347066     5A    -11.300408     6A    -11.260076
       7A    -11.223549     8A     -1.441198     9A     -1.357124
      10A     -1.092129    11A     -1.045772    12A     -0.961730
      13A     -0.816467    14A     -0.799377    15A     -0.754960
      16A     -0.680461    17A     -0.647974    18A     -0.623296
      19A     -0.604759    20A     -0.588152    21A     -0.578758
      22A     -0.526380    23A     -0.506985    24A     -0.453870
      25A     -0.366193    26A     -0.326331

  @DF-RHF Final Energy:  -338.78979048454624

   => Energetics <=

    Nuclear Repulsion Energy =            295.2480423084386416
    One-Electron Energy =               -1045.8142485651799234
    Two-Electron Energy =                 411.7764157721949800
    Total Energy =                       -338.7897904845462449
  Basis Set: (AUG-CC-PVTZ AUX)
    Blend: AUG-CC-PVTZ-RI
    Molecular point group: c1

    Geometry (in Angstrom), charge = 0, multiplicity = 1:

       Center              X                  Y                   Z               Mass
    ------------   -----------------  -----------------  -----------------  -----------------
         O           -1.511976636735    -0.645066159538    -0.024482132206    15.994914619570
         N            0.785258363265    -1.021320159538    -0.024501132206    14.003074004430
         N            1.998046363265    -0.415410159538    -0.024558132206    14.003074004430
         C           -0.251291636735    -0.145203159538    -0.024502132206    12.000000000000
         C            0.299253563265     1.126638340462     0.175466867794    12.000000000000
         C            1.690322363265     0.892318840462    -0.024570132206    12.000000000000
         C           -2.521214636735     0.369468840462    -0.024238132206    12.000000000000
         H           -0.216397636735     2.075008840462    -0.024537132206     1.007825032230
         H            0.723267363265    -2.031422159538    -0.024488132206     1.007825032230
         H            2.490771363265     1.620817840462    -0.024604132206     1.007825032230
         H           -3.471870636735    -0.161298159538    -0.024161132206     1.007825032230
         H           -2.439925636735     0.993752840462    -0.919354132206     1.007825032230
         H           -2.439671636735     0.993572840462     0.870980867794     1.007825032230

  Basis Set: AUG-CC-PVTZ
    Blend: AUG-CC-PVTZ
  Basis Set: (AUG-CC-PVTZ AUX)
    Blend: AUG-CC-PVTZ-JKFIT
	 Reference Energy          =    -338.7897904845462449 [Eh]
	 Singles Energy            =      -0.0000000000000000 [Eh]
	 Same-Spin Energy          =      -0.3535463711718571 [Eh]
	 Opposite-Spin Energy      =      -1.0844645927706769 [Eh]
	 Correlation Energy        =      -1.4380109639425340 [Eh]
	 Total Energy              =    -340.2278014484887763 [Eh]

	 ================> DF-SCS-MP2 Energies <==================
	-----------------------------------------------------------
	 SCS Same-Spin Scale       =       0.3333333333333333 [-]
	 SCS Opposite-Spin Scale   =       1.2000000000000000 [-]
	 SCS Same-Spin Energy      =      -0.1178487903906190 [Eh]
	 SCS Opposite-Spin Energy  =      -1.3013575113248121 [Eh]
	 SCS Correlation Energy    =      -1.4192063017154313 [Eh]
	 SCS Total Energy          =    -340.2089967862616504 [Eh]
	-----------------------------------------------------------

  Dipole Moment: [D]
     X:    -3.0961      Y:     0.5541      Z:    -0.2086     Total:     3.1522

*** Psi4 exiting successfully. Buy a developer a beer!
