                               Psi4 1.3.2 release

  ==> Input File <==

--------------------------------------------------------------------------
#psi4
#
memory 32 gb

molecule  {
0 1
  O       -1.4607440    -0.6783760    -0.0000110
  N        0.8364910    -1.0546300    -0.0000300
  N        2.0492790    -0.4487200    -0.0000870
  C       -0.2000590    -0.1785130    -0.0000310
  C        0.3504840     1.0933250    -0.0000620
  C        1.7415550     0.8590090    -0.0000990
  C       -2.4699820     0.3361590     0.0002330
  H       -0.1651650     2.0416990    -0.0000660
  H        0.7745000    -2.0647320    -0.0000170
  H        2.5420011     1.5875064    -0.1001330
  H       -3.4206380    -0.1946080     0.0003100
  H       -2.3886930     0.9604430    -0.8948830
  H       -2.3884390     0.9602630     0.8954520
units angstrom
no_reorient  #important for SAPT in psi4, default
symmetry c1  #important for SAPT in psi4, default
}

set PROPERTIES_ORIGIN ["COM"]
properties('MP2/aug-cc-pvtz', properties = ['dipole'])
--------------------------------------------------------------------------

    Molecular point group: c1
  Charge       = 0
  Multiplicity = 1
  Basis Set: AUG-CC-PVTZ
    Blend: AUG-CC-PVTZ
  Basis Set: (AUG-CC-PVTZ AUX)
    Blend: AUG-CC-PVTZ-JKFIT

    Orbital Energies [Eh]
    ---------------------

    Doubly Occupied:

       1A    -20.612610     2A    -15.630553     3A    -15.580977
       4A    -11.343018     5A    -11.300215     6A    -11.257784
       7A    -11.220228     8A     -1.440005     9A     -1.356439
      10A     -1.091292    11A     -1.048584    12A     -0.961514
      13A     -0.817731    14A     -0.799764    15A     -0.754921
      16A     -0.679584    17A     -0.650037    18A     -0.625532
      19A     -0.600865    20A     -0.597095    21A     -0.579387
      22A     -0.527622    23A     -0.506691    24A     -0.454062
      25A     -0.366470    26A     -0.325740

  @DF-RHF Final Energy:  -338.79892780806927

   => Energetics <=

    Nuclear Repulsion Energy =            295.6910229912307386
    One-Electron Energy =               -1046.7224613640382813
    Two-Electron Energy =                 412.2325105647382770
    Total Energy =                       -338.7989278080692657
  Basis Set: (AUG-CC-PVTZ AUX)
    Blend: AUG-CC-PVTZ-RI
    Molecular point group: c1

    Geometry (in Angstrom), charge = 0, multiplicity = 1:

       Center              X                  Y                   Z               Mass
    ------------   -----------------  -----------------  -----------------  -----------------
         O           -1.511976337670    -0.645065714730     0.001023560681    15.994914619570
         N            0.785258662330    -1.021319714730     0.001004560681    14.003074004430
         N            1.998046662330    -0.415409714730     0.000947560681    14.003074004430
         C           -0.251291337670    -0.145202714730     0.001003560681    12.000000000000
         C            0.299251662330     1.126635285270     0.000972560681    12.000000000000
         C            1.690322662330     0.892319285270     0.000935560681    12.000000000000
         C           -2.521214337670     0.369469285270     0.001267560681    12.000000000000
         H           -0.216397337670     2.075009285270     0.000968560681     1.007825032230
         H            0.723267662330    -2.031421714730     0.001017560681     1.007825032230
         H            2.490768762330     1.620816685270    -0.099098439319     1.007825032230
         H           -3.471870337670    -0.161297714730     0.001344560681     1.007825032230
         H           -2.439925337670     0.993753285270    -0.893848439319     1.007825032230
         H           -2.439671337670     0.993573285270     0.896486560681     1.007825032230

  Basis Set: AUG-CC-PVTZ
    Blend: AUG-CC-PVTZ
  Basis Set: (AUG-CC-PVTZ AUX)
    Blend: AUG-CC-PVTZ-JKFIT
	 Reference Energy          =    -338.7989278080692657 [Eh]
	 Singles Energy            =      -0.0000000000000000 [Eh]
	 Same-Spin Energy          =      -0.3532887906226795 [Eh]
	 Opposite-Spin Energy      =      -1.0834137842892337 [Eh]
	 Correlation Energy        =      -1.4367025749119133 [Eh]
	 Total Energy              =    -340.2356303829811850 [Eh]

	 ================> DF-SCS-MP2 Energies <==================
	-----------------------------------------------------------
	 SCS Same-Spin Scale       =       0.3333333333333333 [-]
	 SCS Opposite-Spin Scale   =       1.2000000000000000 [-]
	 SCS Same-Spin Energy      =      -0.1177629302075598 [Eh]
	 SCS Opposite-Spin Energy  =      -1.3000965411470804 [Eh]
	 SCS Correlation Energy    =      -1.4178594713546402 [Eh]
	 SCS Total Energy          =    -340.2167872794238974 [Eh]
	-----------------------------------------------------------

  Dipole Moment: [D]
     X:    -3.1345      Y:     0.6403      Z:    -0.0715     Total:     3.2000

*** Psi4 exiting successfully. Buy a developer a beer!
