                               Psi4 1.3.2 release

  ==> Input File <==

--------------------------------------------------------------------------
#psi4
#
memory 32 gb

molecule  {
0 1
  O       -1.4607440    -0.6783760    -0.0000110
  N        0.8364910    -1.0546300    -0.0000300
  N        2.0492790    -0.4487200    -0.0000870
  C       -0.2000590    -0.1785130    -0.0000310
  C        0.3504873     1.0933302     0.2999380
  C        1.7415550     0.8590090    -0.0000990
  C       -2.4699820     0.3361590     0.0002330
  H       -0.1651650     2.0416990    -0.0000660
  H        0.7745000    -2.0647320    -0.0000170
  H        2.5420040     1.5875080    -0.0001330
  H       -3.4206380    -0.1946080     0.0003100
  H       -2.3886930     0.9604430    -0.8948830
  H       -2.3884390     0.9602630     0.8954520
units angstrom
no_reorient  #important for SAPT in psi4, default
symmetry c1  #important for SAPT in psi4, default
}

set PROPERTIES_ORIGIN ["COM"]
properties('MP2/aug-cc-pvtz', properties = ['dipole'])
--------------------------------------------------------------------------

    Molecular point group: c1
  Charge       = 0
  Multiplicity = 1
  Basis Set: AUG-CC-PVTZ
    Blend: AUG-CC-PVTZ
  Basis Set: (AUG-CC-PVTZ AUX)
    Blend: AUG-CC-PVTZ-JKFIT

    Orbital Energies [Eh]
    ---------------------

    Doubly Occupied:

       1A    -20.615801     2A    -15.633527     3A    -15.583220
       4A    -11.351894     5A    -11.300672     6A    -11.263226
       7A    -11.227698     8A     -1.442685     9A     -1.358134
      10A     -1.093226    11A     -1.042281    12A     -0.961961
      13A     -0.814686    14A     -0.798963    15A     -0.755080
      16A     -0.681346    17A     -0.646213    18A     -0.621305
      19A     -0.605763    20A     -0.583019    21A     -0.574510
      22A     -0.524270    23A     -0.507215    24A     -0.453586
      25A     -0.365926    26A     -0.327264

  @DF-RHF Final Energy:  -338.77720514196665

   => Energetics <=

    Nuclear Repulsion Energy =            294.6891957405699713
    One-Electron Energy =               -1044.6658647087133431
    Two-Electron Energy =                 411.1994638261767250
    Total Energy =                       -338.7772051419666468
  Basis Set: (AUG-CC-PVTZ AUX)
    Blend: AUG-CC-PVTZ-RI
    Molecular point group: c1

    Geometry (in Angstrom), charge = 0, multiplicity = 1:

       Center              X                  Y                   Z               Mass
    ------------   -----------------  -----------------  -----------------  -----------------
         O           -1.511976771363    -0.645066367599    -0.036721034000    15.994914619570
         N            0.785258228637    -1.021320367599    -0.036740034000    14.003074004430
         N            1.998046228637    -0.415410367599    -0.036797034000    14.003074004430
         C           -0.251291771363    -0.145203367599    -0.036741034000    12.000000000000
         C            0.299254528637     1.126639832401     0.263227966000    12.000000000000
         C            1.690322228637     0.892318632401    -0.036809034000    12.000000000000
         C           -2.521214771363     0.369468632401    -0.036477034000    12.000000000000
         H           -0.216397771363     2.075008632401    -0.036776034000     1.007825032230
         H            0.723267228637    -2.031422367599    -0.036727034000     1.007825032230
         H            2.490771228637     1.620817632401    -0.036843034000     1.007825032230
         H           -3.471870771363    -0.161298367599    -0.036400034000     1.007825032230
         H           -2.439925771363     0.993752632401    -0.931593034000     1.007825032230
         H           -2.439671771363     0.993572632401     0.858741966000     1.007825032230

  Basis Set: AUG-CC-PVTZ
    Blend: AUG-CC-PVTZ
  Basis Set: (AUG-CC-PVTZ AUX)
    Blend: AUG-CC-PVTZ-JKFIT
	 Reference Energy          =    -338.7772051419666468 [Eh]
	 Singles Energy            =      -0.0000000000000000 [Eh]
	 Same-Spin Energy          =      -0.3538916088872691 [Eh]
	 Opposite-Spin Energy      =      -1.0860249904075485 [Eh]
	 Correlation Energy        =      -1.4399165992948175 [Eh]
	 Total Energy              =    -340.2171217412614510 [Eh]

	 ================> DF-SCS-MP2 Energies <==================
	-----------------------------------------------------------
	 SCS Same-Spin Scale       =       0.3333333333333333 [-]
	 SCS Opposite-Spin Scale   =       1.2000000000000000 [-]
	 SCS Same-Spin Energy      =      -0.1179638696290897 [Eh]
	 SCS Opposite-Spin Energy  =      -1.3032299884890581 [Eh]
	 SCS Correlation Energy    =      -1.4211938581181478 [Eh]
	 SCS Total Energy          =    -340.1983990000848053 [Eh]
	-----------------------------------------------------------

  Dipole Moment: [D]
     X:    -3.0578      Y:     0.4434      Z:    -0.3170     Total:     3.1060

*** Psi4 exiting successfully. Buy a developer a beer!
