                               Psi4 1.3.2 release

  ==> Input File <==

--------------------------------------------------------------------------
#psi4
#
memory 32 gb

molecule  {
0 1
  O       -1.4607440    -0.6783760    -0.0000110
  N        0.8364910    -1.0546300    -0.0000300
  N        2.0492790    -0.4487200    -0.0000870
  C       -0.2000590    -0.1785130    -0.0000310
  C        0.3504840     1.0933250    -0.0000620
  C        1.7415550     0.8590090    -0.0000990
  C       -2.4699820     0.3361590     0.0002330
  H       -0.1651583     2.0417028     0.2499340
  H        0.7745000    -2.0647320    -0.0000170
  H        2.5420040     1.5875080    -0.0001330
  H       -3.4206380    -0.1946080     0.0003100
  H       -2.3886930     0.9604430    -0.8948830
  H       -2.3884390     0.9602630     0.8954520
units angstrom
no_reorient  #important for SAPT in psi4, default
symmetry c1  #important for SAPT in psi4, default
}

set PROPERTIES_ORIGIN ["COM"]
properties('MP2/aug-cc-pvtz', properties = ['dipole'])
--------------------------------------------------------------------------

    Molecular point group: c1
  Charge       = 0
  Multiplicity = 1
  Basis Set: AUG-CC-PVTZ
    Blend: AUG-CC-PVTZ
  Basis Set: (AUG-CC-PVTZ AUX)
    Blend: AUG-CC-PVTZ-JKFIT

    Orbital Energies [Eh]
    ---------------------

    Doubly Occupied:

       1A    -20.613073     2A    -15.630966     3A    -15.581291
       4A    -11.343841     5A    -11.300104     6A    -11.257804
       7A    -11.222296     8A     -1.440407     9A     -1.356878
      10A     -1.091715    11A     -1.048271    12A     -0.961431
      13A     -0.818104    14A     -0.797917    15A     -0.754910
      16A     -0.679951    17A     -0.648470    18A     -0.624999
      19A     -0.601709    20A     -0.592745    21A     -0.579048
      22A     -0.527275    23A     -0.506823    24A     -0.454218
      25A     -0.366519    26A     -0.326050

  @DF-RHF Final Energy:  -338.79613883279512

   => Energetics <=

    Nuclear Repulsion Energy =            295.5970426430395719
    One-Electron Energy =               -1046.5327344909960630
    Two-Electron Energy =                 412.1395530151613684
    Total Energy =                       -338.7961388327951227
  Basis Set: (AUG-CC-PVTZ AUX)
    Blend: AUG-CC-PVTZ-RI
    Molecular point group: c1

    Geometry (in Angstrom), charge = 0, multiplicity = 1:

       Center              X                  Y                   Z               Mass
    ------------   -----------------  -----------------  -----------------  -----------------
         O           -1.511976436348    -0.645065770236    -0.002574051867    15.994914619570
         N            0.785258563652    -1.021319770236    -0.002593051867    14.003074004430
         N            1.998046563652    -0.415409770236    -0.002650051867    14.003074004430
         C           -0.251291436348    -0.145202770236    -0.002594051867    12.000000000000
         C            0.299251563652     1.126635229764    -0.002625051867    12.000000000000
         C            1.690322563652     0.892319229764    -0.002662051867    12.000000000000
         C           -2.521214436348     0.369469229764    -0.002330051867    12.000000000000
         H           -0.216390736348     2.075013029764     0.247370948133     1.007825032230
         H            0.723267563652    -2.031421770236    -0.002580051867     1.007825032230
         H            2.490771563652     1.620818229764    -0.002696051867     1.007825032230
         H           -3.471870436348    -0.161297770236    -0.002253051867     1.007825032230
         H           -2.439925436348     0.993753229764    -0.897446051867     1.007825032230
         H           -2.439671436348     0.993573229764     0.892888948133     1.007825032230

  Basis Set: AUG-CC-PVTZ
    Blend: AUG-CC-PVTZ
  Basis Set: (AUG-CC-PVTZ AUX)
    Blend: AUG-CC-PVTZ-JKFIT
	 Reference Energy          =    -338.7961388327951227 [Eh]
	 Singles Energy            =      -0.0000000000000000 [Eh]
	 Same-Spin Energy          =      -0.3533658896322894 [Eh]
	 Opposite-Spin Energy      =      -1.0836216811550816 [Eh]
	 Correlation Energy        =      -1.4369875707873709 [Eh]
	 Total Energy              =    -340.2331264035825029 [Eh]

	 ================> DF-SCS-MP2 Energies <==================
	-----------------------------------------------------------
	 SCS Same-Spin Scale       =       0.3333333333333333 [-]
	 SCS Opposite-Spin Scale   =       1.2000000000000000 [-]
	 SCS Same-Spin Energy      =      -0.1177886298774298 [Eh]
	 SCS Opposite-Spin Energy  =      -1.3003460173860979 [Eh]
	 SCS Correlation Energy    =      -1.4181346472635277 [Eh]
	 SCS Total Energy          =    -340.2142734800586368 [Eh]
	-----------------------------------------------------------

  Dipole Moment: [D]
     X:    -3.1068      Y:     0.5995      Z:     0.2197     Total:     3.1717

*** Psi4 exiting successfully. Buy a developer a beer!
