                               Psi4 1.3.2 release

  ==> Input File <==

--------------------------------------------------------------------------
#psi4
#
memory 32 gb

molecule  {
0 1
  O       -1.4607440    -0.6783760    -0.0000110
  N        0.8364910    -1.0546300    -0.0000300
  N        2.0492790    -0.4487200    -0.0000870
  C       -0.2000590    -0.1785130    -0.0000310
  C        0.3504840     1.0933250    -0.0000620
  C        1.7415550     0.8590090    -0.0000990
  C       -2.4699820     0.3361590     0.0002330
  H       -0.1651650     2.0416990    -0.0000660
  H        0.7745000    -2.0647320    -0.0000170
  H        2.5419953     1.5875033    -0.3001330
  H       -3.4206380    -0.1946080     0.0003100
  H       -2.3886930     0.9604430    -0.8948830
  H       -2.3884390     0.9602630     0.8954520
units angstrom
no_reorient  #important for SAPT in psi4, default
symmetry c1  #important for SAPT in psi4, default
}

set PROPERTIES_ORIGIN ["COM"]
properties('MP2/aug-cc-pvtz', properties = ['dipole'])
--------------------------------------------------------------------------

    Molecular point group: c1
  Charge       = 0
  Multiplicity = 1
  Basis Set: AUG-CC-PVTZ
    Blend: AUG-CC-PVTZ
  Basis Set: (AUG-CC-PVTZ AUX)
    Blend: AUG-CC-PVTZ-JKFIT

    Orbital Energies [Eh]
    ---------------------

    Doubly Occupied:

       1A    -20.612832     2A    -15.631520     3A    -15.582143
       4A    -11.343336     5A    -11.300385     6A    -11.260862
       7A    -11.220550     8A     -1.440302     9A     -1.357200
      10A     -1.091313    11A     -1.048975    12A     -0.961678
      13A     -0.814970    14A     -0.798613    15A     -0.754506
      16A     -0.679901    17A     -0.649966    18A     -0.625637
      19A     -0.603362    20A     -0.594843    21A     -0.572655
      22A     -0.526962    23A     -0.506424    24A     -0.454529
      25A     -0.365925    26A     -0.326016

  @DF-RHF Final Energy:  -338.79326474221415

   => Energetics <=

    Nuclear Repulsion Energy =            295.5572658419877143
    One-Electron Energy =               -1046.4502520361691040
    Two-Electron Energy =                 412.0997214519672411
    Total Energy =                       -338.7932647422141486
  Basis Set: (AUG-CC-PVTZ AUX)
    Blend: AUG-CC-PVTZ-RI
    Molecular point group: c1

    Geometry (in Angstrom), charge = 0, multiplicity = 1:

       Center              X                  Y                   Z               Mass
    ------------   -----------------  -----------------  -----------------  -----------------
         O           -1.511976278053    -0.645065682865     0.003079339280    15.994914619570
         N            0.785258721947    -1.021319682865     0.003060339280    14.003074004430
         N            1.998046721947    -0.415409682865     0.003003339280    14.003074004430
         C           -0.251291278053    -0.145202682865     0.003059339280    12.000000000000
         C            0.299251721947     1.126635317135     0.003028339280    12.000000000000
         C            1.690322721947     0.892319317135     0.002991339280    12.000000000000
         C           -2.521214278053     0.369469317135     0.003323339280    12.000000000000
         H           -0.216397278053     2.075009317135     0.003024339280     1.007825032230
         H            0.723267721947    -2.031421682865     0.003073339280     1.007825032230
         H            2.490763021947     1.620813617135    -0.297042660720     1.007825032230
         H           -3.471870278053    -0.161297682865     0.003400339280     1.007825032230
         H           -2.439925278053     0.993753317135    -0.891792660720     1.007825032230
         H           -2.439671278053     0.993573317135     0.898542339280     1.007825032230

  Basis Set: AUG-CC-PVTZ
    Blend: AUG-CC-PVTZ
  Basis Set: (AUG-CC-PVTZ AUX)
    Blend: AUG-CC-PVTZ-JKFIT
	 Reference Energy          =    -338.7932647422141486 [Eh]
	 Singles Energy            =      -0.0000000000000000 [Eh]
	 Same-Spin Energy          =      -0.3536312922469850 [Eh]
	 Opposite-Spin Energy      =      -1.0841837819466162 [Eh]
	 Correlation Energy        =      -1.4378150741936013 [Eh]
	 Total Energy              =    -340.2310798164077710 [Eh]

	 ================> DF-SCS-MP2 Energies <==================
	-----------------------------------------------------------
	 SCS Same-Spin Scale       =       0.3333333333333333 [-]
	 SCS Opposite-Spin Scale   =       1.2000000000000000 [-]
	 SCS Same-Spin Energy      =      -0.1178770974156617 [Eh]
	 SCS Opposite-Spin Energy  =      -1.3010205383359394 [Eh]
	 SCS Correlation Energy    =      -1.4188976357516012 [Eh]
	 SCS Total Energy          =    -340.2121623779657398 [Eh]
	-----------------------------------------------------------

  Dipole Moment: [D]
     X:    -3.1819      Y:     0.5895      Z:    -0.2111     Total:     3.2430

*** Psi4 exiting successfully. Buy a developer a beer!
