                               Psi4 1.3.2 release

  ==> Input File <==

--------------------------------------------------------------------------
#psi4
#
memory 32 gb

molecule  {
0 1
  O       -1.4607440    -0.6783760    -0.0000110
  N        0.8364910    -1.0546300    -0.0000300
  N        2.0492790    -0.4487200    -0.0000870
  C       -0.2000590    -0.1785130    -0.0000310
  C        0.3504840     1.0933250    -0.0000620
  C        1.7415550     0.8590090    -0.0000990
  C       -2.4699820     0.3361590     0.0002330
  H       -0.1651570     2.0417036     0.2999340
  H        0.7745000    -2.0647320    -0.0000170
  H        2.5420040     1.5875080    -0.0001330
  H       -3.4206380    -0.1946080     0.0003100
  H       -2.3886930     0.9604430    -0.8948830
  H       -2.3884390     0.9602630     0.8954520
units angstrom
no_reorient  #important for SAPT in psi4, default
symmetry c1  #important for SAPT in psi4, default
}

set PROPERTIES_ORIGIN ["COM"]
properties('MP2/aug-cc-pvtz', properties = ['dipole'])
--------------------------------------------------------------------------

    Molecular point group: c1
  Charge       = 0
  Multiplicity = 1
  Basis Set: AUG-CC-PVTZ
    Blend: AUG-CC-PVTZ
  Basis Set: (AUG-CC-PVTZ AUX)
    Blend: AUG-CC-PVTZ-JKFIT

    Orbital Energies [Eh]
    ---------------------

    Doubly Occupied:

       1A    -20.613281     2A    -15.631199     3A    -15.581495
       4A    -11.344215     5A    -11.300064     6A    -11.257990
       7A    -11.223203     8A     -1.440595     9A     -1.357111
      10A     -1.091901    11A     -1.048175    12A     -0.961407
      13A     -0.818120    14A     -0.797138    15A     -0.754889
      16A     -0.680104    17A     -0.647931    18A     -0.624812
      19A     -0.601983    20A     -0.591181    21A     -0.578224
      22A     -0.527056    23A     -0.506865    24A     -0.454310
      25A     -0.366518    26A     -0.326203

  @DF-RHF Final Energy:  -338.79441528013831

   => Energetics <=

    Nuclear Repulsion Energy =            295.5499739160683248
    One-Electron Energy =               -1046.4368394136461120
    Two-Electron Energy =                 412.0924502174394775
    Total Energy =                       -338.7944152801383098
  Basis Set: (AUG-CC-PVTZ AUX)
    Blend: AUG-CC-PVTZ-RI
    Molecular point group: c1

    Geometry (in Angstrom), charge = 0, multiplicity = 1:

       Center              X                  Y                   Z               Mass
    ------------   -----------------  -----------------  -----------------  -----------------
         O           -1.511976449710    -0.645065778459    -0.003087996517    15.994914619570
         N            0.785258550290    -1.021319778459    -0.003106996517    14.003074004430
         N            1.998046550290    -0.415409778459    -0.003163996517    14.003074004430
         C           -0.251291449710    -0.145202778459    -0.003107996517    12.000000000000
         C            0.299251550290     1.126635221541    -0.003138996517    12.000000000000
         C            1.690322550290     0.892319221541    -0.003175996517    12.000000000000
         C           -2.521214449710     0.369469221541    -0.002843996517    12.000000000000
         H           -0.216389449710     2.075013821541     0.296857003483     1.007825032230
         H            0.723267550290    -2.031421778459    -0.003093996517     1.007825032230
         H            2.490771550290     1.620818221541    -0.003209996517     1.007825032230
         H           -3.471870449710    -0.161297778459    -0.002766996517     1.007825032230
         H           -2.439925449710     0.993753221541    -0.897959996517     1.007825032230
         H           -2.439671449710     0.993573221541     0.892375003483     1.007825032230

  Basis Set: AUG-CC-PVTZ
    Blend: AUG-CC-PVTZ
  Basis Set: (AUG-CC-PVTZ AUX)
    Blend: AUG-CC-PVTZ-JKFIT
	 Reference Energy          =    -338.7944152801383098 [Eh]
	 Singles Energy            =      -0.0000000000000000 [Eh]
	 Same-Spin Energy          =      -0.3534170274662717 [Eh]
	 Opposite-Spin Energy      =      -1.0837687979102233 [Eh]
	 Correlation Energy        =      -1.4371858253764951 [Eh]
	 Total Energy              =    -340.2316011055148124 [Eh]

	 ================> DF-SCS-MP2 Energies <==================
	-----------------------------------------------------------
	 SCS Same-Spin Scale       =       0.3333333333333333 [-]
	 SCS Opposite-Spin Scale   =       1.2000000000000000 [-]
	 SCS Same-Spin Energy      =      -0.1178056758220906 [Eh]
	 SCS Opposite-Spin Energy  =      -1.3005225574922679 [Eh]
	 SCS Correlation Energy    =      -1.4183282333143583 [Eh]
	 SCS Total Energy          =    -340.2127435134526650 [Eh]
	-----------------------------------------------------------

  Dipole Moment: [D]
     X:    -3.0975      Y:     0.5795      Z:     0.2617     Total:     3.1621

*** Psi4 exiting successfully. Buy a developer a beer!
