                               Psi4 1.3.2 release

  ==> Input File <==

--------------------------------------------------------------------------
#psi4
#
memory 32 gb

molecule  {
0 1
  O       -1.4607440    -0.6783760    -0.0000110
  N        0.8364910    -1.0546300    -0.0000300
  N        2.0492790    -0.4487200    -0.0000870
  C       -0.2000590    -0.1785130    -0.0000310
  C        0.3504840     1.0933250    -0.0000620
  C        1.7415550     0.8590090    -0.0000990
  C       -2.4699820     0.3361590     0.0002330
  H       -0.1651623     2.0417005     0.0999340
  H        0.7745000    -2.0647320    -0.0000170
  H        2.5420040     1.5875080    -0.0001330
  H       -3.4206380    -0.1946080     0.0003100
  H       -2.3886930     0.9604430    -0.8948830
  H       -2.3884390     0.9602630     0.8954520
units angstrom
no_reorient  #important for SAPT in psi4, default
symmetry c1  #important for SAPT in psi4, default
}

set PROPERTIES_ORIGIN ["COM"]
properties('MP2/aug-cc-pvtz', properties = ['dipole'])
--------------------------------------------------------------------------

    Molecular point group: c1
  Charge       = 0
  Multiplicity = 1
  Basis Set: AUG-CC-PVTZ
    Blend: AUG-CC-PVTZ
  Basis Set: (AUG-CC-PVTZ AUX)
    Blend: AUG-CC-PVTZ-JKFIT

    Orbital Energies [Eh]
    ---------------------

    Doubly Occupied:

       1A    -20.612663     2A    -15.630516     3A    -15.580903
       4A    -11.343119     5A    -11.300179     6A    -11.257453
       7A    -11.220530     8A     -1.440040     9A     -1.356429
      10A     -1.091362    11A     -1.048488    12A     -0.961484
      13A     -0.818143    14A     -0.799551    15A     -0.754962
      16A     -0.679615    17A     -0.649761    18A     -0.625429
      19A     -0.600569    20A     -0.596814    21A     -0.580075
      22A     -0.527632    23A     -0.506738    24A     -0.454032
      25A     -0.366537    26A     -0.325761

  @DF-RHF Final Energy:  -338.79906258618507

   => Energetics <=

    Nuclear Repulsion Energy =            295.6902097971342869
    One-Electron Energy =               -1046.7209701806539215
    Two-Electron Energy =                 412.2316977973346184
    Total Energy =                       -338.7990625861850731
  Basis Set: (AUG-CC-PVTZ AUX)
    Blend: AUG-CC-PVTZ-RI
    Molecular point group: c1

    Geometry (in Angstrom), charge = 0, multiplicity = 1:

       Center              X                  Y                   Z               Mass
    ------------   -----------------  -----------------  -----------------  -----------------
         O           -1.511976395232    -0.645065746594    -0.001032217918    15.994914619570
         N            0.785258604768    -1.021319746594    -0.001051217918    14.003074004430
         N            1.998046604768    -0.415409746594    -0.001108217918    14.003074004430
         C           -0.251291395232    -0.145202746594    -0.001052217918    12.000000000000
         C            0.299251604768     1.126635253406    -0.001083217918    12.000000000000
         C            1.690322604768     0.892319253406    -0.001120217918    12.000000000000
         C           -2.521214395232     0.369469253406    -0.000788217918    12.000000000000
         H           -0.216394695232     2.075010753406     0.098912782082     1.007825032230
         H            0.723267604768    -2.031421746594    -0.001038217918     1.007825032230
         H            2.490771604768     1.620818253406    -0.001154217918     1.007825032230
         H           -3.471870395232    -0.161297746594    -0.000711217918     1.007825032230
         H           -2.439925395232     0.993753253406    -0.895904217918     1.007825032230
         H           -2.439671395232     0.993573253406     0.894430782082     1.007825032230

  Basis Set: AUG-CC-PVTZ
    Blend: AUG-CC-PVTZ
  Basis Set: (AUG-CC-PVTZ AUX)
    Blend: AUG-CC-PVTZ-JKFIT
	 Reference Energy          =    -338.7990625861850731 [Eh]
	 Singles Energy            =      -0.0000000000000000 [Eh]
	 Same-Spin Energy          =      -0.3532645225475866 [Eh]
	 Opposite-Spin Energy      =      -1.0833680787275801 [Eh]
	 Correlation Energy        =      -1.4366326012751667 [Eh]
	 Total Energy              =    -340.2356951874602373 [Eh]

	 ================> DF-SCS-MP2 Energies <==================
	-----------------------------------------------------------
	 SCS Same-Spin Scale       =       0.3333333333333333 [-]
	 SCS Opposite-Spin Scale   =       1.2000000000000000 [-]
	 SCS Same-Spin Energy      =      -0.1177548408491955 [Eh]
	 SCS Opposite-Spin Energy  =      -1.3000416944730961 [Eh]
	 SCS Correlation Energy    =      -1.4177965353222917 [Eh]
	 SCS Total Energy          =    -340.2168591215073548 [Eh]
	-----------------------------------------------------------

  Dipole Moment: [D]
     X:    -3.1249      Y:     0.6391      Z:     0.0893     Total:     3.1908

*** Psi4 exiting successfully. Buy a developer a beer!
