                               Psi4 1.3.2 release

  ==> Input File <==

--------------------------------------------------------------------------
#psi4
#
memory 32 gb

molecule  {
0 1
  O       -1.4607440    -0.6783760    -0.0000110
  N        0.8364910    -1.0546300    -0.0000300
  N        2.0492790    -0.4487200    -0.0000870
  C       -0.2000590    -0.1785130    -0.0000310
  C        0.3504840     1.0933250    -0.0000620
  C        1.7415550     0.8590090    -0.0000990
  C       -2.4699820     0.3361590     0.0002330
  H       -0.1651650     2.0416990    -0.0000660
  H        0.7745000    -2.0647320    -0.0000170
  H        2.5420026     1.5875072    -0.0501330
  H       -3.4206380    -0.1946080     0.0003100
  H       -2.3886930     0.9604430    -0.8948830
  H       -2.3884390     0.9602630     0.8954520
units angstrom
no_reorient  #important for SAPT in psi4, default
symmetry c1  #important for SAPT in psi4, default
}

set PROPERTIES_ORIGIN ["COM"]
properties('MP2/aug-cc-pvtz', properties = ['dipole'])
--------------------------------------------------------------------------

    Molecular point group: c1
  Charge       = 0
  Multiplicity = 1
  Basis Set: AUG-CC-PVTZ
    Blend: AUG-CC-PVTZ
  Basis Set: (AUG-CC-PVTZ AUX)
    Blend: AUG-CC-PVTZ-JKFIT

    Orbital Energies [Eh]
    ---------------------

    Doubly Occupied:

       1A    -20.612590     2A    -15.630461     3A    -15.580866
       4A    -11.342990     5A    -11.300199     6A    -11.257487
       7A    -11.220199     8A     -1.439978     9A     -1.356367
      10A     -1.091294    11A     -1.048548    12A     -0.961500
      13A     -0.818054    14A     -0.799856    15A     -0.754961
      16A     -0.679554    17A     -0.650049    18A     -0.625525
      19A     -0.600206    20A     -0.597771    21A     -0.580004
      22A     -0.527675    23A     -0.506714    24A     -0.454013
      25A     -0.366525    26A     -0.325715

  @DF-RHF Final Energy:  -338.79940155978619

   => Energetics <=

    Nuclear Repulsion Energy =            295.7040951693709872
    One-Electron Energy =               -1046.7487954957052807
    Two-Electron Energy =                 412.2452987665481601
    Total Energy =                       -338.7994015597861903
  Basis Set: (AUG-CC-PVTZ AUX)
    Blend: AUG-CC-PVTZ-RI
    Molecular point group: c1

    Geometry (in Angstrom), charge = 0, multiplicity = 1:

       Center              X                  Y                   Z               Mass
    ------------   -----------------  -----------------  -----------------  -----------------
         O           -1.511976353089    -0.645065722953     0.000509616032    15.994914619570
         N            0.785258646911    -1.021319722953     0.000490616032    14.003074004430
         N            1.998046646911    -0.415409722953     0.000433616032    14.003074004430
         C           -0.251291353089    -0.145202722953     0.000489616032    12.000000000000
         C            0.299251646911     1.126635277047     0.000458616032    12.000000000000
         C            1.690322646911     0.892319277047     0.000421616032    12.000000000000
         C           -2.521214353089     0.369469277047     0.000753616032    12.000000000000
         H           -0.216397353089     2.075009277047     0.000454616032     1.007825032230
         H            0.723267646911    -2.031421722953     0.000503616032     1.007825032230
         H            2.490770246911     1.620817477047    -0.049612383968     1.007825032230
         H           -3.471870353089    -0.161297722953     0.000830616032     1.007825032230
         H           -2.439925353089     0.993753277047    -0.894362383968     1.007825032230
         H           -2.439671353089     0.993573277047     0.895972616032     1.007825032230

  Basis Set: AUG-CC-PVTZ
    Blend: AUG-CC-PVTZ
  Basis Set: (AUG-CC-PVTZ AUX)
    Blend: AUG-CC-PVTZ-JKFIT
	 Reference Energy          =    -338.7994015597861903 [Eh]
	 Singles Energy            =      -0.0000000000000000 [Eh]
	 Same-Spin Energy          =      -0.3532556554347256 [Eh]
	 Opposite-Spin Energy      =      -1.0833479654654881 [Eh]
	 Correlation Energy        =      -1.4366036209002138 [Eh]
	 Total Energy              =    -340.2360051806863908 [Eh]

	 ================> DF-SCS-MP2 Energies <==================
	-----------------------------------------------------------
	 SCS Same-Spin Scale       =       0.3333333333333333 [-]
	 SCS Opposite-Spin Scale   =       1.2000000000000000 [-]
	 SCS Same-Spin Energy      =      -0.1177518851449085 [Eh]
	 SCS Opposite-Spin Energy  =      -1.3000175585585856 [Eh]
	 SCS Correlation Energy    =      -1.4177694437034942 [Eh]
	 SCS Total Energy          =    -340.2171710034896819 [Eh]
	-----------------------------------------------------------

  Dipole Moment: [D]
     X:    -3.1299      Y:     0.6452      Z:    -0.0356     Total:     3.1960

*** Psi4 exiting successfully. Buy a developer a beer!
