                               Psi4 1.3.2 release

  ==> Input File <==

--------------------------------------------------------------------------
#psi4
#
memory 32 gb

molecule  {
0 1
  O       -1.4607440    -0.6783760    -0.0000110
  N        0.8364910    -1.0546300    -0.0000300
  N        2.0492790    -0.4487200    -0.0000870
  C       -0.2000590    -0.1785130    -0.0000310
  C        0.3504851     1.0933267     0.0999380
  C        1.7415550     0.8590090    -0.0000990
  C       -2.4699820     0.3361590     0.0002330
  H       -0.1651650     2.0416990    -0.0000660
  H        0.7745000    -2.0647320    -0.0000170
  H        2.5420040     1.5875080    -0.0001330
  H       -3.4206380    -0.1946080     0.0003100
  H       -2.3886930     0.9604430    -0.8948830
  H       -2.3884390     0.9602630     0.8954520
units angstrom
no_reorient  #important for SAPT in psi4, default
symmetry c1  #important for SAPT in psi4, default
}

set PROPERTIES_ORIGIN ["COM"]
properties('MP2/aug-cc-pvtz', properties = ['dipole'])
--------------------------------------------------------------------------

    Molecular point group: c1
  Charge       = 0
  Multiplicity = 1
  Basis Set: AUG-CC-PVTZ
    Blend: AUG-CC-PVTZ
  Basis Set: (AUG-CC-PVTZ AUX)
    Blend: AUG-CC-PVTZ-JKFIT

    Orbital Energies [Eh]
    ---------------------

    Doubly Occupied:

       1A    -20.612949     2A    -15.630771     3A    -15.581075
       4A    -11.344018     5A    -11.300247     6A    -11.258072
       7A    -11.221030     8A     -1.440278     9A     -1.356534
      10A     -1.091497    11A     -1.047847    12A     -0.961557
      13A     -0.817713    14A     -0.799738    15A     -0.754959
      16A     -0.679795    17A     -0.649465    18A     -0.624908
      19A     -0.602561    20A     -0.594083    21A     -0.579943
      22A     -0.527392    23A     -0.506791    24A     -0.453970
      25A     -0.366443    26A     -0.325851

  @DF-RHF Final Energy:  -338.79714476171705

   => Energetics <=

    Nuclear Repulsion Energy =            295.5922178296860920
    One-Electron Energy =               -1046.5197491449441713
    Two-Electron Energy =                 412.1303865535410296
    Total Energy =                       -338.7971447617170497
  Basis Set: (AUG-CC-PVTZ AUX)
    Blend: AUG-CC-PVTZ-RI
    Molecular point group: c1

    Geometry (in Angstrom), charge = 0, multiplicity = 1:

       Center              X                  Y                   Z               Mass
    ------------   -----------------  -----------------  -----------------  -----------------
         O           -1.511976502107    -0.645065939237    -0.012243230412    15.994914619570
         N            0.785258497893    -1.021319939237    -0.012262230412    14.003074004430
         N            1.998046497893    -0.415409939237    -0.012319230412    14.003074004430
         C           -0.251291502107    -0.145202939237    -0.012263230412    12.000000000000
         C            0.299252597893     1.126636760763     0.087705769588    12.000000000000
         C            1.690322497893     0.892319060763    -0.012331230412    12.000000000000
         C           -2.521214502107     0.369469060763    -0.011999230412    12.000000000000
         H           -0.216397502107     2.075009060763    -0.012298230412     1.007825032230
         H            0.723267497893    -2.031421939237    -0.012249230412     1.007825032230
         H            2.490771497893     1.620818060763    -0.012365230412     1.007825032230
         H           -3.471870502107    -0.161297939237    -0.011922230412     1.007825032230
         H           -2.439925502107     0.993753060763    -0.907115230412     1.007825032230
         H           -2.439671502107     0.993573060763     0.883219769588     1.007825032230

  Basis Set: AUG-CC-PVTZ
    Blend: AUG-CC-PVTZ
  Basis Set: (AUG-CC-PVTZ AUX)
    Blend: AUG-CC-PVTZ-JKFIT
	 Reference Energy          =    -338.7971447617170497 [Eh]
	 Singles Energy            =      -0.0000000000000000 [Eh]
	 Same-Spin Energy          =      -0.3533223702046936 [Eh]
	 Opposite-Spin Energy      =      -1.0835777653974588 [Eh]
	 Correlation Energy        =      -1.4369001356021522 [Eh]
	 Total Energy              =    -340.2340448973192224 [Eh]

	 ================> DF-SCS-MP2 Energies <==================
	-----------------------------------------------------------
	 SCS Same-Spin Scale       =       0.3333333333333333 [-]
	 SCS Opposite-Spin Scale   =       1.2000000000000000 [-]
	 SCS Same-Spin Energy      =      -0.1177741234015645 [Eh]
	 SCS Opposite-Spin Energy  =      -1.3002933184769505 [Eh]
	 SCS Correlation Energy    =      -1.4180674418785151 [Eh]
	 SCS Total Energy          =    -340.2152122035955699 [Eh]
	-----------------------------------------------------------

  Dipole Moment: [D]
     X:    -3.1202      Y:     0.6232      Z:    -0.1030     Total:     3.1835

*** Psi4 exiting successfully. Buy a developer a beer!
