                               Psi4 1.3.2 release

  ==> Input File <==

--------------------------------------------------------------------------
#psi4
#
memory 32 gb

molecule  {
0 1
  O       -1.4607440    -0.6783760    -0.0000110
  N        0.8364910    -1.0546300    -0.0000300
  N        2.0492790    -0.4487200    -0.0000870
  C       -0.2000590    -0.1785130    -0.0000310
  C        0.3504840     1.0933250    -0.0000620
  C        1.7415550     0.8590090    -0.0000990
  C       -2.4699820     0.3361590     0.0002330
  H       -0.1651610     2.0417013     0.1499340
  H        0.7745000    -2.0647320    -0.0000170
  H        2.5420040     1.5875080    -0.0001330
  H       -3.4206380    -0.1946080     0.0003100
  H       -2.3886930     0.9604430    -0.8948830
  H       -2.3884390     0.9602630     0.8954520
units angstrom
no_reorient  #important for SAPT in psi4, default
symmetry c1  #important for SAPT in psi4, default
}

set PROPERTIES_ORIGIN ["COM"]
properties('MP2/aug-cc-pvtz', properties = ['dipole'])
--------------------------------------------------------------------------

    Molecular point group: c1
  Charge       = 0
  Multiplicity = 1
  Basis Set: AUG-CC-PVTZ
    Blend: AUG-CC-PVTZ
  Basis Set: (AUG-CC-PVTZ AUX)
    Blend: AUG-CC-PVTZ-JKFIT

    Orbital Energies [Eh]
    ---------------------

    Doubly Occupied:

       1A    -20.612762     2A    -15.630623     3A    -15.580995
       4A    -11.343291     5A    -11.300161     6A    -11.257536
       7A    -11.220954     8A     -1.440128     9A     -1.356536
      10A     -1.091446    11A     -1.048432    12A     -0.961471
      13A     -0.818123    14A     -0.799144    15A     -0.754948
      16A     -0.679701    17A     -0.649419    18A     -0.625318
      19A     -0.601006    20A     -0.595638    21A     -0.579885
      22A     -0.527553    23A     -0.506759    24A     -0.454077
      25A     -0.366531    26A     -0.325830

  @DF-RHF Final Energy:  -338.79841476618338

   => Energetics <=

    Nuclear Repulsion Energy =            295.6676159806601731
    One-Electron Energy =               -1046.6755243895672720
    Two-Electron Energy =                 412.2094936427236576
    Total Energy =                       -338.7984147661833845
  Basis Set: (AUG-CC-PVTZ AUX)
    Blend: AUG-CC-PVTZ-RI
    Molecular point group: c1

    Geometry (in Angstrom), charge = 0, multiplicity = 1:

       Center              X                  Y                   Z               Mass
    ------------   -----------------  -----------------  -----------------  -----------------
         O           -1.511976408595    -0.645065754818    -0.001546162568    15.994914619570
         N            0.785258591405    -1.021319754818    -0.001565162568    14.003074004430
         N            1.998046591405    -0.415409754818    -0.001622162568    14.003074004430
         C           -0.251291408595    -0.145202754818    -0.001566162568    12.000000000000
         C            0.299251591405     1.126635245182    -0.001597162568    12.000000000000
         C            1.690322591405     0.892319245182    -0.001634162568    12.000000000000
         C           -2.521214408595     0.369469245182    -0.001302162568    12.000000000000
         H           -0.216393408595     2.075011545182     0.148398837432     1.007825032230
         H            0.723267591405    -2.031421754818    -0.001552162568     1.007825032230
         H            2.490771591405     1.620818245182    -0.001668162568     1.007825032230
         H           -3.471870408595    -0.161297754818    -0.001225162568     1.007825032230
         H           -2.439925408595     0.993753245182    -0.896418162568     1.007825032230
         H           -2.439671408595     0.993573245182     0.893916837432     1.007825032230

  Basis Set: AUG-CC-PVTZ
    Blend: AUG-CC-PVTZ
  Basis Set: (AUG-CC-PVTZ AUX)
    Blend: AUG-CC-PVTZ-JKFIT
	 Reference Energy          =    -338.7984147661833845 [Eh]
	 Singles Energy            =      -0.0000000000000000 [Eh]
	 Same-Spin Energy          =      -0.3532891451848108 [Eh]
	 Opposite-Spin Energy      =      -1.0834238997679462 [Eh]
	 Correlation Energy        =      -1.4367130449527570 [Eh]
	 Total Energy              =    -340.2351278111361239 [Eh]

	 ================> DF-SCS-MP2 Energies <==================
	-----------------------------------------------------------
	 SCS Same-Spin Scale       =       0.3333333333333333 [-]
	 SCS Opposite-Spin Scale   =       1.2000000000000000 [-]
	 SCS Same-Spin Energy      =      -0.1177630483949369 [Eh]
	 SCS Opposite-Spin Energy  =      -1.3001086797215353 [Eh]
	 SCS Correlation Energy    =      -1.4178717281164723 [Eh]
	 SCS Total Energy          =    -340.2162864942998795 [Eh]
	-----------------------------------------------------------

  Dipole Moment: [D]
     X:    -3.1205      Y:     0.6295      Z:     0.1334     Total:     3.1862

*** Psi4 exiting successfully. Buy a developer a beer!
