                               Psi4 1.3.2 release

  ==> Input File <==

--------------------------------------------------------------------------
#psi4
#
memory 32 gb

molecule  {
0 1
  O       -1.4607440    -0.6783760    -0.0000110
  N        0.8364910    -1.0546300    -0.0000300
  N        2.0492790    -0.4487200    -0.0000870
  C       -0.2000590    -0.1785130    -0.0000310
  C        0.3504840     1.0933250    -0.0000620
  C        1.7415550     0.8590090    -0.0000990
  C       -2.4699820     0.3361590     0.0002330
  H       -0.1651650     2.0416990    -0.0000660
  H        0.7745000    -2.0647320    -0.0000170
  H        2.5419997     1.5875057    -0.1501330
  H       -3.4206380    -0.1946080     0.0003100
  H       -2.3886930     0.9604430    -0.8948830
  H       -2.3884390     0.9602630     0.8954520
units angstrom
no_reorient  #important for SAPT in psi4, default
symmetry c1  #important for SAPT in psi4, default
}

set PROPERTIES_ORIGIN ["COM"]
properties('MP2/aug-cc-pvtz', properties = ['dipole'])
--------------------------------------------------------------------------

    Molecular point group: c1
  Charge       = 0
  Multiplicity = 1
  Basis Set: AUG-CC-PVTZ
    Blend: AUG-CC-PVTZ
  Basis Set: (AUG-CC-PVTZ AUX)
    Blend: AUG-CC-PVTZ-JKFIT

    Orbital Energies [Eh]
    ---------------------

    Doubly Occupied:

       1A    -20.612644     2A    -15.630707     3A    -15.581162
       4A    -11.343067     5A    -11.300241     6A    -11.258275
       7A    -11.220276     8A     -1.440051     9A     -1.356560
      10A     -1.091291    11A     -1.048644    12A     -0.961538
      13A     -0.817219    14A     -0.799605    15A     -0.754854
      16A     -0.679634    17A     -0.650018    18A     -0.625545
      19A     -0.601559    20A     -0.596394    21A     -0.578346
      22A     -0.527532    23A     -0.506653    24A     -0.454142
      25A     -0.366379    26A     -0.325783

  @DF-RHF Final Energy:  -338.79811407869562

   => Energetics <=

    Nuclear Repulsion Energy =            295.6694471778479851
    One-Electron Energy =               -1046.6788871600244875
    Two-Electron Energy =                 412.2113259034808266
    Total Energy =                       -338.7981140786956189
  Basis Set: (AUG-CC-PVTZ AUX)
    Blend: AUG-CC-PVTZ-RI
    Molecular point group: c1

    Geometry (in Angstrom), charge = 0, multiplicity = 1:

       Center              X                  Y                   Z               Mass
    ------------   -----------------  -----------------  -----------------  -----------------
         O           -1.511976323280    -0.645065707535     0.001537505331    15.994914619570
         N            0.785258676720    -1.021319707535     0.001518505331    14.003074004430
         N            1.998046676720    -0.415409707535     0.001461505331    14.003074004430
         C           -0.251291323280    -0.145202707535     0.001517505331    12.000000000000
         C            0.299251676720     1.126635292465     0.001486505331    12.000000000000
         C            1.690322676720     0.892319292465     0.001449505331    12.000000000000
         C           -2.521214323280     0.369469292465     0.001781505331    12.000000000000
         H           -0.216397323280     2.075009292465     0.001482505331     1.007825032230
         H            0.723267676720    -2.031421707535     0.001531505331     1.007825032230
         H            2.490767376720     1.620815992465    -0.148584494669     1.007825032230
         H           -3.471870323280    -0.161297707535     0.001858505331     1.007825032230
         H           -2.439925323280     0.993753292465    -0.893334494669     1.007825032230
         H           -2.439671323280     0.993573292465     0.897000505331     1.007825032230

  Basis Set: AUG-CC-PVTZ
    Blend: AUG-CC-PVTZ
  Basis Set: (AUG-CC-PVTZ AUX)
    Blend: AUG-CC-PVTZ-JKFIT
	 Reference Energy          =    -338.7981140786956189 [Eh]
	 Singles Energy            =      -0.0000000000000000 [Eh]
	 Same-Spin Energy          =      -0.3533436405150456 [Eh]
	 Opposite-Spin Energy      =      -1.0835272348916143 [Eh]
	 Correlation Energy        =      -1.4368708754066599 [Eh]
	 Total Energy              =    -340.2349849541022877 [Eh]

	 ================> DF-SCS-MP2 Energies <==================
	-----------------------------------------------------------
	 SCS Same-Spin Scale       =       0.3333333333333333 [-]
	 SCS Opposite-Spin Scale   =       1.2000000000000000 [-]
	 SCS Same-Spin Energy      =      -0.1177812135050152 [Eh]
	 SCS Opposite-Spin Energy  =      -1.3002326818699370 [Eh]
	 SCS Correlation Energy    =      -1.4180138953749521 [Eh]
	 SCS Total Energy          =    -340.2161279740705595 [Eh]
	-----------------------------------------------------------

  Dipole Moment: [D]
     X:    -3.1420      Y:     0.6321      Z:    -0.1071     Total:     3.2068

*** Psi4 exiting successfully. Buy a developer a beer!
