                               Psi4 1.4a2.dev612

  ==> Input File <==

--------------------------------------------------------------------------
#psi4
#
memory 32 gb

molecule  {
0 1
  N        1.0119030     0.0333230     0.0008060
  N        1.6997840    -1.0566340    -0.4179730
  C       -0.4063900     0.0163860    -0.0081010
  C       -1.1124080     1.1967220    -0.2540550
  C       -1.0729400    -1.1865160     0.2388070
  C        1.8312940     1.0508850     0.4071570
  C       -2.5072630     1.1720280    -0.2304200
  C       -2.4668310    -1.1992430     0.2370020
  C        3.1277520     0.5983640     0.2378140
  C       -3.1875810    -0.0227020     0.0140150
  C        2.9917500    -0.7051290    -0.2688550
  H       -0.5809976     2.0909075    -0.5875419
  H       -0.4926250    -2.0861370     0.4161180
  H        1.4325560     1.9713960     0.8093900
  H       -3.0617120     2.0872770    -0.4220560
  H       -2.9921950    -2.1322260     0.4251330
  H        4.0379080     1.1354570     0.4652770
  H       -4.2743140    -0.0387150     0.0221240
  H        3.7631710    -1.4121260    -0.5458550
units angstrom
no_reorient  #important for SAPT in psi4, default
symmetry c1  #important for SAPT in psi4, default
}

set PROPERTIES_ORIGIN ["COM"]
properties('MP2/aug-cc-pvtz', properties = ['dipole'])
--------------------------------------------------------------------------

    Molecular point group: c1
  Charge       = 0
  Multiplicity = 1
  Basis Set: AUG-CC-PVTZ
    Blend: AUG-CC-PVTZ
  Basis Set: (AUG-CC-PVTZ AUX)
    Blend: AUG-CC-PVTZ-JKFIT

    Orbital Energies [Eh]
    ---------------------

    Doubly Occupied:

       1A    -15.651844     2A    -15.590614     3A    -11.291877
       4A    -11.282413     5A    -11.259647     6A    -11.248399
       7A    -11.246993     8A    -11.246165     9A    -11.241054
      10A    -11.240900    11A    -11.227900    12A     -1.382422
      13A     -1.175518    14A     -1.110355    15A     -1.063869
      16A     -1.024335    17A     -0.998161    18A     -0.860549
      19A     -0.847751    20A     -0.797296    21A     -0.777538
      22A     -0.742170    23A     -0.686384    24A     -0.648896
      25A     -0.639719    26A     -0.615404    27A     -0.596397
      28A     -0.594492    29A     -0.588520    30A     -0.563730
      31A     -0.520758    32A     -0.511288    33A     -0.505724
      34A     -0.462805    35A     -0.394967    36A     -0.349561
      37A     -0.346447    38A     -0.313042

  @DF-RHF Final Energy:  -454.48734923861713

   => Energetics <=

    Nuclear Repulsion Energy =            546.3302564700945823
    One-Electron Energy =               -1698.3434037064794211
    Two-Electron Energy =                 697.5257979977677678
    Total Energy =                       -454.4873492386170710
  Basis Set: (AUG-CC-PVTZ AUX)
    Blend: AUG-CC-PVTZ-RI
    Molecular point group: c1

    Geometry (in Angstrom), charge = 0, multiplicity = 1:

       Center              X                  Y                   Z               Mass
    ------------   -----------------  -----------------  -----------------  -----------------
         N            0.996942261730     0.044786153760     0.006179160412    14.003074004430
         N            1.684823261730    -1.045170846240    -0.412599839588    14.003074004430
         C           -0.421350738270     0.027849153760    -0.002727839588    12.000000000000
         C           -1.127368738270     1.208185153760    -0.248681839588    12.000000000000
         C           -1.087900738270    -1.175052846240     0.244180160412    12.000000000000
         C            1.816333261730     1.062348153760     0.412530160412    12.000000000000
         C           -2.522223738270     1.183491153760    -0.225046839588    12.000000000000
         C           -2.481791738270    -1.187779846240     0.242375160412    12.000000000000
         C            3.112791261730     0.609827153760     0.243187160412    12.000000000000
         C           -3.202541738270    -0.011238846240     0.019388160412    12.000000000000
         C            2.976789261730    -0.693665846240    -0.263481839588    12.000000000000
         H           -0.595958338270     2.102370653760    -0.582168739588     1.007825032230
         H           -0.507585738270    -2.074673846240     0.421491160412     1.007825032230
         H            1.417595261730     1.982859153760     0.814763160412     1.007825032230
         H           -3.076672738270     2.098740153760    -0.416682839588     1.007825032230
         H           -3.007155738270    -2.120762846240     0.430506160412     1.007825032230
         H            4.022947261730     1.146920153760     0.470650160412     1.007825032230
         H           -4.289274738270    -0.027251846240     0.027497160412     1.007825032230
         H            3.748210261730    -1.400662846240    -0.540481839588     1.007825032230

  Basis Set: AUG-CC-PVTZ
    Blend: AUG-CC-PVTZ
  Basis Set: (AUG-CC-PVTZ AUX)
    Blend: AUG-CC-PVTZ-JKFIT
	 Reference Energy          =    -454.4873492386171279 [Eh]
	 Singles Energy            =      -0.0000000000000000 [Eh]
	 Same-Spin Energy          =      -0.5097180958840439 [Eh]
	 Opposite-Spin Energy      =      -1.5479887068654612 [Eh]
	 Correlation Energy        =      -2.0577068027495051 [Eh]
	 Total Energy              =    -456.5450560413666494 [Eh]

	 ================> DF-SCS-MP2 Energies <==================
	-----------------------------------------------------------
	 SCS Same-Spin Scale       =       0.3333333333333333 [-]
	 SCS Opposite-Spin Scale   =       1.2000000000000000 [-]
	 SCS Same-Spin Energy      =      -0.1699060319613480 [Eh]
	 SCS Opposite-Spin Energy  =      -1.8575864482385533 [Eh]
	 SCS Correlation Energy    =      -2.0274924801999012 [Eh]
	 SCS Total Energy          =    -456.5148417188170242 [Eh]
	-----------------------------------------------------------

  Dipole Moment: [D]
     X:    -0.8948      Y:     1.6179      Z:     0.6796     Total:     1.9698

*** Psi4 exiting successfully. Buy a developer a beer!
