                               Psi4 1.4a2.dev612

  ==> Input File <==

--------------------------------------------------------------------------
#psi4
#
memory 32 gb

molecule  {
0 1
  N        1.0119030     0.0333230     0.0008060
  N        1.6997840    -1.0566340    -0.4179730
  C       -0.4063900     0.0163860    -0.0081010
  C       -1.1124080     1.1967220    -0.2540550
  C       -1.0729400    -1.1865160     0.2388070
  C        1.8312940     1.0508850     0.4071570
  C       -2.5072630     1.1720280    -0.2304200
  C       -2.4668310    -1.1992430     0.2370020
  C        3.1277520     0.5983640     0.2378140
  C       -3.1875810    -0.0227020     0.0140150
  C        2.9917500    -0.7051290    -0.2688550
  H       -0.5831011     2.0683461    -0.6849409
  H       -0.4926250    -2.0861370     0.4161180
  H        1.4325560     1.9713960     0.8093900
  H       -3.0617120     2.0872770    -0.4220560
  H       -2.9921950    -2.1322260     0.4251330
  H        4.0379080     1.1354570     0.4652770
  H       -4.2743140    -0.0387150     0.0221240
  H        3.7631710    -1.4121260    -0.5458550
units angstrom
no_reorient  #important for SAPT in psi4, default
symmetry c1  #important for SAPT in psi4, default
}

set PROPERTIES_ORIGIN ["COM"]
properties('MP2/aug-cc-pvtz', properties = ['dipole'])
--------------------------------------------------------------------------

    Molecular point group: c1
  Charge       = 0
  Multiplicity = 1
  Basis Set: AUG-CC-PVTZ
    Blend: AUG-CC-PVTZ
  Basis Set: (AUG-CC-PVTZ AUX)
    Blend: AUG-CC-PVTZ-JKFIT

    Orbital Energies [Eh]
    ---------------------

    Doubly Occupied:

       1A    -15.651842     2A    -15.590462     3A    -11.292180
       4A    -11.282268     5A    -11.259656     6A    -11.248953
       7A    -11.247747     8A    -11.246548     9A    -11.241134
      10A    -11.240972    11A    -11.227715    12A     -1.382386
      13A     -1.175527    14A     -1.110407    15A     -1.063751
      16A     -1.024079    17A     -0.998139    18A     -0.860259
      19A     -0.847377    20A     -0.797148    21A     -0.777449
      22A     -0.741565    23A     -0.685370    24A     -0.648723
      25A     -0.639260    26A     -0.615438    27A     -0.594996
      28A     -0.594365    29A     -0.588227    30A     -0.563692
      31A     -0.521399    32A     -0.512435    33A     -0.503009
      34A     -0.462679    35A     -0.394972    36A     -0.349275
      37A     -0.346495    38A     -0.313107

  @DF-RHF Final Energy:  -454.48526924874767

   => Energetics <=

    Nuclear Repulsion Energy =            546.2595149287549248
    One-Electron Energy =               -1698.2075562994798474
    Two-Electron Energy =                 697.4627721219771956
    Total Energy =                       -454.4852692487477270
  Basis Set: (AUG-CC-PVTZ AUX)
    Blend: AUG-CC-PVTZ-RI
    Molecular point group: c1

    Geometry (in Angstrom), charge = 0, multiplicity = 1:

       Center              X                  Y                   Z               Mass
    ------------   -----------------  -----------------  -----------------  -----------------
         N            0.996956976649     0.044943980797     0.006860509778    14.003074004430
         N            1.684837976649    -1.045013019203    -0.411918490222    14.003074004430
         C           -0.421336023351     0.028006980797    -0.002046490222    12.000000000000
         C           -1.127354023351     1.208342980797    -0.248000490222    12.000000000000
         C           -1.087886023351    -1.174895019203     0.244861509778    12.000000000000
         C            1.816347976649     1.062505980797     0.413211509778    12.000000000000
         C           -2.522209023351     1.183648980797    -0.224365490222    12.000000000000
         C           -2.481777023351    -1.187622019203     0.243056509778    12.000000000000
         C            3.112805976649     0.609984980797     0.243868509778    12.000000000000
         C           -3.202527023351    -0.011081019203     0.020069509778    12.000000000000
         C            2.976803976649    -0.693508019203    -0.262800490222    12.000000000000
         H           -0.598047123351     2.079967080797    -0.678886390222     1.007825032230
         H           -0.507571023351    -2.074516019203     0.422172509778     1.007825032230
         H            1.417609976649     1.983016980797     0.815444509778     1.007825032230
         H           -3.076658023351     2.098897980797    -0.416001490222     1.007825032230
         H           -3.007141023351    -2.120605019203     0.431187509778     1.007825032230
         H            4.022961976649     1.147077980797     0.471331509778     1.007825032230
         H           -4.289260023351    -0.027094019203     0.028178509778     1.007825032230
         H            3.748224976649    -1.400505019203    -0.539800490222     1.007825032230

  Basis Set: AUG-CC-PVTZ
    Blend: AUG-CC-PVTZ
  Basis Set: (AUG-CC-PVTZ AUX)
    Blend: AUG-CC-PVTZ-JKFIT
	 Reference Energy          =    -454.4852692487476702 [Eh]
	 Singles Energy            =      -0.0000000000000000 [Eh]
	 Same-Spin Energy          =      -0.5098318540631108 [Eh]
	 Opposite-Spin Energy      =      -1.5482468198424546 [Eh]
	 Correlation Energy        =      -2.0580786739055652 [Eh]
	 Total Energy              =    -456.5433479226532540 [Eh]

	 ================> DF-SCS-MP2 Energies <==================
	-----------------------------------------------------------
	 SCS Same-Spin Scale       =       0.3333333333333333 [-]
	 SCS Opposite-Spin Scale   =       1.2000000000000000 [-]
	 SCS Same-Spin Energy      =      -0.1699439513543703 [Eh]
	 SCS Opposite-Spin Energy  =      -1.8578961838109453 [Eh]
	 SCS Correlation Energy    =      -2.0278401351653157 [Eh]
	 SCS Total Energy          =    -456.5131093839129903 [Eh]
	-----------------------------------------------------------

  Dipole Moment: [D]
     X:    -0.9109      Y:     1.5863      Z:     0.6240     Total:     1.9328

*** Psi4 exiting successfully. Buy a developer a beer!
