                               Psi4 1.4a2.dev612

  ==> Input File <==

--------------------------------------------------------------------------
#psi4
#
memory 32 gb

molecule  {
0 1
  N        1.0119030     0.0333230     0.0008060
  N        1.6997840    -1.0566340    -0.4179730
  C       -0.4063900     0.0163860    -0.0081010
  C       -1.1124080     1.1967220    -0.2540550
  C       -1.0729400    -1.1865160     0.2388070
  C        1.8312940     1.0508850     0.4071570
  C       -2.5072630     1.1720280    -0.2304200
  C       -2.4668310    -1.1992430     0.2370020
  C        3.1277520     0.5983640     0.2378140
  C       -3.1875810    -0.0227020     0.0140150
  C        2.9917500    -0.7051290    -0.2688550
  H       -0.5788940     2.1134690    -0.4901430
  H       -0.4926250    -2.0861370     0.4161180
  H        1.4324387     1.8944091     0.9939788
  H       -3.0617120     2.0872770    -0.4220560
  H       -2.9921950    -2.1322260     0.4251330
  H        4.0379080     1.1354570     0.4652770
  H       -4.2743140    -0.0387150     0.0221240
  H        3.7631710    -1.4121260    -0.5458550
units angstrom
no_reorient  #important for SAPT in psi4, default
symmetry c1  #important for SAPT in psi4, default
}

set PROPERTIES_ORIGIN ["COM"]
properties('MP2/aug-cc-pvtz', properties = ['dipole'])
--------------------------------------------------------------------------

    Molecular point group: c1
  Charge       = 0
  Multiplicity = 1
  Basis Set: AUG-CC-PVTZ
    Blend: AUG-CC-PVTZ
  Basis Set: (AUG-CC-PVTZ AUX)
    Blend: AUG-CC-PVTZ-JKFIT

    Orbital Energies [Eh]
    ---------------------

    Doubly Occupied:

       1A    -15.652065     2A    -15.591531     3A    -11.291543
       4A    -11.283602     5A    -11.259836     6A    -11.247961
       7A    -11.246439     8A    -11.245915     9A    -11.241121
      10A    -11.240933    11A    -11.228562    12A     -1.382721
      13A     -1.175516    14A     -1.110350    15A     -1.063603
      16A     -1.024324    17A     -0.998210    18A     -0.860380
      19A     -0.847772    20A     -0.796876    21A     -0.776500
      22A     -0.739230    23A     -0.686508    24A     -0.649982
      25A     -0.638995    26A     -0.613671    27A     -0.597012
      28A     -0.594640    29A     -0.589641    30A     -0.560058
      31A     -0.520242    32A     -0.510828    33A     -0.506874
      34A     -0.463359    35A     -0.394984    36A     -0.349508
      37A     -0.346502    38A     -0.313077

  @DF-RHF Final Energy:  -454.48526679562951

   => Energetics <=

    Nuclear Repulsion Energy =            546.2598850173372966
    One-Electron Energy =               -1698.2085621529149648
    Two-Electron Energy =                 697.4634103399482683
    Total Energy =                       -454.4852667956295136
  Basis Set: (AUG-CC-PVTZ AUX)
    Blend: AUG-CC-PVTZ-RI
    Molecular point group: c1

    Geometry (in Angstrom), charge = 0, multiplicity = 1:

       Center              X                  Y                   Z               Mass
    ------------   -----------------  -----------------  -----------------  -----------------
         N            0.996928366677     0.045166883662     0.004206530912    14.003074004430
         N            1.684809366677    -1.044790116338    -0.414572469088    14.003074004430
         C           -0.421364633323     0.028229883662    -0.004700469088    12.000000000000
         C           -1.127382633323     1.208565883662    -0.250654469088    12.000000000000
         C           -1.087914633323    -1.174672116338     0.242207530912    12.000000000000
         C            1.816319366677     1.062728883662     0.410557530912    12.000000000000
         C           -2.522237633323     1.183871883662    -0.227019469088    12.000000000000
         C           -2.481805633323    -1.187399116338     0.240402530912    12.000000000000
         C            3.112777366677     0.610207883662     0.241214530912    12.000000000000
         C           -3.202555633323    -0.010858116338     0.017415530912    12.000000000000
         C            2.976775366677    -0.693285116338    -0.265454469088    12.000000000000
         H           -0.593868633323     2.125312883662    -0.486742469088     1.007825032230
         H           -0.507599633323    -2.074293116338     0.419518530912     1.007825032230
         H            1.417464066677     1.906252983662     0.997379330912     1.007825032230
         H           -3.076686633323     2.099120883662    -0.418655469088     1.007825032230
         H           -3.007169633323    -2.120382116338     0.428533530912     1.007825032230
         H            4.022933366677     1.147300883662     0.468677530912     1.007825032230
         H           -4.289288633323    -0.026871116338     0.025524530912     1.007825032230
         H            3.748196366677    -1.400282116338    -0.542454469088     1.007825032230

  Basis Set: AUG-CC-PVTZ
    Blend: AUG-CC-PVTZ
  Basis Set: (AUG-CC-PVTZ AUX)
    Blend: AUG-CC-PVTZ-JKFIT
	 Reference Energy          =    -454.4852667956295136 [Eh]
	 Singles Energy            =      -0.0000000000000000 [Eh]
	 Same-Spin Energy          =      -0.5099640637857938 [Eh]
	 Opposite-Spin Energy      =      -1.5484761308127237 [Eh]
	 Correlation Energy        =      -2.0584401945985178 [Eh]
	 Total Energy              =    -456.5437069902280314 [Eh]

	 ================> DF-SCS-MP2 Energies <==================
	-----------------------------------------------------------
	 SCS Same-Spin Scale       =       0.3333333333333333 [-]
	 SCS Opposite-Spin Scale   =       1.2000000000000000 [-]
	 SCS Same-Spin Energy      =      -0.1699880212619313 [Eh]
	 SCS Opposite-Spin Energy  =      -1.8581713569752685 [Eh]
	 SCS Correlation Energy    =      -2.0281593782371998 [Eh]
	 SCS Total Energy          =    -456.5134261738667192 [Eh]
	-----------------------------------------------------------

  Dipole Moment: [D]
     X:    -0.8757      Y:     1.5473      Z:     0.8818     Total:     1.9846

*** Psi4 exiting successfully. Buy a developer a beer!
