                               Psi4 1.4a2.dev612

  ==> Input File <==

--------------------------------------------------------------------------
#psi4
#
memory 32 gb

molecule  {
0 1
  N        1.0119030     0.0333230     0.0008060
  N        1.6997840    -1.0566340    -0.4179730
  C       -0.4063900     0.0163860    -0.0081010
  C       -1.1124080     1.1967220    -0.2540550
  C       -1.0729400    -1.1865160     0.2388070
  C        1.8312940     1.0508850     0.4071570
  C       -2.5072630     1.1720280    -0.2304200
  C       -2.4668310    -1.1992430     0.2370020
  C        3.1277520     0.5983640     0.2378140
  C       -3.1875810    -0.0227020     0.0140150
  C        2.9917500    -0.7051290    -0.2688550
  H       -0.5788940     2.1134690    -0.4901430
  H       -0.4926250    -2.0861370     0.4161180
  H        1.4324973     1.9329026     0.9016844
  H       -3.0617120     2.0872770    -0.4220560
  H       -2.9921950    -2.1322260     0.4251330
  H        4.0379080     1.1354570     0.4652770
  H       -4.2743140    -0.0387150     0.0221240
  H        3.7631710    -1.4121260    -0.5458550
units angstrom
no_reorient  #important for SAPT in psi4, default
symmetry c1  #important for SAPT in psi4, default
}

set PROPERTIES_ORIGIN ["COM"]
properties('MP2/aug-cc-pvtz', properties = ['dipole'])
--------------------------------------------------------------------------

    Molecular point group: c1
  Charge       = 0
  Multiplicity = 1
  Basis Set: AUG-CC-PVTZ
    Blend: AUG-CC-PVTZ
  Basis Set: (AUG-CC-PVTZ AUX)
    Blend: AUG-CC-PVTZ-JKFIT

    Orbital Energies [Eh]
    ---------------------

    Doubly Occupied:

       1A    -15.651908     2A    -15.590991     3A    -11.291651
       4A    -11.282780     5A    -11.259692     6A    -11.248108
       7A    -11.246607     8A    -11.245956     9A    -11.241077
      10A    -11.240908    11A    -11.228208    12A     -1.382529
      13A     -1.175514    14A     -1.110342    15A     -1.063850
      16A     -1.024395    17A     -0.998180    18A     -0.860587
      19A     -0.847862    20A     -0.797213    21A     -0.777245
      22A     -0.741507    23A     -0.686739    24A     -0.649553
      25A     -0.639392    26A     -0.614380    27A     -0.597141
      28A     -0.594575    29A     -0.589562    30A     -0.562328
      31A     -0.520282    32A     -0.510835    33A     -0.506932
      34A     -0.463066    35A     -0.394964    36A     -0.349663
      37A     -0.346432    38A     -0.313040

  @DF-RHF Final Energy:  -454.48731880958564

   => Energetics <=

    Nuclear Repulsion Energy =            546.3302159846277846
    One-Electron Energy =               -1698.3430819369984874
    Two-Electron Energy =                 697.5255471427850580
    Total Energy =                       -454.4873188095856449
  Basis Set: (AUG-CC-PVTZ AUX)
    Blend: AUG-CC-PVTZ-RI
    Molecular point group: c1

    Geometry (in Angstrom), charge = 0, multiplicity = 1:

       Center              X                  Y                   Z               Mass
    ------------   -----------------  -----------------  -----------------  -----------------
         N            0.996927956744     0.044897604493     0.004852171328    14.003074004430
         N            1.684808956744    -1.045059395507    -0.413926828672    14.003074004430
         C           -0.421365043256     0.027960604493    -0.004054828672    12.000000000000
         C           -1.127383043256     1.208296604493    -0.250008828672    12.000000000000
         C           -1.087915043256    -1.174941395507     0.242853171328    12.000000000000
         C            1.816318956744     1.062459604493     0.411203171328    12.000000000000
         C           -2.522238043256     1.183602604493    -0.226373828672    12.000000000000
         C           -2.481806043256    -1.187668395507     0.241048171328    12.000000000000
         C            3.112776956744     0.609938604493     0.241860171328    12.000000000000
         C           -3.202556043256    -0.011127395507     0.018061171328    12.000000000000
         C            2.976774956744    -0.693554395507    -0.264808828672    12.000000000000
         H           -0.593869043256     2.125043604493    -0.486096828672     1.007825032230
         H           -0.507600043256    -2.074562395507     0.420164171328     1.007825032230
         H            1.417522256744     1.944477204493     0.905730571328     1.007825032230
         H           -3.076687043256     2.098851604493    -0.418009828672     1.007825032230
         H           -3.007170043256    -2.120651395507     0.429179171328     1.007825032230
         H            4.022932956744     1.147031604493     0.469323171328     1.007825032230
         H           -4.289289043256    -0.027140395507     0.026170171328     1.007825032230
         H            3.748195956744    -1.400551395507    -0.541808828672     1.007825032230

  Basis Set: AUG-CC-PVTZ
    Blend: AUG-CC-PVTZ
  Basis Set: (AUG-CC-PVTZ AUX)
    Blend: AUG-CC-PVTZ-JKFIT
	 Reference Energy          =    -454.4873188095856449 [Eh]
	 Singles Energy            =      -0.0000000000000000 [Eh]
	 Same-Spin Energy          =      -0.5097669133204490 [Eh]
	 Opposite-Spin Energy      =      -1.5480753019588867 [Eh]
	 Correlation Energy        =      -2.0578422152793356 [Eh]
	 Total Energy              =    -456.5451610248649672 [Eh]

	 ================> DF-SCS-MP2 Energies <==================
	-----------------------------------------------------------
	 SCS Same-Spin Scale       =       0.3333333333333333 [-]
	 SCS Opposite-Spin Scale   =       1.2000000000000000 [-]
	 SCS Same-Spin Energy      =      -0.1699223044401497 [Eh]
	 SCS Opposite-Spin Energy  =      -1.8576903623506640 [Eh]
	 SCS Correlation Energy    =      -2.0276126667908136 [Eh]
	 SCS Total Energy          =    -456.5149314763764323 [Eh]
	-----------------------------------------------------------

  Dipole Moment: [D]
     X:    -0.8835      Y:     1.5988      Z:     0.8137     Total:     1.9997

*** Psi4 exiting successfully. Buy a developer a beer!
