                               Psi4 1.4a2.dev612

  ==> Input File <==

--------------------------------------------------------------------------
#psi4
#
memory 32 gb

molecule  {
0 1
  N        1.0119030     0.0333230     0.0008060
  N        1.6997840    -1.0566340    -0.4179730
  C       -0.4063900     0.0163860    -0.0081010
  C       -1.1124080     1.1967220    -0.2540550
  C       -1.0729400    -1.1865160     0.2388070
  C        1.8312940     1.0508850     0.4071570
  C       -2.5072630     1.1720280    -0.2304200
  C       -2.4668310    -1.1992430     0.2370020
  C        3.1277520     0.5983640     0.2378140
  C       -3.1875810    -0.0227020     0.0140150
  C        2.9917500    -0.7051290    -0.2688550
  H       -0.5788940     2.1134690    -0.4901430
  H       -0.4926250    -2.0861370     0.4161180
  H        1.4325560     1.9713960     0.8093900
  H       -3.0617120     2.0872770    -0.4220560
  H       -2.9921950    -2.1322260     0.4251330
  H        4.0358046     1.0623985     0.6514437
  H       -4.2743140    -0.0387150     0.0221240
  H        3.7631710    -1.4121260    -0.5458550
units angstrom
no_reorient  #important for SAPT in psi4, default
symmetry c1  #important for SAPT in psi4, default
}

set PROPERTIES_ORIGIN ["COM"]
properties('MP2/aug-cc-pvtz', properties = ['dipole'])
--------------------------------------------------------------------------

    Molecular point group: c1
  Charge       = 0
  Multiplicity = 1
  Basis Set: AUG-CC-PVTZ
    Blend: AUG-CC-PVTZ
  Basis Set: (AUG-CC-PVTZ AUX)
    Blend: AUG-CC-PVTZ-JKFIT

    Orbital Energies [Eh]
    ---------------------

    Doubly Occupied:

       1A    -15.652322     2A    -15.591091     3A    -11.291999
       4A    -11.283185     5A    -11.260041     6A    -11.248322
       7A    -11.246818     8A    -11.246144     9A    -11.241173
      10A    -11.240943    11A    -11.229635    12A     -1.382884
      13A     -1.175725    14A     -1.110602    15A     -1.064036
      16A     -1.024557    17A     -0.998162    18A     -0.860484
      19A     -0.848032    20A     -0.796468    21A     -0.777814
      22A     -0.742228    23A     -0.686511    24A     -0.648838
      25A     -0.639083    26A     -0.617630    27A     -0.597482
      28A     -0.594449    29A     -0.584056    30A     -0.562913
      31A     -0.520457    32A     -0.511233    33A     -0.506745
      34A     -0.463216    35A     -0.395469    36A     -0.350248
      37A     -0.346393    38A     -0.312781

  @DF-RHF Final Energy:  -454.48568916890639

   => Energetics <=

    Nuclear Repulsion Energy =            546.2932189628937749
    One-Electron Energy =               -1698.2574750102544385
    Two-Electron Energy =                 697.4785668784543304
    Total Energy =                       -454.4856891689064469
  Basis Set: (AUG-CC-PVTZ AUX)
    Blend: AUG-CC-PVTZ-RI
    Molecular point group: c1

    Geometry (in Angstrom), charge = 0, multiplicity = 1:

       Center              X                  Y                   Z               Mass
    ------------   -----------------  -----------------  -----------------  -----------------
         N            0.996942260331     0.045139402755     0.004195492799    14.003074004430
         N            1.684823260331    -1.044817597245    -0.414583507201    14.003074004430
         C           -0.421350739669     0.028202402755    -0.004711507201    12.000000000000
         C           -1.127368739669     1.208538402755    -0.250665507201    12.000000000000
         C           -1.087900739669    -1.174699597245     0.242196492799    12.000000000000
         C            1.816333260331     1.062701402755     0.410546492799    12.000000000000
         C           -2.522223739669     1.183844402755    -0.227030507201    12.000000000000
         C           -2.481791739669    -1.187426597245     0.240391492799    12.000000000000
         C            3.112791260331     0.610180402755     0.241203492799    12.000000000000
         C           -3.202541739669    -0.010885597245     0.017404492799    12.000000000000
         C            2.976789260331    -0.693312597245    -0.265465507201    12.000000000000
         H           -0.593854739669     2.125285402755    -0.486753507201     1.007825032230
         H           -0.507585739669    -2.074320597245     0.419507492799     1.007825032230
         H            1.417595260331     1.983212402755     0.812779492799     1.007825032230
         H           -3.076672739669     2.099093402755    -0.418666507201     1.007825032230
         H           -3.007155739669    -2.120409597245     0.428522492799     1.007825032230
         H            4.020843860331     1.074214902755     0.654833192799     1.007825032230
         H           -4.289274739669    -0.026898597245     0.025513492799     1.007825032230
         H            3.748210260331    -1.400309597245    -0.542465507201     1.007825032230

  Basis Set: AUG-CC-PVTZ
    Blend: AUG-CC-PVTZ
  Basis Set: (AUG-CC-PVTZ AUX)
    Blend: AUG-CC-PVTZ-JKFIT
	 Reference Energy          =    -454.4856891689063900 [Eh]
	 Singles Energy            =      -0.0000000000000000 [Eh]
	 Same-Spin Energy          =      -0.5097670949334192 [Eh]
	 Opposite-Spin Energy      =      -1.5481526555526175 [Eh]
	 Correlation Energy        =      -2.0579197504860369 [Eh]
	 Total Energy              =    -456.5436089193924545 [Eh]

	 ================> DF-SCS-MP2 Energies <==================
	-----------------------------------------------------------
	 SCS Same-Spin Scale       =       0.3333333333333333 [-]
	 SCS Opposite-Spin Scale   =       1.2000000000000000 [-]
	 SCS Same-Spin Energy      =      -0.1699223649778064 [Eh]
	 SCS Opposite-Spin Energy  =      -1.8577831866631409 [Eh]
	 SCS Correlation Energy    =      -2.0277055516409472 [Eh]
	 SCS Total Energy          =    -456.5133947205473532 [Eh]
	-----------------------------------------------------------

  Dipole Moment: [D]
     X:    -0.9114      Y:     1.5613      Z:     0.8779     Total:     2.0097

*** Psi4 exiting successfully. Buy a developer a beer!
