                               Psi4 1.4a2.dev612

  ==> Input File <==

--------------------------------------------------------------------------
#psi4
#
memory 32 gb

molecule  {
0 1
  N        1.0119030     0.0333230     0.0008060
  N        1.6997840    -1.0566340    -0.4179730
  C       -0.4063900     0.0163860    -0.0081010
  C       -1.1124080     1.1967220    -0.2540550
  C       -1.0729400    -1.1865160     0.2388070
  C        1.8312940     1.0508850     0.4071570
  C       -2.5072630     1.1720280    -0.2304200
  C       -2.4668310    -1.1992430     0.2370020
  C        3.1277520     0.5983640     0.2378140
  C       -3.1875810    -0.0227020     0.0140150
  C        2.9917500    -0.7051290    -0.2688550
  H       -0.5788940     2.1134690    -0.4901430
  H       -0.4926250    -2.0861370     0.4161180
  H        1.4325560     1.9713960     0.8093900
  H       -3.0617120     2.0872770    -0.4220560
  H       -2.9921950    -2.1322260     0.4251330
  H        4.0352788     1.0441339     0.6979853
  H       -4.2743140    -0.0387150     0.0221240
  H        3.7631710    -1.4121260    -0.5458550
units angstrom
no_reorient  #important for SAPT in psi4, default
symmetry c1  #important for SAPT in psi4, default
}

set PROPERTIES_ORIGIN ["COM"]
properties('MP2/aug-cc-pvtz', properties = ['dipole'])
--------------------------------------------------------------------------

    Molecular point group: c1
  Charge       = 0
  Multiplicity = 1
  Basis Set: AUG-CC-PVTZ
    Blend: AUG-CC-PVTZ
  Basis Set: (AUG-CC-PVTZ AUX)
    Blend: AUG-CC-PVTZ-JKFIT

    Orbital Energies [Eh]
    ---------------------

    Doubly Occupied:

       1A    -15.652549     2A    -15.591232     3A    -11.292110
       4A    -11.283489     5A    -11.260220     6A    -11.248391
       7A    -11.246886     8A    -11.246227     9A    -11.241262
      10A    -11.241003    11A    -11.230439    12A     -1.383082
      13A     -1.175828    14A     -1.110727    15A     -1.064042
      16A     -1.024629    17A     -0.998156    18A     -0.860364
      19A     -0.848071    20A     -0.796059    21A     -0.777917
      22A     -0.742013    23A     -0.686387    24A     -0.648869
      25A     -0.638876    26A     -0.617836    27A     -0.597570
      28A     -0.594445    29A     -0.582253    30A     -0.562525
      31A     -0.520526    32A     -0.511366    33A     -0.506697
      34A     -0.463301    35A     -0.395570    36A     -0.350374
      37A     -0.346453    38A     -0.312773

  @DF-RHF Final Energy:  -454.48422242668238

   => Energetics <=

    Nuclear Repulsion Energy =            546.2555205561379807
    One-Electron Energy =               -1698.1784495873125707
    Two-Electron Energy =                 697.4387066044921539
    Total Energy =                       -454.4842224266824360
  Basis Set: (AUG-CC-PVTZ AUX)
    Blend: AUG-CC-PVTZ-RI
    Molecular point group: c1

    Geometry (in Angstrom), charge = 0, multiplicity = 1:

       Center              X                  Y                   Z               Mass
    ------------   -----------------  -----------------  -----------------  -----------------
         N            0.996945938536     0.045267171764     0.003869913587    14.003074004430
         N            1.684826938536    -1.044689828236    -0.414909086413    14.003074004430
         C           -0.421347061464     0.028330171764    -0.005037086413    12.000000000000
         C           -1.127365061464     1.208666171764    -0.250991086413    12.000000000000
         C           -1.087897061464    -1.174571828236     0.241870913587    12.000000000000
         C            1.816336938536     1.062829171764     0.410220913587    12.000000000000
         C           -2.522220061464     1.183972171764    -0.227356086413    12.000000000000
         C           -2.481788061464    -1.187298828236     0.240065913587    12.000000000000
         C            3.112794938536     0.610308171764     0.240877913587    12.000000000000
         C           -3.202538061464    -0.010757828236     0.017078913587    12.000000000000
         C            2.976792938536    -0.693184828236    -0.265791086413    12.000000000000
         H           -0.593851061464     2.125413171764    -0.487079086413     1.007825032230
         H           -0.507582061464    -2.074192828236     0.419181913587     1.007825032230
         H            1.417598938536     1.983340171764     0.812453913587     1.007825032230
         H           -3.076669061464     2.099221171764    -0.418992086413     1.007825032230
         H           -3.007152061464    -2.120281828236     0.428196913587     1.007825032230
         H            4.020321738536     1.056078071764     0.701049213587     1.007825032230
         H           -4.289271061464    -0.026770828236     0.025187913587     1.007825032230
         H            3.748213938536    -1.400181828236    -0.542791086413     1.007825032230

  Basis Set: AUG-CC-PVTZ
    Blend: AUG-CC-PVTZ
  Basis Set: (AUG-CC-PVTZ AUX)
    Blend: AUG-CC-PVTZ-JKFIT
	 Reference Energy          =    -454.4842224266823791 [Eh]
	 Singles Energy            =      -0.0000000000000000 [Eh]
	 Same-Spin Energy          =      -0.5098181247384099 [Eh]
	 Opposite-Spin Energy      =      -1.5483009065721509 [Eh]
	 Correlation Energy        =      -2.0581190313105608 [Eh]
	 Total Energy              =    -456.5423414579929613 [Eh]

	 ================> DF-SCS-MP2 Energies <==================
	-----------------------------------------------------------
	 SCS Same-Spin Scale       =       0.3333333333333333 [-]
	 SCS Opposite-Spin Scale   =       1.2000000000000000 [-]
	 SCS Same-Spin Energy      =      -0.1699393749128033 [Eh]
	 SCS Opposite-Spin Energy  =      -1.8579610878865811 [Eh]
	 SCS Correlation Energy    =      -2.0279004627993844 [Eh]
	 SCS Total Energy          =    -456.5121228894817591 [Eh]
	-----------------------------------------------------------

  Dipole Moment: [D]
     X:    -0.9289      Y:     1.5371      Z:     0.9094     Total:     2.0131

*** Psi4 exiting successfully. Buy a developer a beer!
