                               Psi4 1.4a2.dev612

  ==> Input File <==

--------------------------------------------------------------------------
#psi4
#
memory 32 gb

molecule  {
0 1
  N        1.0119030     0.0333230     0.0008060
  N        1.6997840    -1.0566340    -0.4179730
  C       -0.4063900     0.0163860    -0.0081010
  C       -1.1124080     1.1967220    -0.2540550
  C       -1.0729400    -1.1865160     0.2388070
  C        1.8312940     1.0508850     0.4071570
  C       -2.5072630     1.1720280    -0.2304200
  C       -2.4668310    -1.1992430     0.2370020
  C        3.1277520     0.5983640     0.2378140
  C       -3.1875810    -0.0227020     0.0140150
  C        2.9917500    -0.7051290    -0.2688550
  H       -0.5788940     2.1134690    -0.4901430
  H       -0.4926250    -2.0861370     0.4161180
  H        1.4324680     1.9136559     0.9478316
  H       -3.0617120     2.0872770    -0.4220560
  H       -2.9921950    -2.1322260     0.4251330
  H        4.0379080     1.1354570     0.4652770
  H       -4.2743140    -0.0387150     0.0221240
  H        3.7631710    -1.4121260    -0.5458550
units angstrom
no_reorient  #important for SAPT in psi4, default
symmetry c1  #important for SAPT in psi4, default
}

set PROPERTIES_ORIGIN ["COM"]
properties('MP2/aug-cc-pvtz', properties = ['dipole'])
--------------------------------------------------------------------------

    Molecular point group: c1
  Charge       = 0
  Multiplicity = 1
  Basis Set: AUG-CC-PVTZ
    Blend: AUG-CC-PVTZ
  Basis Set: (AUG-CC-PVTZ AUX)
    Blend: AUG-CC-PVTZ-JKFIT

    Orbital Energies [Eh]
    ---------------------

    Doubly Occupied:

       1A    -15.651976     2A    -15.591223     3A    -11.291599
       4A    -11.283119     5A    -11.259752     6A    -11.248037
       7A    -11.246526     8A    -11.245938     9A    -11.241098
      10A    -11.240921    11A    -11.228358    12A     -1.382610
      13A     -1.175513    14A     -1.110343    15A     -1.063739
      16A     -1.024362    17A     -0.998191    18A     -0.860489
      19A     -0.847816    20A     -0.797066    21A     -0.776913
      22A     -0.740511    23A     -0.686646    24A     -0.649771
      25A     -0.639188    26A     -0.613981    27A     -0.597076
      28A     -0.594616    29A     -0.589690    30A     -0.561315
      31A     -0.520263    32A     -0.510835    33A     -0.506905
      34A     -0.463195    35A     -0.394969    36A     -0.349581
      37A     -0.346472    38A     -0.313057

  @DF-RHF Final Energy:  -454.48647325765342

   => Energetics <=

    Nuclear Repulsion Energy =            546.2994336907011075
    One-Electron Energy =               -1698.2844889220828009
    Two-Electron Energy =                 697.4985819737282782
    Total Energy =                       -454.4864732576534152
  Basis Set: (AUG-CC-PVTZ AUX)
    Blend: AUG-CC-PVTZ-RI
    Molecular point group: c1

    Geometry (in Angstrom), charge = 0, multiplicity = 1:

       Center              X                  Y                   Z               Mass
    ------------   -----------------  -----------------  -----------------  -----------------
         N            0.996928161711     0.045032243728     0.004529351120    14.003074004430
         N            1.684809161711    -1.044924756272    -0.414249648880    14.003074004430
         C           -0.421364838289     0.028095243728    -0.004377648880    12.000000000000
         C           -1.127382838289     1.208431243728    -0.250331648880    12.000000000000
         C           -1.087914838289    -1.174806756272     0.242530351120    12.000000000000
         C            1.816319161711     1.062594243728     0.410880351120    12.000000000000
         C           -2.522237838289     1.183737243728    -0.226696648880    12.000000000000
         C           -2.481805838289    -1.187533756272     0.240725351120    12.000000000000
         C            3.112777161711     0.610073243728     0.241537351120    12.000000000000
         C           -3.202555838289    -0.010992756272     0.017738351120    12.000000000000
         C            2.976775161711    -0.693419756272    -0.265131648880    12.000000000000
         H           -0.593868838289     2.125178243728    -0.486419648880     1.007825032230
         H           -0.507599838289    -2.074427756272     0.419841351120     1.007825032230
         H            1.417493161711     1.925365143728     0.951554951120     1.007825032230
         H           -3.076686838289     2.098986243728    -0.418332648880     1.007825032230
         H           -3.007169838289    -2.120516756272     0.428856351120     1.007825032230
         H            4.022933161711     1.147166243728     0.469000351120     1.007825032230
         H           -4.289288838289    -0.027005756272     0.025847351120     1.007825032230
         H            3.748196161711    -1.400416756272    -0.542131648880     1.007825032230

  Basis Set: AUG-CC-PVTZ
    Blend: AUG-CC-PVTZ
  Basis Set: (AUG-CC-PVTZ AUX)
    Blend: AUG-CC-PVTZ-JKFIT
	 Reference Energy          =    -454.4864732576534152 [Eh]
	 Singles Energy            =      -0.0000000000000000 [Eh]
	 Same-Spin Energy          =      -0.5098531416485232 [Eh]
	 Opposite-Spin Energy      =      -1.5482468278823247 [Eh]
	 Correlation Energy        =      -2.0580999695308480 [Eh]
	 Total Energy              =    -456.5445732271842871 [Eh]

	 ================> DF-SCS-MP2 Energies <==================
	-----------------------------------------------------------
	 SCS Same-Spin Scale       =       0.3333333333333333 [-]
	 SCS Opposite-Spin Scale   =       1.2000000000000000 [-]
	 SCS Same-Spin Energy      =      -0.1699510472161744 [Eh]
	 SCS Opposite-Spin Energy  =      -1.8578961934587896 [Eh]
	 SCS Correlation Energy    =      -2.0278472406749639 [Eh]
	 SCS Total Energy          =    -456.5143204983284022 [Eh]
	-----------------------------------------------------------

  Dipole Moment: [D]
     X:    -0.8803      Y:     1.5746      Z:     0.8487     Total:     1.9936

*** Psi4 exiting successfully. Buy a developer a beer!
