                               Psi4 1.4a2.dev612

  ==> Input File <==

--------------------------------------------------------------------------
#psi4
#
memory 32 gb

molecule  {
0 1
  N        1.0119030     0.0333230     0.0008060
  N        1.6997840    -1.0566340    -0.4179730
  C       -0.4063900     0.0163860    -0.0081010
  C       -1.1124080     1.1967220    -0.2540550
  C       -1.0729400    -1.1865160     0.2388070
  C        1.8312940     1.0508850     0.4071570
  C       -2.5072630     1.1720280    -0.2304200
  C       -2.4668310    -1.1992430     0.2370020
  C        3.1277520     0.5983640     0.2378140
  C       -3.1875810    -0.0227020     0.0140150
  C        2.9917500    -0.7051290    -0.2688550
  H       -0.5788940     2.1134690    -0.4901430
  H       -0.4926250    -2.0861370     0.4161180
  H        1.4324093     1.8751624     1.0401259
  H       -3.0617120     2.0872770    -0.4220560
  H       -2.9921950    -2.1322260     0.4251330
  H        4.0379080     1.1354570     0.4652770
  H       -4.2743140    -0.0387150     0.0221240
  H        3.7631710    -1.4121260    -0.5458550
units angstrom
no_reorient  #important for SAPT in psi4, default
symmetry c1  #important for SAPT in psi4, default
}

set PROPERTIES_ORIGIN ["COM"]
properties('MP2/aug-cc-pvtz', properties = ['dipole'])
--------------------------------------------------------------------------

    Molecular point group: c1
  Charge       = 0
  Multiplicity = 1
  Basis Set: AUG-CC-PVTZ
    Blend: AUG-CC-PVTZ
  Basis Set: (AUG-CC-PVTZ AUX)
    Blend: AUG-CC-PVTZ-JKFIT

    Orbital Energies [Eh]
    ---------------------

    Doubly Occupied:

       1A    -15.652176     2A    -15.591911     3A    -11.291484
       4A    -11.284224     5A    -11.259946     6A    -11.247878
       7A    -11.246346     8A    -11.245890     9A    -11.241147
      10A    -11.240943    11A    -11.228817    12A     -1.382860
      13A     -1.175524    14A     -1.110362    15A     -1.063445
      16A     -1.024282    17A     -0.998237    18A     -0.860266
      19A     -0.847729    20A     -0.796663    21A     -0.776029
      22A     -0.737679    23A     -0.686322    24A     -0.650185
      25A     -0.638814    26A     -0.613457    27A     -0.596949
      28A     -0.594650    29A     -0.589428    30A     -0.558529
      31A     -0.520219    32A     -0.510815    33A     -0.506840
      34A     -0.463556    35A     -0.395009    36A     -0.349447
      37A     -0.346519    38A     -0.313100

  @DF-RHF Final Energy:  -454.48365415625983

   => Energetics <=

    Nuclear Repulsion Energy =            546.2120255035414402
    One-Electron Energy =               -1698.1160075372745268
    Two-Electron Energy =                 697.4203278774731416
    Total Energy =                       -454.4836541562598313
  Basis Set: (AUG-CC-PVTZ AUX)
    Blend: AUG-CC-PVTZ-RI
    Molecular point group: c1

    Geometry (in Angstrom), charge = 0, multiplicity = 1:

       Center              X                  Y                   Z               Mass
    ------------   -----------------  -----------------  -----------------  -----------------
         N            0.996928572344     0.045301522897     0.003883711403    14.003074004430
         N            1.684809572344    -1.044655477103    -0.414895288597    14.003074004430
         C           -0.421364427656     0.028364522897    -0.005023288597    12.000000000000
         C           -1.127382427656     1.208700522897    -0.250977288597    12.000000000000
         C           -1.087914427656    -1.174537477103     0.241884711403    12.000000000000
         C            1.816319572344     1.062863522897     0.410234711403    12.000000000000
         C           -2.522237427656     1.184006522897    -0.227342288597    12.000000000000
         C           -2.481805427656    -1.187264477103     0.240079711403    12.000000000000
         C            3.112777572344     0.610342522897     0.240891711403    12.000000000000
         C           -3.202555427656    -0.010723477103     0.017092711403    12.000000000000
         C            2.976775572344    -0.693150477103    -0.265777288597    12.000000000000
         H           -0.593868427656     2.125447522897    -0.487065288597     1.007825032230
         H           -0.507599427656    -2.074158477103     0.419195711403     1.007825032230
         H            1.417434872344     1.887140922897     1.043203611403     1.007825032230
         H           -3.076686427656     2.099255522897    -0.418978288597     1.007825032230
         H           -3.007169427656    -2.120247477103     0.428210711403     1.007825032230
         H            4.022933572344     1.147435522897     0.468354711403     1.007825032230
         H           -4.289288427656    -0.026736477103     0.025201711403     1.007825032230
         H            3.748196572344    -1.400147477103    -0.542777288597     1.007825032230

  Basis Set: AUG-CC-PVTZ
    Blend: AUG-CC-PVTZ
  Basis Set: (AUG-CC-PVTZ AUX)
    Blend: AUG-CC-PVTZ-JKFIT
	 Reference Energy          =    -454.4836541562598313 [Eh]
	 Singles Energy            =      -0.0000000000000000 [Eh]
	 Same-Spin Energy          =      -0.5100982588290074 [Eh]
	 Opposite-Spin Energy      =      -1.5487621295624843 [Eh]
	 Correlation Energy        =      -2.0588603883914915 [Eh]
	 Total Energy              =    -456.5425145446513397 [Eh]

	 ================> DF-SCS-MP2 Energies <==================
	-----------------------------------------------------------
	 SCS Same-Spin Scale       =       0.3333333333333333 [-]
	 SCS Opposite-Spin Scale   =       1.2000000000000000 [-]
	 SCS Same-Spin Energy      =      -0.1700327529430025 [Eh]
	 SCS Opposite-Spin Energy  =      -1.8585145554749811 [Eh]
	 SCS Correlation Energy    =      -2.0285473084179837 [Eh]
	 SCS Total Energy          =    -456.5122014646777870 [Eh]
	-----------------------------------------------------------

  Dipole Moment: [D]
     X:    -0.8697      Y:     1.5174      Z:     0.9131     Total:     1.9729

*** Psi4 exiting successfully. Buy a developer a beer!
