                               Psi4 1.4a2.dev612

  ==> Input File <==

--------------------------------------------------------------------------
#psi4
#
memory 32 gb

molecule  {
0 1
  N        1.0119030     0.0333230     0.0008060
  N        1.6997840    -1.0566340    -0.4179730
  C       -0.4063900     0.0163860    -0.0081010
  C       -1.1124080     1.1967220    -0.2540550
  C       -1.0739355    -1.1561547     0.3856988
  C        1.8312940     1.0508850     0.4071570
  C       -2.5072630     1.1720280    -0.2304200
  C       -2.4668310    -1.1992430     0.2370020
  C        3.1277520     0.5983640     0.2378140
  C       -3.1875810    -0.0227020     0.0140150
  C        2.9917500    -0.7051290    -0.2688550
  H       -0.5788940     2.1134690    -0.4901430
  H       -0.4926250    -2.0861370     0.4161180
  H        1.4325560     1.9713960     0.8093900
  H       -3.0617120     2.0872770    -0.4220560
  H       -2.9921950    -2.1322260     0.4251330
  H        4.0379080     1.1354570     0.4652770
  H       -4.2743140    -0.0387150     0.0221240
  H        3.7631710    -1.4121260    -0.5458550
units angstrom
no_reorient  #important for SAPT in psi4, default
symmetry c1  #important for SAPT in psi4, default
}

set PROPERTIES_ORIGIN ["COM"]
properties('MP2/aug-cc-pvtz', properties = ['dipole'])
--------------------------------------------------------------------------

    Molecular point group: c1
  Charge       = 0
  Multiplicity = 1
  Basis Set: AUG-CC-PVTZ
    Blend: AUG-CC-PVTZ
  Basis Set: (AUG-CC-PVTZ AUX)
    Blend: AUG-CC-PVTZ-JKFIT

    Orbital Energies [Eh]
    ---------------------

    Doubly Occupied:

       1A    -15.651296     2A    -15.590892     3A    -11.293235
       4A    -11.282464     5A    -11.259481     6A    -11.249377
       7A    -11.247749     8A    -11.247137     9A    -11.242770
      10A    -11.241311    11A    -11.227992    12A     -1.382185
      13A     -1.175025    14A     -1.110330    15A     -1.063544
      16A     -1.023907    17A     -0.997840    18A     -0.860197
      19A     -0.847222    20A     -0.797760    21A     -0.776791
      22A     -0.742195    23A     -0.685803    24A     -0.649731
      25A     -0.639707    26A     -0.612163    27A     -0.596762
      28A     -0.593359    29A     -0.588259    30A     -0.563464
      31A     -0.520766    32A     -0.510559    33A     -0.503922
      34A     -0.462764    35A     -0.392431    36A     -0.349505
      37A     -0.346495    38A     -0.315231

  @DF-RHF Final Energy:  -454.48085523308043

   => Energetics <=

    Nuclear Repulsion Energy =            546.0485765870273553
    One-Electron Energy =               -1697.7756235213112177
    Two-Electron Energy =                 697.2461917012034291
    Total Energy =                       -454.4808552330804332
  Basis Set: (AUG-CC-PVTZ AUX)
    Blend: AUG-CC-PVTZ-RI
    Molecular point group: c1

    Geometry (in Angstrom), charge = 0, multiplicity = 1:

       Center              X                  Y                   Z               Mass
    ------------   -----------------  -----------------  -----------------  -----------------
         N            0.997010464858     0.042099425034    -0.006737330305    14.003074004430
         N            1.684891464858    -1.047857574966    -0.425516330305    14.003074004430
         C           -0.421282535142     0.025162425034    -0.015644330305    12.000000000000
         C           -1.127300535142     1.205498425034    -0.261598330305    12.000000000000
         C           -1.088828035142    -1.147378274966     0.378155469695    12.000000000000
         C            1.816401464858     1.059661425034     0.399613669695    12.000000000000
         C           -2.522155535142     1.180804425034    -0.237963330305    12.000000000000
         C           -2.481723535142    -1.190466574966     0.229458669695    12.000000000000
         C            3.112859464858     0.607140425034     0.230270669695    12.000000000000
         C           -3.202473535142    -0.013925574966     0.006471669695    12.000000000000
         C            2.976857464858    -0.696352574966    -0.276398330305    12.000000000000
         H           -0.593786535142     2.122245425034    -0.497686330305     1.007825032230
         H           -0.507517535142    -2.077360574966     0.408574669695     1.007825032230
         H            1.417663464858     1.980172425034     0.801846669695     1.007825032230
         H           -3.076604535142     2.096053425034    -0.429599330305     1.007825032230
         H           -3.007087535142    -2.123449574966     0.417589669695     1.007825032230
         H            4.023015464858     1.144233425034     0.457733669695     1.007825032230
         H           -4.289206535142    -0.029938574966     0.014580669695     1.007825032230
         H            3.748278464858    -1.403349574966    -0.553398330305     1.007825032230

  Basis Set: AUG-CC-PVTZ
    Blend: AUG-CC-PVTZ
  Basis Set: (AUG-CC-PVTZ AUX)
    Blend: AUG-CC-PVTZ-JKFIT
	 Reference Energy          =    -454.4808552330804332 [Eh]
	 Singles Energy            =      -0.0000000000000000 [Eh]
	 Same-Spin Energy          =      -0.5099879057964369 [Eh]
	 Opposite-Spin Energy      =      -1.5490592603993609 [Eh]
	 Correlation Energy        =      -2.0590471661957981 [Eh]
	 Total Energy              =    -456.5399023992762295 [Eh]

	 ================> DF-SCS-MP2 Energies <==================
	-----------------------------------------------------------
	 SCS Same-Spin Scale       =       0.3333333333333333 [-]
	 SCS Opposite-Spin Scale   =       1.2000000000000000 [-]
	 SCS Same-Spin Energy      =      -0.1699959685988123 [Eh]
	 SCS Opposite-Spin Energy  =      -1.8588711124792330 [Eh]
	 SCS Correlation Energy    =      -2.0288670810780451 [Eh]
	 SCS Total Energy          =    -456.5097223141584664 [Eh]
	-----------------------------------------------------------

  Dipole Moment: [D]
     X:    -0.9319      Y:     1.6784      Z:     0.6648     Total:     2.0316

*** Psi4 exiting successfully. Buy a developer a beer!
