                               Psi4 1.4a2.dev612

  ==> Input File <==

--------------------------------------------------------------------------
#psi4
#
memory 32 gb

molecule  {
0 1
  N        1.0119030     0.0333230     0.0008060
  N        1.6997840    -1.0566340    -0.4179730
  C       -0.4063900     0.0163860    -0.0081010
  C       -1.1124080     1.1967220    -0.2540550
  C       -1.0745992    -1.1359139     0.4836267
  C        1.8312940     1.0508850     0.4071570
  C       -2.5072630     1.1720280    -0.2304200
  C       -2.4668310    -1.1992430     0.2370020
  C        3.1277520     0.5983640     0.2378140
  C       -3.1875810    -0.0227020     0.0140150
  C        2.9917500    -0.7051290    -0.2688550
  H       -0.5788940     2.1134690    -0.4901430
  H       -0.4926250    -2.0861370     0.4161180
  H        1.4325560     1.9713960     0.8093900
  H       -3.0617120     2.0872770    -0.4220560
  H       -2.9921950    -2.1322260     0.4251330
  H        4.0379080     1.1354570     0.4652770
  H       -4.2743140    -0.0387150     0.0221240
  H        3.7631710    -1.4121260    -0.5458550
units angstrom
no_reorient  #important for SAPT in psi4, default
symmetry c1  #important for SAPT in psi4, default
}

set PROPERTIES_ORIGIN ["COM"]
properties('MP2/aug-cc-pvtz', properties = ['dipole'])
--------------------------------------------------------------------------

    Molecular point group: c1
  Charge       = 0
  Multiplicity = 1
  Basis Set: AUG-CC-PVTZ
    Blend: AUG-CC-PVTZ
  Basis Set: (AUG-CC-PVTZ AUX)
    Blend: AUG-CC-PVTZ-JKFIT

    Orbital Energies [Eh]
    ---------------------

    Doubly Occupied:

       1A    -15.651114     2A    -15.591087     3A    -11.296096
       4A    -11.282575     5A    -11.259530     6A    -11.251333
       7A    -11.250814     8A    -11.247213     9A    -11.245782
      10A    -11.241342    11A    -11.228118    12A     -1.382149
      13A     -1.174043    14A     -1.110343    15A     -1.063298
      16A     -1.022620    17A     -0.997130    18A     -0.859408
      19A     -0.846254    20A     -0.798062    21A     -0.775717
      22A     -0.741695    23A     -0.684135    24A     -0.649228
      25A     -0.639248    26A     -0.610059    27A     -0.596414
      28A     -0.590449    29A     -0.587398    30A     -0.563208
      31A     -0.520462    32A     -0.509887    33A     -0.499354
      34A     -0.462408    35A     -0.390289    36A     -0.349326
      37A     -0.346449    38A     -0.316736

  @DF-RHF Final Energy:  -454.46813744397184

   => Energetics <=

    Nuclear Repulsion Energy =            545.5527777057950516
    One-Electron Energy =               -1696.7802789552665672
    Two-Electron Energy =                 696.7593638054996745
    Total Energy =                       -454.4681374439718411
  Basis Set: (AUG-CC-PVTZ AUX)
    Blend: AUG-CC-PVTZ-RI
    Molecular point group: c1

    Geometry (in Angstrom), charge = 0, multiplicity = 1:

       Center              X                  Y                   Z               Mass
    ------------   -----------------  -----------------  -----------------  -----------------
         N            0.997065746799     0.040413496594    -0.014894094448    14.003074004430
         N            1.684946746799    -1.049543503406    -0.433673094448    14.003074004430
         C           -0.421227253201     0.023476496594    -0.023801094448    12.000000000000
         C           -1.127245253201     1.203812496594    -0.269755094448    12.000000000000
         C           -1.089436453201    -1.128823403406     0.467926605552    12.000000000000
         C            1.816456746799     1.057975496594     0.391456905552    12.000000000000
         C           -2.522100253201     1.179118496594    -0.246120094448    12.000000000000
         C           -2.481668253201    -1.192152503406     0.221301905552    12.000000000000
         C            3.112914746799     0.605454496594     0.222113905552    12.000000000000
         C           -3.202418253201    -0.015611503406    -0.001685094448    12.000000000000
         C            2.976912746799    -0.698038503406    -0.284555094448    12.000000000000
         H           -0.593731253201     2.120559496594    -0.505843094448     1.007825032230
         H           -0.507462253201    -2.079046503406     0.400417905552     1.007825032230
         H            1.417718746799     1.978486496594     0.793689905552     1.007825032230
         H           -3.076549253201     2.094367496594    -0.437756094448     1.007825032230
         H           -3.007032253201    -2.125135503406     0.409432905552     1.007825032230
         H            4.023070746799     1.142547496594     0.449576905552     1.007825032230
         H           -4.289151253201    -0.031624503406     0.006423905552     1.007825032230
         H            3.748333746799    -1.405035503406    -0.561555094448     1.007825032230

  Basis Set: AUG-CC-PVTZ
    Blend: AUG-CC-PVTZ
  Basis Set: (AUG-CC-PVTZ AUX)
    Blend: AUG-CC-PVTZ-JKFIT
	 Reference Energy          =    -454.4681374439718411 [Eh]
	 Singles Energy            =      -0.0000000000000000 [Eh]
	 Same-Spin Energy          =      -0.5105580835814650 [Eh]
	 Opposite-Spin Energy      =      -1.5509639373025783 [Eh]
	 Correlation Energy        =      -2.0615220208840435 [Eh]
	 Total Energy              =    -456.5296594648559108 [Eh]

	 ================> DF-SCS-MP2 Energies <==================
	-----------------------------------------------------------
	 SCS Same-Spin Scale       =       0.3333333333333333 [-]
	 SCS Opposite-Spin Scale   =       1.2000000000000000 [-]
	 SCS Same-Spin Energy      =      -0.1701860278604883 [Eh]
	 SCS Opposite-Spin Energy  =      -1.8611567247630938 [Eh]
	 SCS Correlation Energy    =      -2.0313427526235821 [Eh]
	 SCS Total Energy          =    -456.4994801965954139 [Eh]
	-----------------------------------------------------------

  Dipole Moment: [D]
     X:    -0.9715      Y:     1.7414      Z:     0.6010     Total:     2.0826

*** Psi4 exiting successfully. Buy a developer a beer!
