                               Psi4 1.4a2.dev612

  ==> Input File <==

--------------------------------------------------------------------------
#psi4
#
memory 32 gb

molecule  {
0 1
  N        1.0119030     0.0333230     0.0008060
  N        1.6997840    -1.0566340    -0.4179730
  C       -0.4063900     0.0163860    -0.0081010
  C       -1.1124080     1.1967220    -0.2540550
  C       -1.0729400    -1.1865160     0.2388070
  C        1.8312940     1.0508850     0.4071570
  C       -2.5072630     1.1720280    -0.2304200
  C       -2.4668310    -1.1992430     0.2370020
  C        3.1277520     0.5983640     0.2378140
  C       -3.1875810    -0.0227020     0.0140150
  C        2.9917500    -0.7051290    -0.2688550
  H       -0.5788940     2.1134690    -0.4901430
  H       -0.4926250    -2.0861370     0.4161180
  H        1.4325560     1.9713960     0.8093900
  H       -3.0617120     2.0872770    -0.4220560
  H       -2.9921950    -2.1322260     0.4251330
  H        4.0379080     1.1354570     0.4652770
  H       -4.2743140    -0.0387150     0.0221240
  H        3.7644459    -1.3209836    -0.7786456
units angstrom
no_reorient  #important for SAPT in psi4, default
symmetry c1  #important for SAPT in psi4, default
}

set PROPERTIES_ORIGIN ["COM"]
properties('MP2/aug-cc-pvtz', properties = ['dipole'])
--------------------------------------------------------------------------

    Molecular point group: c1
  Charge       = 0
  Multiplicity = 1
  Basis Set: AUG-CC-PVTZ
    Blend: AUG-CC-PVTZ
  Basis Set: (AUG-CC-PVTZ AUX)
    Blend: AUG-CC-PVTZ-JKFIT

    Orbital Energies [Eh]
    ---------------------

    Doubly Occupied:

       1A    -15.652743     2A    -15.591820     3A    -11.292129
       4A    -11.282832     5A    -11.262136     6A    -11.248464
       7A    -11.246984     8A    -11.246157     9A    -11.241153
      10A    -11.240961    11A    -11.228451    12A     -1.383193
      13A     -1.175799    14A     -1.110488    15A     -1.064453
      16A     -1.024638    17A     -0.998069    18A     -0.860388
      19A     -0.847674    20A     -0.795948    21A     -0.776727
      22A     -0.742622    23A     -0.686392    24A     -0.648081
      25A     -0.639809    26A     -0.618031    27A     -0.597468
      28A     -0.593734    29A     -0.588717    30A     -0.556556
      31A     -0.520256    32A     -0.511721    33A     -0.507165
      34A     -0.463254    35A     -0.395547    36A     -0.350245
      37A     -0.346463    38A     -0.312631

  @DF-RHF Final Energy:  -454.48374293418055

   => Energetics <=

    Nuclear Repulsion Energy =            546.2509661064469810
    One-Electron Energy =               -1698.1696171701080402
    Two-Electron Energy =                 697.4349081294803909
    Total Energy =                       -454.4837429341805546
  Basis Set: (AUG-CC-PVTZ AUX)
    Blend: AUG-CC-PVTZ-RI
    Molecular point group: c1

    Geometry (in Angstrom), charge = 0, multiplicity = 1:

       Center              X                  Y                   Z               Mass
    ------------   -----------------  -----------------  -----------------  -----------------
         N            0.996918627619     0.043990744359     0.007126285628    14.003074004430
         N            1.684799627619    -1.045966255641    -0.411652714372    14.003074004430
         C           -0.421374372381     0.027053744359    -0.001780714372    12.000000000000
         C           -1.127392372381     1.207389744359    -0.247734714372    12.000000000000
         C           -1.087924372381    -1.175848255641     0.245127285628    12.000000000000
         C            1.816309627619     1.061552744359     0.413477285628    12.000000000000
         C           -2.522247372381     1.182695744359    -0.224099714372    12.000000000000
         C           -2.481815372381    -1.188575255641     0.243322285628    12.000000000000
         C            3.112767627619     0.609031744359     0.244134285628    12.000000000000
         C           -3.202565372381    -0.012034255641     0.020335285628    12.000000000000
         C            2.976765627619    -0.694461255641    -0.262534714372    12.000000000000
         H           -0.593878372381     2.124136744359    -0.483822714372     1.007825032230
         H           -0.507609372381    -2.075469255641     0.422438285628     1.007825032230
         H            1.417571627619     1.982063744359     0.815710285628     1.007825032230
         H           -3.076696372381     2.097944744359    -0.415735714372     1.007825032230
         H           -3.007179372381    -2.121558255641     0.431453285628     1.007825032230
         H            4.022923627619     1.146124744359     0.471597285628     1.007825032230
         H           -4.289298372381    -0.028047255641     0.028444285628     1.007825032230
         H            3.749461527619    -1.310315855641    -0.772325314372     1.007825032230

  Basis Set: AUG-CC-PVTZ
    Blend: AUG-CC-PVTZ
  Basis Set: (AUG-CC-PVTZ AUX)
    Blend: AUG-CC-PVTZ-JKFIT
	 Reference Energy          =    -454.4837429341805546 [Eh]
	 Singles Energy            =      -0.0000000000000000 [Eh]
	 Same-Spin Energy          =      -0.5099703902063782 [Eh]
	 Opposite-Spin Energy      =      -1.5485549184371268 [Eh]
	 Correlation Energy        =      -2.0585253086435049 [Eh]
	 Total Energy              =    -456.5422682428240364 [Eh]

	 ================> DF-SCS-MP2 Energies <==================
	-----------------------------------------------------------
	 SCS Same-Spin Scale       =       0.3333333333333333 [-]
	 SCS Opposite-Spin Scale   =       1.2000000000000000 [-]
	 SCS Same-Spin Energy      =      -0.1699901300687927 [Eh]
	 SCS Opposite-Spin Energy  =      -1.8582659021245520 [Eh]
	 SCS Correlation Energy    =      -2.0282560321933447 [Eh]
	 SCS Total Energy          =    -456.5119989663738806 [Eh]
	-----------------------------------------------------------

  Dipole Moment: [D]
     X:    -0.9198      Y:     1.7371      Z:     0.5845     Total:     2.0506

*** Psi4 exiting successfully. Buy a developer a beer!
