                               Psi4 1.4a2.dev612

  ==> Input File <==

--------------------------------------------------------------------------
#psi4
#
memory 32 gb

molecule  {
0 1
  N        1.0119030     0.0333230     0.0008060
  N        1.6997840    -1.0566340    -0.4179730
  C       -0.4063900     0.0163860    -0.0081010
  C       -1.1124080     1.1967220    -0.2540550
  C       -1.0749310    -1.1257935     0.5325906
  C        1.8312940     1.0508850     0.4071570
  C       -2.5072630     1.1720280    -0.2304200
  C       -2.4668310    -1.1992430     0.2370020
  C        3.1277520     0.5983640     0.2378140
  C       -3.1875810    -0.0227020     0.0140150
  C        2.9917500    -0.7051290    -0.2688550
  H       -0.5788940     2.1134690    -0.4901430
  H       -0.4926250    -2.0861370     0.4161180
  H        1.4325560     1.9713960     0.8093900
  H       -3.0617120     2.0872770    -0.4220560
  H       -2.9921950    -2.1322260     0.4251330
  H        4.0379080     1.1354570     0.4652770
  H       -4.2743140    -0.0387150     0.0221240
  H        3.7631710    -1.4121260    -0.5458550
units angstrom
no_reorient  #important for SAPT in psi4, default
symmetry c1  #important for SAPT in psi4, default
}

set PROPERTIES_ORIGIN ["COM"]
properties('MP2/aug-cc-pvtz', properties = ['dipole'])
--------------------------------------------------------------------------

    Molecular point group: c1
  Charge       = 0
  Multiplicity = 1
  Basis Set: AUG-CC-PVTZ
    Blend: AUG-CC-PVTZ
  Basis Set: (AUG-CC-PVTZ AUX)
    Blend: AUG-CC-PVTZ-JKFIT

    Orbital Energies [Eh]
    ---------------------

    Doubly Occupied:

       1A    -15.651085     2A    -15.591219     3A    -11.298015
       4A    -11.282676     5A    -11.259600     6A    -11.252856
       7A    -11.252697     8A    -11.247753     9A    -11.247202
      10A    -11.241316    11A    -11.228233    12A     -1.382177
      13A     -1.173397    14A     -1.110373    15A     -1.063198
      16A     -1.021733    17A     -0.996589    18A     -0.858932
      19A     -0.845640    20A     -0.798215    21A     -0.775091
      22A     -0.741437    23A     -0.683184    24A     -0.648804
      25A     -0.638894    26A     -0.609107    27A     -0.596409
      28A     -0.588760    29A     -0.586333    30A     -0.563036
      31A     -0.520050    32A     -0.509216    33A     -0.496431
      34A     -0.462108    35A     -0.389104    36A     -0.349259
      37A     -0.346427    38A     -0.317512

  @DF-RHF Final Energy:  -454.45932192531870

   => Energetics <=

    Nuclear Repulsion Energy =            545.2250368934853668
    One-Electron Energy =               -1696.1205786252016878
    Two-Electron Energy =                 696.4362198063976166
    Total Energy =                       -454.4593219253187044
  Basis Set: (AUG-CC-PVTZ AUX)
    Blend: AUG-CC-PVTZ-RI
    Molecular point group: c1

    Geometry (in Angstrom), charge = 0, multiplicity = 1:

       Center              X                  Y                   Z               Mass
    ------------   -----------------  -----------------  -----------------  -----------------
         N            0.997093383604     0.039570532374    -0.018972472355    14.003074004430
         N            1.684974383604    -1.050386467626    -0.437751472355    14.003074004430
         C           -0.421199616396     0.022633532374    -0.027879472355    12.000000000000
         C           -1.127217616396     1.202969532374    -0.273833472355    12.000000000000
         C           -1.089740616396    -1.119545967626     0.512812127645    12.000000000000
         C            1.816484383604     1.057132532374     0.387378527645    12.000000000000
         C           -2.522072616396     1.178275532374    -0.250198472355    12.000000000000
         C           -2.481640616396    -1.192995467626     0.217223527645    12.000000000000
         C            3.112942383604     0.604611532374     0.218035527645    12.000000000000
         C           -3.202390616396    -0.016454467626    -0.005763472355    12.000000000000
         C            2.976940383604    -0.698881467626    -0.288633472355    12.000000000000
         H           -0.593703616396     2.119716532374    -0.509921472355     1.007825032230
         H           -0.507434616396    -2.079889467626     0.396339527645     1.007825032230
         H            1.417746383604     1.977643532374     0.789611527645     1.007825032230
         H           -3.076521616396     2.093524532374    -0.441834472355     1.007825032230
         H           -3.007004616396    -2.125978467626     0.405354527645     1.007825032230
         H            4.023098383604     1.141704532374     0.445498527645     1.007825032230
         H           -4.289123616396    -0.032467467626     0.002345527645     1.007825032230
         H            3.748361383604    -1.405878467626    -0.565633472355     1.007825032230

  Basis Set: AUG-CC-PVTZ
    Blend: AUG-CC-PVTZ
  Basis Set: (AUG-CC-PVTZ AUX)
    Blend: AUG-CC-PVTZ-JKFIT
	 Reference Energy          =    -454.4593219253187044 [Eh]
	 Singles Energy            =      -0.0000000000000000 [Eh]
	 Same-Spin Energy          =      -0.5109388991314899 [Eh]
	 Opposite-Spin Energy      =      -1.5522324049203098 [Eh]
	 Correlation Energy        =      -2.0631713040517998 [Eh]
	 Total Energy              =    -456.5224932293705251 [Eh]

	 ================> DF-SCS-MP2 Energies <==================
	-----------------------------------------------------------
	 SCS Same-Spin Scale       =       0.3333333333333333 [-]
	 SCS Opposite-Spin Scale   =       1.2000000000000000 [-]
	 SCS Same-Spin Energy      =      -0.1703129663771633 [Eh]
	 SCS Opposite-Spin Energy  =      -1.8626788859043717 [Eh]
	 SCS Correlation Energy    =      -2.0329918522815351 [Eh]
	 SCS Total Energy          =    -456.4923137776002591 [Eh]
	-----------------------------------------------------------

  Dipole Moment: [D]
     X:    -0.9934      Y:     1.7830      Z:     0.5647     Total:     2.1177

*** Psi4 exiting successfully. Buy a developer a beer!
