                               Psi4 1.4a2.dev612

  ==> Input File <==

--------------------------------------------------------------------------
#psi4
#
memory 32 gb

molecule  {
0 1
  N        1.0119030     0.0333230     0.0008060
  N        1.6997840    -1.0566340    -0.4179730
  C       -0.4063900     0.0163860    -0.0081010
  C       -1.1124080     1.1967220    -0.2540550
  C       -1.0736037    -1.1662752     0.3367349
  C        1.8312940     1.0508850     0.4071570
  C       -2.5072630     1.1720280    -0.2304200
  C       -2.4668310    -1.1992430     0.2370020
  C        3.1277520     0.5983640     0.2378140
  C       -3.1875810    -0.0227020     0.0140150
  C        2.9917500    -0.7051290    -0.2688550
  H       -0.5788940     2.1134690    -0.4901430
  H       -0.4926250    -2.0861370     0.4161180
  H        1.4325560     1.9713960     0.8093900
  H       -3.0617120     2.0872770    -0.4220560
  H       -2.9921950    -2.1322260     0.4251330
  H        4.0379080     1.1354570     0.4652770
  H       -4.2743140    -0.0387150     0.0221240
  H        3.7631710    -1.4121260    -0.5458550
units angstrom
no_reorient  #important for SAPT in psi4, default
symmetry c1  #important for SAPT in psi4, default
}

set PROPERTIES_ORIGIN ["COM"]
properties('MP2/aug-cc-pvtz', properties = ['dipole'])
--------------------------------------------------------------------------

    Molecular point group: c1
  Charge       = 0
  Multiplicity = 1
  Basis Set: AUG-CC-PVTZ
    Blend: AUG-CC-PVTZ
  Basis Set: (AUG-CC-PVTZ AUX)
    Blend: AUG-CC-PVTZ-JKFIT

    Orbital Energies [Eh]
    ---------------------

    Doubly Occupied:

       1A    -15.651443     2A    -15.590828     3A    -11.292348
       4A    -11.282457     5A    -11.259504     6A    -11.248781
       7A    -11.247035     8A    -11.246764     9A    -11.241795
      10A    -11.241229    11A    -11.227981    12A     -1.382248
      13A     -1.175332    14A     -1.110336    15A     -1.063684
      16A     -1.024279    17A     -0.998042    18A     -0.860476
      19A     -0.847566    20A     -0.797609    21A     -0.777187
      22A     -0.742396    23A     -0.686384    24A     -0.649727
      25A     -0.639824    26A     -0.613265    27A     -0.597078
      28A     -0.594068    29A     -0.588484    30A     -0.563560
      31A     -0.520710    32A     -0.510655    33A     -0.505526
      34A     -0.462859    35A     -0.393375    36A     -0.349610
      37A     -0.346482    38A     -0.314490

  @DF-RHF Final Energy:  -454.48481428212483

   => Energetics <=

    Nuclear Repulsion Energy =            546.2123018688361071
    One-Electron Energy =               -1698.1033951612414512
    Two-Electron Energy =                 697.4062790102806275
    Total Energy =                       -454.4848142821248302
  Basis Set: (AUG-CC-PVTZ AUX)
    Blend: AUG-CC-PVTZ-RI
    Molecular point group: c1

    Geometry (in Angstrom), charge = 0, multiplicity = 1:

       Center              X                  Y                   Z               Mass
    ------------   -----------------  -----------------  -----------------  -----------------
         N            0.996982828052     0.042942397583    -0.002658952398    14.003074004430
         N            1.684863828052    -1.047014602417    -0.421437952398    14.003074004430
         C           -0.421310171948     0.026005397583    -0.011565952398    12.000000000000
         C           -1.127328171948     1.206341397583    -0.257519952398    12.000000000000
         C           -1.088523871948    -1.156655802417     0.333269947602    12.000000000000
         C            1.816373828052     1.060504397583     0.403692047602    12.000000000000
         C           -2.522183171948     1.181647397583    -0.233884952398    12.000000000000
         C           -2.481751171948    -1.189623602417     0.233537047602    12.000000000000
         C            3.112831828052     0.607983397583     0.234349047602    12.000000000000
         C           -3.202501171948    -0.013082602417     0.010550047602    12.000000000000
         C            2.976829828052    -0.695509602417    -0.272319952398    12.000000000000
         H           -0.593814171948     2.123088397583    -0.493607952398     1.007825032230
         H           -0.507545171948    -2.076517602417     0.412653047602     1.007825032230
         H            1.417635828052     1.981015397583     0.805925047602     1.007825032230
         H           -3.076632171948     2.096896397583    -0.425520952398     1.007825032230
         H           -3.007115171948    -2.122606602417     0.421668047602     1.007825032230
         H            4.022987828052     1.145076397583     0.461812047602     1.007825032230
         H           -4.289234171948    -0.029095602417     0.018659047602     1.007825032230
         H            3.748250828052    -1.402506602417    -0.549319952398     1.007825032230

  Basis Set: AUG-CC-PVTZ
    Blend: AUG-CC-PVTZ
  Basis Set: (AUG-CC-PVTZ AUX)
    Blend: AUG-CC-PVTZ-JKFIT
	 Reference Energy          =    -454.4848142821248302 [Eh]
	 Singles Energy            =      -0.0000000000000000 [Eh]
	 Same-Spin Energy          =      -0.5098080308786960 [Eh]
	 Opposite-Spin Energy      =      -1.5484458591201438 [Eh]
	 Correlation Energy        =      -2.0582538899988396 [Eh]
	 Total Energy              =    -456.5430681721236965 [Eh]

	 ================> DF-SCS-MP2 Energies <==================
	-----------------------------------------------------------
	 SCS Same-Spin Scale       =       0.3333333333333333 [-]
	 SCS Opposite-Spin Scale   =       1.2000000000000000 [-]
	 SCS Same-Spin Energy      =      -0.1699360102928986 [Eh]
	 SCS Opposite-Spin Energy  =      -1.8581350309441724 [Eh]
	 SCS Correlation Energy    =      -2.0280710412370713 [Eh]
	 SCS Total Energy          =    -456.5128853233618997 [Eh]
	-----------------------------------------------------------

  Dipole Moment: [D]
     X:    -0.9146      Y:     1.6574      Z:     0.6922     Total:     2.0156

*** Psi4 exiting successfully. Buy a developer a beer!
