                               Psi4 1.4a2.dev612

  ==> Input File <==

--------------------------------------------------------------------------
#psi4
#
memory 32 gb

molecule  {
0 1
  N        1.0119030     0.0333230     0.0008060
  N        1.6997840    -1.0566340    -0.4179730
  C       -0.4063900     0.0163860    -0.0081010
  C       -1.1124080     1.1967220    -0.2540550
  C       -1.0729400    -1.1865160     0.2388070
  C        1.8312940     1.0508850     0.4071570
  C       -2.5072630     1.1720280    -0.2304200
  C       -2.4668310    -1.1992430     0.2370020
  C        3.1277520     0.5983640     0.2378140
  C       -3.1875810    -0.0227020     0.0140150
  C        2.9917500    -0.7051290    -0.2688550
  H       -0.5788940     2.1134690    -0.4901430
  H       -0.4926250    -2.0861370     0.4161180
  H        1.4325560     1.9713960     0.8093900
  H       -3.0617120     2.0872770    -0.4220560
  H       -2.9921950    -2.1322260     0.4251330
  H        4.0379080     1.1354570     0.4652770
  H       -4.2743140    -0.0387150     0.0221240
  H        3.7636810    -1.3756690    -0.6389712
units angstrom
no_reorient  #important for SAPT in psi4, default
symmetry c1  #important for SAPT in psi4, default
}

set PROPERTIES_ORIGIN ["COM"]
properties('MP2/aug-cc-pvtz', properties = ['dipole'])
--------------------------------------------------------------------------

    Molecular point group: c1
  Charge       = 0
  Multiplicity = 1
  Basis Set: AUG-CC-PVTZ
    Blend: AUG-CC-PVTZ
  Basis Set: (AUG-CC-PVTZ AUX)
    Blend: AUG-CC-PVTZ-JKFIT

    Orbital Energies [Eh]
    ---------------------

    Doubly Occupied:

       1A    -15.652050     2A    -15.591017     3A    -11.291841
       4A    -11.282615     5A    -11.260094     6A    -11.248270
       7A    -11.246783     8A    -11.246003     9A    -11.241022
      10A    -11.240855    11A    -11.228148    12A     -1.382631
      13A     -1.175584    14A     -1.110391    15A     -1.064087
      16A     -1.024469    17A     -0.998159    18A     -0.860670
      19A     -0.847918    20A     -0.797051    21A     -0.777466
      22A     -0.742632    23A     -0.686706    24A     -0.648583
      25A     -0.640052    26A     -0.616502    27A     -0.597405
      28A     -0.594216    29A     -0.588678    30A     -0.561839
      31A     -0.520258    32A     -0.511185    33A     -0.507003
      34A     -0.462980    35A     -0.395324    36A     -0.349963
      37A     -0.346332    38A     -0.312821

  @DF-RHF Final Energy:  -454.48740554587891

   => Energetics <=

    Nuclear Repulsion Energy =            546.3441910429065729
    One-Electron Energy =               -1698.3639866981632167
    Two-Electron Energy =                 697.5323901093776158
    Total Energy =                       -454.4874055458789144
  Basis Set: (AUG-CC-PVTZ AUX)
    Blend: AUG-CC-PVTZ-RI
    Molecular point group: c1

    Geometry (in Angstrom), charge = 0, multiplicity = 1:

       Center              X                  Y                   Z               Mass
    ------------   -----------------  -----------------  -----------------  -----------------
         N            0.996923978435     0.044373293078     0.006149201018    14.003074004430
         N            1.684804978435    -1.045583706922    -0.412629798982    14.003074004430
         C           -0.421369021565     0.027436293078    -0.002757798982    12.000000000000
         C           -1.127387021565     1.207772293078    -0.248711798982    12.000000000000
         C           -1.087919021565    -1.175465706922     0.244150201018    12.000000000000
         C            1.816314978435     1.061935293078     0.412500201018    12.000000000000
         C           -2.522242021565     1.183078293078    -0.225076798982    12.000000000000
         C           -2.481810021565    -1.188192706922     0.242345201018    12.000000000000
         C            3.112772978435     0.609414293078     0.243157201018    12.000000000000
         C           -3.202560021565    -0.011651706922     0.019358201018    12.000000000000
         C            2.976770978435    -0.694078706922    -0.263511798982    12.000000000000
         H           -0.593873021565     2.124519293078    -0.484799798982     1.007825032230
         H           -0.507604021565    -2.075086706922     0.421461201018     1.007825032230
         H            1.417576978435     1.982446293078     0.814733201018     1.007825032230
         H           -3.076691021565     2.098327293078    -0.416712798982     1.007825032230
         H           -3.007174021565    -2.121175706922     0.430476201018     1.007825032230
         H            4.022928978435     1.146507293078     0.470620201018     1.007825032230
         H           -4.289293021565    -0.027664706922     0.027467201018     1.007825032230
         H            3.748701978435    -1.364618706922    -0.633627998982     1.007825032230

  Basis Set: AUG-CC-PVTZ
    Blend: AUG-CC-PVTZ
  Basis Set: (AUG-CC-PVTZ AUX)
    Blend: AUG-CC-PVTZ-JKFIT
	 Reference Energy          =    -454.4874055458789144 [Eh]
	 Singles Energy            =      -0.0000000000000000 [Eh]
	 Same-Spin Energy          =      -0.5097289566446160 [Eh]
	 Opposite-Spin Energy      =      -1.5480149137788368 [Eh]
	 Correlation Energy        =      -2.0577438704234527 [Eh]
	 Total Energy              =    -456.5451494163023654 [Eh]

	 ================> DF-SCS-MP2 Energies <==================
	-----------------------------------------------------------
	 SCS Same-Spin Scale       =       0.3333333333333333 [-]
	 SCS Opposite-Spin Scale   =       1.2000000000000000 [-]
	 SCS Same-Spin Energy      =      -0.1699096522148720 [Eh]
	 SCS Opposite-Spin Energy  =      -1.8576178965346042 [Eh]
	 SCS Correlation Energy    =      -2.0275275487494762 [Eh]
	 SCS Total Energy          =    -456.5149330946284181 [Eh]
	-----------------------------------------------------------

  Dipole Moment: [D]
     X:    -0.8869      Y:     1.6702      Z:     0.6732     Total:     2.0074

*** Psi4 exiting successfully. Buy a developer a beer!
