                               Psi4 1.4a2.dev612

  ==> Input File <==

--------------------------------------------------------------------------
#psi4
#
memory 32 gb

molecule  {
0 1
  N        1.0119030     0.0333230     0.0008060
  N        1.6997840    -1.0566340    -0.4179730
  C       -0.4063900     0.0163860    -0.0081010
  C       -1.1124080     1.1967220    -0.2540550
  C       -1.0729400    -1.1865160     0.2388070
  C        1.8312940     1.0508850     0.4071570
  C       -2.5072630     1.1720280    -0.2304200
  C       -2.4668310    -1.1992430     0.2370020
  C        3.1277520     0.5983640     0.2378140
  C       -3.1875810    -0.0227020     0.0140150
  C        2.9917500    -0.7051290    -0.2688550
  H       -0.5788940     2.1134690    -0.4901430
  H       -0.4926250    -2.0861370     0.4161180
  H        1.4325560     1.9713960     0.8093900
  H       -3.0617120     2.0872770    -0.4220560
  H       -2.9921950    -2.1322260     0.4251330
  H        4.0379080     1.1354570     0.4652770
  H       -4.2743140    -0.0387150     0.0221240
  H        3.7641909    -1.3392121    -0.7320874
units angstrom
no_reorient  #important for SAPT in psi4, default
symmetry c1  #important for SAPT in psi4, default
}

set PROPERTIES_ORIGIN ["COM"]
properties('MP2/aug-cc-pvtz', properties = ['dipole'])
--------------------------------------------------------------------------

    Molecular point group: c1
  Charge       = 0
  Multiplicity = 1
  Basis Set: AUG-CC-PVTZ
    Blend: AUG-CC-PVTZ
  Basis Set: (AUG-CC-PVTZ AUX)
    Blend: AUG-CC-PVTZ-JKFIT

    Orbital Energies [Eh]
    ---------------------

    Doubly Occupied:

       1A    -15.652465     2A    -15.591498     3A    -11.292015
       4A    -11.282745     5A    -11.261280     6A    -11.248383
       7A    -11.246897     8A    -11.246089     9A    -11.241088
      10A    -11.240907    11A    -11.228325    12A     -1.382967
      13A     -1.175709    14A     -1.110449    15A     -1.064304
      16A     -1.024564    17A     -0.998104    18A     -0.860495
      19A     -0.847777    20A     -0.796386    21A     -0.777046
      22A     -0.742629    23A     -0.686517    24A     -0.648192
      25A     -0.639979    26A     -0.617555    27A     -0.597450
      28A     -0.593901    29A     -0.588686    30A     -0.558655
      31A     -0.520248    32A     -0.511545    33A     -0.507095
      34A     -0.463143    35A     -0.395509    36A     -0.350137
      37A     -0.346404    38A     -0.312681

  @DF-RHF Final Energy:  -454.48536688600075

   => Energetics <=

    Nuclear Repulsion Energy =            546.2900261410063649
    One-Electron Energy =               -1698.2511466012581423
    Two-Electron Energy =                 697.4757535742510299
    Total Energy =                       -454.4853668860007474
  Basis Set: (AUG-CC-PVTZ AUX)
    Blend: AUG-CC-PVTZ-RI
    Molecular point group: c1

    Geometry (in Angstrom), charge = 0, multiplicity = 1:

       Center              X                  Y                   Z               Mass
    ------------   -----------------  -----------------  -----------------  -----------------
         N            0.996920411457     0.044118260832     0.006800590292    14.003074004430
         N            1.684801411457    -1.045838739168    -0.411978409708    14.003074004430
         C           -0.421372588543     0.027181260832    -0.002106409708    12.000000000000
         C           -1.127390588543     1.207517260832    -0.248060409708    12.000000000000
         C           -1.087922588543    -1.175720739168     0.244801590292    12.000000000000
         C            1.816311411457     1.061680260832     0.413151590292    12.000000000000
         C           -2.522245588543     1.182823260832    -0.224425409708    12.000000000000
         C           -2.481813588543    -1.188447739168     0.242996590292    12.000000000000
         C            3.112769411457     0.609159260832     0.243808590292    12.000000000000
         C           -3.202563588543    -0.011906739168     0.020009590292    12.000000000000
         C            2.976767411457    -0.694333739168    -0.262860409708    12.000000000000
         H           -0.593876588543     2.124264260832    -0.484148409708     1.007825032230
         H           -0.507607588543    -2.075341739168     0.422112590292     1.007825032230
         H            1.417573411457     1.982191260832     0.815384590292     1.007825032230
         H           -3.076694588543     2.098072260832    -0.416061409708     1.007825032230
         H           -3.007177588543    -2.121430739168     0.431127590292     1.007825032230
         H            4.022925411457     1.146252260832     0.471271590292     1.007825032230
         H           -4.289296588543    -0.027919739168     0.028118590292     1.007825032230
         H            3.749208311457    -1.328416839168    -0.726092809708     1.007825032230

  Basis Set: AUG-CC-PVTZ
    Blend: AUG-CC-PVTZ
  Basis Set: (AUG-CC-PVTZ AUX)
    Blend: AUG-CC-PVTZ-JKFIT
	 Reference Energy          =    -454.4853668860007474 [Eh]
	 Singles Energy            =      -0.0000000000000000 [Eh]
	 Same-Spin Energy          =      -0.5098698774790892 [Eh]
	 Opposite-Spin Energy      =      -1.5483210894989585 [Eh]
	 Correlation Energy        =      -2.0581909669780476 [Eh]
	 Total Energy              =    -456.5435578529787790 [Eh]

	 ================> DF-SCS-MP2 Energies <==================
	-----------------------------------------------------------
	 SCS Same-Spin Scale       =       0.3333333333333333 [-]
	 SCS Opposite-Spin Scale   =       1.2000000000000000 [-]
	 SCS Same-Spin Energy      =      -0.1699566258263631 [Eh]
	 SCS Opposite-Spin Energy  =      -1.8579853073987502 [Eh]
	 SCS Correlation Energy    =      -2.0279419332251134 [Eh]
	 SCS Total Energy          =    -456.5133088192258697 [Eh]
	-----------------------------------------------------------

  Dipole Moment: [D]
     X:    -0.9049      Y:     1.7125      Z:     0.6127     Total:     2.0314

*** Psi4 exiting successfully. Buy a developer a beer!
