                               Psi4 1.4a2.dev612

  ==> Input File <==

--------------------------------------------------------------------------
#psi4
#
memory 32 gb

molecule  {
0 1
  N        1.0119030     0.0333230     0.0008060
  N        1.6997840    -1.0566340    -0.4179730
  C       -0.4063900     0.0163860    -0.0081010
  C       -1.1124080     1.1967220    -0.2540550
  C       -1.0729400    -1.1865160     0.2388070
  C        1.8312940     1.0508850     0.4071570
  C       -2.5072630     1.1720280    -0.2304200
  C       -2.4668310    -1.1992430     0.2370020
  C        3.1277520     0.5983640     0.2378140
  C       -3.1875810    -0.0227020     0.0140150
  C        2.9917500    -0.7051290    -0.2688550
  H       -0.5788940     2.1134690    -0.4901430
  H       -0.4926250    -2.0861370     0.4161180
  H        1.4325267     1.9521493     0.8555372
  H       -3.0617120     2.0872770    -0.4220560
  H       -2.9921950    -2.1322260     0.4251330
  H        4.0379080     1.1354570     0.4652770
  H       -4.2743140    -0.0387150     0.0221240
  H        3.7631710    -1.4121260    -0.5458550
units angstrom
no_reorient  #important for SAPT in psi4, default
symmetry c1  #important for SAPT in psi4, default
}

set PROPERTIES_ORIGIN ["COM"]
properties('MP2/aug-cc-pvtz', properties = ['dipole'])
--------------------------------------------------------------------------

    Molecular point group: c1
  Charge       = 0
  Multiplicity = 1
  Basis Set: AUG-CC-PVTZ
    Blend: AUG-CC-PVTZ
  Basis Set: (AUG-CC-PVTZ AUX)
    Blend: AUG-CC-PVTZ-JKFIT

    Orbital Energies [Eh]
    ---------------------

    Doubly Occupied:

       1A    -15.651861     2A    -15.590836     3A    -11.291699
       4A    -11.282587     5A    -11.259657     6A    -11.248171
       7A    -11.246682     8A    -11.245972     9A    -11.241058
      10A    -11.240894    11A    -11.228110    12A     -1.382478
      13A     -1.175521    14A     -1.110345    15A     -1.063930
      16A     -1.024424    17A     -0.998176    18A     -0.860670
      19A     -0.847909    20A     -0.797296    21A     -0.777480
      22A     -0.742211    23A     -0.686785    24A     -0.649331
      25A     -0.639604    26A     -0.614857    27A     -0.597206
      28A     -0.594518    29A     -0.589247    30A     -0.563119
      31A     -0.520300    32A     -0.510827    33A     -0.506956
      34A     -0.462974    35A     -0.394969    36A     -0.349751
      37A     -0.346383    38A     -0.313025

  @DF-RHF Final Energy:  -454.48784161537645

   => Energetics <=

    Nuclear Repulsion Energy =            546.3518727415603280
    One-Electron Energy =               -1698.3837912033327484
    Two-Electron Energy =                 697.5440768463959103
    Total Energy =                       -454.4878416153765102
  Basis Set: (AUG-CC-PVTZ AUX)
    Blend: AUG-CC-PVTZ-RI
    Molecular point group: c1

    Geometry (in Angstrom), charge = 0, multiplicity = 1:

       Center              X                  Y                   Z               Mass
    ------------   -----------------  -----------------  -----------------  -----------------
         N            0.996927751078     0.044762965258     0.005174991537    14.003074004430
         N            1.684808751078    -1.045194034742    -0.413604008463    14.003074004430
         C           -0.421365248922     0.027825965258    -0.003732008463    12.000000000000
         C           -1.127383248922     1.208161965258    -0.249686008463    12.000000000000
         C           -1.087915248922    -1.175076034742     0.243175991537    12.000000000000
         C            1.816318751078     1.062324965258     0.411525991537    12.000000000000
         C           -2.522238248922     1.183467965258    -0.226051008463    12.000000000000
         C           -2.481806248922    -1.187803034742     0.241370991537    12.000000000000
         C            3.112776751078     0.609803965258     0.242182991537    12.000000000000
         C           -3.202556248922    -0.011262034742     0.018383991537    12.000000000000
         C            2.976774751078    -0.693689034742    -0.264486008463    12.000000000000
         H           -0.593869248922     2.124908965258    -0.485774008463     1.007825032230
         H           -0.507600248922    -2.074697034742     0.420486991537     1.007825032230
         H            1.417551451078     1.963589265258     0.859906191537     1.007825032230
         H           -3.076687248922     2.098716965258    -0.417687008463     1.007825032230
         H           -3.007170248922    -2.120786034742     0.429501991537     1.007825032230
         H            4.022932751078     1.146896965258     0.469645991537     1.007825032230
         H           -4.289289248922    -0.027275034742     0.026492991537     1.007825032230
         H            3.748195751078    -1.400686034742    -0.541486008463     1.007825032230

  Basis Set: AUG-CC-PVTZ
    Blend: AUG-CC-PVTZ
  Basis Set: (AUG-CC-PVTZ AUX)
    Blend: AUG-CC-PVTZ-JKFIT
	 Reference Energy          =    -454.4878416153764533 [Eh]
	 Singles Energy            =      -0.0000000000000000 [Eh]
	 Same-Spin Energy          =      -0.5097065285378943 [Eh]
	 Opposite-Spin Energy      =      -1.5479622540632443 [Eh]
	 Correlation Energy        =      -2.0576687826011386 [Eh]
	 Total Energy              =    -456.5455103979775799 [Eh]

	 ================> DF-SCS-MP2 Energies <==================
	-----------------------------------------------------------
	 SCS Same-Spin Scale       =       0.3333333333333333 [-]
	 SCS Opposite-Spin Scale   =       1.2000000000000000 [-]
	 SCS Same-Spin Energy      =      -0.1699021761792981 [Eh]
	 SCS Opposite-Spin Energy  =      -1.8575547048758931 [Eh]
	 SCS Correlation Energy    =      -2.0274568810551914 [Eh]
	 SCS Total Energy          =    -456.5152984964316261 [Eh]
	-----------------------------------------------------------

  Dipole Moment: [D]
     X:    -0.8852      Y:     1.6200      Z:     0.7770     Total:     2.0029

*** Psi4 exiting successfully. Buy a developer a beer!
