                               Psi4 1.4a2.dev612

  ==> Input File <==

--------------------------------------------------------------------------
#psi4
#
memory 32 gb

molecule  {
0 1
  N        1.0119030     0.0333230     0.0008060
  N        1.6997840    -1.0566340    -0.4179730
  C       -0.4063900     0.0163860    -0.0081010
  C       -1.1124080     1.1967220    -0.2540550
  C       -1.0729400    -1.1865160     0.2388070
  C        1.8312940     1.0508850     0.4071570
  C       -2.5072630     1.1720280    -0.2304200
  C       -2.4668310    -1.1992430     0.2370020
  C        3.1277520     0.5983640     0.2378140
  C       -3.1875810    -0.0227020     0.0140150
  C        2.9917500    -0.7051290    -0.2688550
  H       -0.5788940     2.1134690    -0.4901430
  H       -0.4926250    -2.0861370     0.4161180
  H        1.4323800     1.8559157     1.0862731
  H       -3.0617120     2.0872770    -0.4220560
  H       -2.9921950    -2.1322260     0.4251330
  H        4.0379080     1.1354570     0.4652770
  H       -4.2743140    -0.0387150     0.0221240
  H        3.7631710    -1.4121260    -0.5458550
units angstrom
no_reorient  #important for SAPT in psi4, default
symmetry c1  #important for SAPT in psi4, default
}

set PROPERTIES_ORIGIN ["COM"]
properties('MP2/aug-cc-pvtz', properties = ['dipole'])
--------------------------------------------------------------------------

    Molecular point group: c1
  Charge       = 0
  Multiplicity = 1
  Basis Set: AUG-CC-PVTZ
    Blend: AUG-CC-PVTZ
  Basis Set: (AUG-CC-PVTZ AUX)
    Blend: AUG-CC-PVTZ-JKFIT

    Orbital Energies [Eh]
    ---------------------

    Doubly Occupied:

       1A    -15.652309     2A    -15.592359     3A    -11.291421
       4A    -11.284977     5A    -11.260079     6A    -11.247790
       7A    -11.246249     8A    -11.245861     9A    -11.241174
      10A    -11.240950    11A    -11.229122    12A     -1.383028
      13A     -1.175537    14A     -1.110383    15A     -1.063272
      16A     -1.024235    17A     -0.998271    18A     -0.860151
      19A     -0.847690    20A     -0.796447    21A     -0.775521
      22A     -0.735883    23A     -0.686087    24A     -0.650376
      25A     -0.638647    26A     -0.613334    27A     -0.596888
      28A     -0.594659    29A     -0.589069    30A     -0.556697
      31A     -0.520196    32A     -0.510796    33A     -0.506805
      34A     -0.463782    35A     -0.395045    36A     -0.349401
      37A     -0.346525    38A     -0.313127

  @DF-RHF Final Energy:  -454.48158772735189

   => Energetics <=

    Nuclear Repulsion Energy =            546.1563893067764184
    One-Electron Energy =               -1698.0076658160980969
    Two-Electron Energy =                 697.3696887819697849
    Total Energy =                       -454.4815877273518936
  Basis Set: (AUG-CC-PVTZ AUX)
    Blend: AUG-CC-PVTZ-RI
    Molecular point group: c1

    Geometry (in Angstrom), charge = 0, multiplicity = 1:

       Center              X                  Y                   Z               Mass
    ------------   -----------------  -----------------  -----------------  -----------------
         N            0.996928777310     0.045436162132     0.003560891195    14.003074004430
         N            1.684809777310    -1.044520837868    -0.415218108805    14.003074004430
         C           -0.421364222690     0.028499162132    -0.005346108805    12.000000000000
         C           -1.127382222690     1.208835162132    -0.251300108805    12.000000000000
         C           -1.087914222690    -1.174402837868     0.241561891195    12.000000000000
         C            1.816319777310     1.062998162132     0.409911891195    12.000000000000
         C           -2.522237222690     1.184141162132    -0.227665108805    12.000000000000
         C           -2.481805222690    -1.187129837868     0.239756891195    12.000000000000
         C            3.112777777310     0.610477162132     0.240568891195    12.000000000000
         C           -3.202555222690    -0.010588837868     0.016769891195    12.000000000000
         C            2.976775777310    -0.693015837868    -0.266100108805    12.000000000000
         H           -0.593868222690     2.125582162132    -0.487388108805     1.007825032230
         H           -0.507599222690    -2.074023837868     0.418872891195     1.007825032230
         H            1.417405777310     1.868028862132     1.089027991195     1.007825032230
         H           -3.076686222690     2.099390162132    -0.419301108805     1.007825032230
         H           -3.007169222690    -2.120112837868     0.427887891195     1.007825032230
         H            4.022933777310     1.147570162132     0.468031891195     1.007825032230
         H           -4.289288222690    -0.026601837868     0.024878891195     1.007825032230
         H            3.748196777310    -1.400012837868    -0.543100108805     1.007825032230

  Basis Set: AUG-CC-PVTZ
    Blend: AUG-CC-PVTZ
  Basis Set: (AUG-CC-PVTZ AUX)
    Blend: AUG-CC-PVTZ-JKFIT
	 Reference Energy          =    -454.4815877273518936 [Eh]
	 Singles Energy            =      -0.0000000000000000 [Eh]
	 Same-Spin Energy          =      -0.5102540780575799 [Eh]
	 Opposite-Spin Energy      =      -1.5491034323798047 [Eh]
	 Correlation Energy        =      -2.0593575104373847 [Eh]
	 Total Energy              =    -456.5409452377892876 [Eh]

	 ================> DF-SCS-MP2 Energies <==================
	-----------------------------------------------------------
	 SCS Same-Spin Scale       =       0.3333333333333333 [-]
	 SCS Opposite-Spin Scale   =       1.2000000000000000 [-]
	 SCS Same-Spin Energy      =      -0.1700846926858600 [Eh]
	 SCS Opposite-Spin Energy  =      -1.8589241188557657 [Eh]
	 SCS Correlation Energy    =      -2.0290088115416256 [Eh]
	 SCS Total Energy          =    -456.5105965388935374 [Eh]
	-----------------------------------------------------------

  Dipole Moment: [D]
     X:    -0.8625      Y:     1.4849      Z:     0.9423     Total:     1.9587

*** Psi4 exiting successfully. Buy a developer a beer!
