                               Psi4 1.4a2.dev612

  ==> Input File <==

--------------------------------------------------------------------------
#psi4
#
memory 32 gb

molecule  {
0 1
  N        1.0119030     0.0333230     0.0008060
  N        1.6997840    -1.0566340    -0.4179730
  C       -0.4063900     0.0163860    -0.0081010
  C       -1.1124080     1.1967220    -0.2540550
  C       -1.0729400    -1.1865160     0.2388070
  C        1.8312940     1.0508850     0.4071570
  C       -2.5072630     1.1720280    -0.2304200
  C       -2.4668310    -1.1992430     0.2370020
  C        3.1277520     0.5983640     0.2378140
  C       -3.1875810    -0.0227020     0.0140150
  C        2.9917500    -0.7051290    -0.2688550
  H       -0.5788940     2.1134690    -0.4901430
  H       -0.4926250    -2.0861370     0.4161180
  H        1.4325560     1.9713960     0.8093900
  H       -3.0617120     2.0872770    -0.4220560
  H       -2.9921950    -2.1322260     0.4251330
  H        4.0379080     1.1354570     0.4652770
  H       -4.2743140    -0.0387150     0.0221240
  H        3.7634260    -1.3938975    -0.5924131
units angstrom
no_reorient  #important for SAPT in psi4, default
symmetry c1  #important for SAPT in psi4, default
}

set PROPERTIES_ORIGIN ["COM"]
properties('MP2/aug-cc-pvtz', properties = ['dipole'])
--------------------------------------------------------------------------

    Molecular point group: c1
  Charge       = 0
  Multiplicity = 1
  Basis Set: AUG-CC-PVTZ
    Blend: AUG-CC-PVTZ
  Basis Set: (AUG-CC-PVTZ AUX)
    Blend: AUG-CC-PVTZ-JKFIT

    Orbital Energies [Eh]
    ---------------------

    Doubly Occupied:

       1A    -15.651916     2A    -15.590860     3A    -11.291782
       4A    -11.282572     5A    -11.259776     6A    -11.248239
       7A    -11.246756     8A    -11.245984     9A    -11.241021
      10A    -11.240857    11A    -11.228096    12A     -1.382523
      13A     -1.175548    14A     -1.110369    15A     -1.064019
      16A     -1.024449    17A     -0.998175    18A     -0.860720
      19A     -0.847951    20A     -0.797236    21A     -0.777570
      22A     -0.742627    23A     -0.686761    24A     -0.648837
      25A     -0.639969    26A     -0.615949    27A     -0.597354
      28A     -0.594350    29A     -0.588701    30A     -0.562935
      31A     -0.520280    32A     -0.511001    33A     -0.506981
      34A     -0.462936    35A     -0.395173    36A     -0.349897
      37A     -0.346321    38A     -0.312910

  @DF-RHF Final Energy:  -454.48789620493255

   => Energetics <=

    Nuclear Repulsion Energy =            546.3585640259104821
    One-Electron Energy =               -1698.3941206158708610
    Two-Electron Energy =                 697.5476603850278252
    Total Energy =                       -454.4878962049325537
  Basis Set: (AUG-CC-PVTZ AUX)
    Blend: AUG-CC-PVTZ-RI
    Molecular point group: c1

    Geometry (in Angstrom), charge = 0, multiplicity = 1:

       Center              X                  Y                   Z               Mass
    ------------   -----------------  -----------------  -----------------  -----------------
         N            0.996925762273     0.044500809550     0.005823506382    14.003074004430
         N            1.684806762273    -1.045456190450    -0.412955493618    14.003074004430
         C           -0.421367237727     0.027563809550    -0.003083493618    12.000000000000
         C           -1.127385237727     1.207899809550    -0.249037493618    12.000000000000
         C           -1.087917237727    -1.175338190450     0.243824506382    12.000000000000
         C            1.816316762273     1.062062809550     0.412174506382    12.000000000000
         C           -2.522240237727     1.183205809550    -0.225402493618    12.000000000000
         C           -2.481808237727    -1.188065190450     0.242019506382    12.000000000000
         C            3.112774762273     0.609541809550     0.242831506382    12.000000000000
         C           -3.202558237727    -0.011524190450     0.019032506382    12.000000000000
         C            2.976772762273    -0.693951190450    -0.263837493618    12.000000000000
         H           -0.593871237727     2.124646809550    -0.485125493618     1.007825032230
         H           -0.507602237727    -2.074959190450     0.421135506382     1.007825032230
         H            1.417578762273     1.982573809550     0.814407506382     1.007825032230
         H           -3.076689237727     2.098454809550    -0.417038493618     1.007825032230
         H           -3.007172237727    -2.121048190450     0.430150506382     1.007825032230
         H            4.022930762273     1.146634809550     0.470294506382     1.007825032230
         H           -4.289291237727    -0.027537190450     0.027141506382     1.007825032230
         H            3.748448762273    -1.382719690450    -0.587395593618     1.007825032230

  Basis Set: AUG-CC-PVTZ
    Blend: AUG-CC-PVTZ
  Basis Set: (AUG-CC-PVTZ AUX)
    Blend: AUG-CC-PVTZ-JKFIT
	 Reference Energy          =    -454.4878962049325537 [Eh]
	 Singles Energy            =      -0.0000000000000000 [Eh]
	 Same-Spin Energy          =      -0.5096900641306192 [Eh]
	 Opposite-Spin Energy      =      -1.5479378531369761 [Eh]
	 Correlation Energy        =      -2.0576279172675953 [Eh]
	 Total Energy              =    -456.5455241222001632 [Eh]

	 ================> DF-SCS-MP2 Energies <==================
	-----------------------------------------------------------
	 SCS Same-Spin Scale       =       0.3333333333333333 [-]
	 SCS Opposite-Spin Scale   =       1.2000000000000000 [-]
	 SCS Same-Spin Energy      =      -0.1698966880435397 [Eh]
	 SCS Opposite-Spin Energy  =      -1.8575254237643712 [Eh]
	 SCS Correlation Energy    =      -2.0274221118079110 [Eh]
	 SCS Total Energy          =    -456.5153183167404904 [Eh]
	-----------------------------------------------------------

  Dipole Moment: [D]
     X:    -0.8841      Y:     1.6528      Z:     0.7054     Total:     2.0027

*** Psi4 exiting successfully. Buy a developer a beer!
