                               Psi4 1.4a2.dev612

  ==> Input File <==

--------------------------------------------------------------------------
#psi4
#
memory 32 gb

molecule  {
0 1
  N        1.0119030     0.0333230     0.0008060
  N        1.6997840    -1.0566340    -0.4179730
  C       -0.4063900     0.0163860    -0.0081010
  C       -1.1124080     1.1967220    -0.2540550
  C       -1.0729400    -1.1865160     0.2388070
  C        1.8312940     1.0508850     0.4071570
  C       -2.5072630     1.1720280    -0.2304200
  C       -2.4668310    -1.1992430     0.2370020
  C        3.1277520     0.5983640     0.2378140
  C       -3.1875810    -0.0227020     0.0140150
  C        2.9917500    -0.7051290    -0.2688550
  H       -0.5799458     2.1021883    -0.5388425
  H       -0.4926250    -2.0861370     0.4161180
  H        1.4325560     1.9713960     0.8093900
  H       -3.0617120     2.0872770    -0.4220560
  H       -2.9921950    -2.1322260     0.4251330
  H        4.0379080     1.1354570     0.4652770
  H       -4.2743140    -0.0387150     0.0221240
  H        3.7631710    -1.4121260    -0.5458550
units angstrom
no_reorient  #important for SAPT in psi4, default
symmetry c1  #important for SAPT in psi4, default
}

set PROPERTIES_ORIGIN ["COM"]
properties('MP2/aug-cc-pvtz', properties = ['dipole'])
--------------------------------------------------------------------------

    Molecular point group: c1
  Charge       = 0
  Multiplicity = 1
  Basis Set: AUG-CC-PVTZ
    Blend: AUG-CC-PVTZ
  Basis Set: (AUG-CC-PVTZ AUX)
    Blend: AUG-CC-PVTZ-JKFIT

    Orbital Energies [Eh]
    ---------------------

    Doubly Occupied:

       1A    -15.651840     2A    -15.590688     3A    -11.291788
       4A    -11.282481     5A    -11.259646     6A    -11.248276
       7A    -11.246795     8A    -11.246048     9A    -11.241039
      10A    -11.240883    11A    -11.227986    12A     -1.382440
      13A     -1.175522    14A     -1.110347    15A     -1.063926
      16A     -1.024411    17A     -0.998171    18A     -0.860658
      19A     -0.847875    20A     -0.797318    21A     -0.777575
      22A     -0.742418    23A     -0.686669    24A     -0.649000
      25A     -0.639813    26A     -0.615397    27A     -0.596922
      28A     -0.594475    29A     -0.588636    30A     -0.563725
      31A     -0.520508    32A     -0.510855    33A     -0.506646
      34A     -0.462864    35A     -0.394972    36A     -0.349705
      37A     -0.346395    38A     -0.313023

  @DF-RHF Final Energy:  -454.48786595915578

   => Energetics <=

    Nuclear Repulsion Energy =            546.3519418093852664
    One-Electron Energy =               -1698.3841442621721853
    Two-Electron Energy =                 697.5443364936310218
    Total Energy =                       -454.4878659591557835
  Basis Set: (AUG-CC-PVTZ AUX)
    Blend: AUG-CC-PVTZ-RI
    Molecular point group: c1

    Geometry (in Angstrom), charge = 0, multiplicity = 1:

       Center              X                  Y                   Z               Mass
    ------------   -----------------  -----------------  -----------------  -----------------
         N            0.996934903921     0.044707239541     0.005838486428    14.003074004430
         N            1.684815903921    -1.045249760459    -0.412940513572    14.003074004430
         C           -0.421358096079     0.027770239541    -0.003068513572    12.000000000000
         C           -1.127376096079     1.208106239541    -0.249022513572    12.000000000000
         C           -1.087908096079    -1.175131760459     0.243839486428    12.000000000000
         C            1.816325903921     1.062269239541     0.412189486428    12.000000000000
         C           -2.522231096079     1.183412239541    -0.225387513572    12.000000000000
         C           -2.481799096079    -1.187858760459     0.242034486428    12.000000000000
         C            3.112783903921     0.609748239541     0.242846486428    12.000000000000
         C           -3.202549096079    -0.011317760459     0.019047486428    12.000000000000
         C            2.976781903921    -0.693744760459    -0.263822513572    12.000000000000
         H           -0.594913896079     2.113572539541    -0.533810013572     1.007825032230
         H           -0.507593096079    -2.074752760459     0.421150486428     1.007825032230
         H            1.417587903921     1.982780239541     0.814422486428     1.007825032230
         H           -3.076680096079     2.098661239541    -0.417023513572     1.007825032230
         H           -3.007163096079    -2.120841760459     0.430165486428     1.007825032230
         H            4.022939903921     1.146841239541     0.470309486428     1.007825032230
         H           -4.289282096079    -0.027330760459     0.027156486428     1.007825032230
         H            3.748202903921    -1.400741760459    -0.540822513572     1.007825032230

  Basis Set: AUG-CC-PVTZ
    Blend: AUG-CC-PVTZ
  Basis Set: (AUG-CC-PVTZ AUX)
    Blend: AUG-CC-PVTZ-JKFIT
	 Reference Energy          =    -454.4878659591557835 [Eh]
	 Singles Energy            =      -0.0000000000000000 [Eh]
	 Same-Spin Energy          =      -0.5096866511428004 [Eh]
	 Opposite-Spin Energy      =      -1.5479272451834940 [Eh]
	 Correlation Energy        =      -2.0576138963262944 [Eh]
	 Total Energy              =    -456.5454798554820854 [Eh]

	 ================> DF-SCS-MP2 Energies <==================
	-----------------------------------------------------------
	 SCS Same-Spin Scale       =       0.3333333333333333 [-]
	 SCS Opposite-Spin Scale   =       1.2000000000000000 [-]
	 SCS Same-Spin Energy      =      -0.1698955503809335 [Eh]
	 SCS Opposite-Spin Energy  =      -1.8575126942201927 [Eh]
	 SCS Correlation Energy    =      -2.0274082446011263 [Eh]
	 SCS Total Energy          =    -456.5152742037569169 [Eh]
	-----------------------------------------------------------

  Dipole Moment: [D]
     X:    -0.8893      Y:     1.6294      Z:     0.7088     Total:     1.9870

*** Psi4 exiting successfully. Buy a developer a beer!
