                               Psi4 1.4a2.dev612

  ==> Input File <==

--------------------------------------------------------------------------
#psi4
#
memory 32 gb

molecule  {
0 1
  N        1.0119030     0.0333230     0.0008060
  N        1.6997840    -1.0566340    -0.4179730
  C       -0.4063900     0.0163860    -0.0081010
  C       -1.1124080     1.1967220    -0.2540550
  C       -1.0742673    -1.1460343     0.4346627
  C        1.8312940     1.0508850     0.4071570
  C       -2.5072630     1.1720280    -0.2304200
  C       -2.4668310    -1.1992430     0.2370020
  C        3.1277520     0.5983640     0.2378140
  C       -3.1875810    -0.0227020     0.0140150
  C        2.9917500    -0.7051290    -0.2688550
  H       -0.5788940     2.1134690    -0.4901430
  H       -0.4926250    -2.0861370     0.4161180
  H        1.4325560     1.9713960     0.8093900
  H       -3.0617120     2.0872770    -0.4220560
  H       -2.9921950    -2.1322260     0.4251330
  H        4.0379080     1.1354570     0.4652770
  H       -4.2743140    -0.0387150     0.0221240
  H        3.7631710    -1.4121260    -0.5458550
units angstrom
no_reorient  #important for SAPT in psi4, default
symmetry c1  #important for SAPT in psi4, default
}

set PROPERTIES_ORIGIN ["COM"]
properties('MP2/aug-cc-pvtz', properties = ['dipole'])
--------------------------------------------------------------------------

    Molecular point group: c1
  Charge       = 0
  Multiplicity = 1
  Basis Set: AUG-CC-PVTZ
    Blend: AUG-CC-PVTZ
  Basis Set: (AUG-CC-PVTZ AUX)
    Blend: AUG-CC-PVTZ-JKFIT

    Orbital Energies [Eh]
    ---------------------

    Doubly Occupied:

       1A    -15.651186     2A    -15.590978     3A    -11.294492
       4A    -11.282504     5A    -11.259490     6A    -11.250224
       7A    -11.249104     8A    -11.247196     9A    -11.244110
      10A    -11.241345    11A    -11.228037    12A     -1.382152
      13A     -1.174591    14A     -1.110331    15A     -1.063415
      16A     -1.023351    17A     -0.997541    18A     -0.859835
      19A     -0.846783    20A     -0.797911    21A     -0.776293
      22A     -0.741955    23A     -0.685032    24A     -0.649554
      25A     -0.639516    26A     -0.611085    27A     -0.596522
      28A     -0.592127    29A     -0.587929    30A     -0.563349
      31A     -0.520693    32A     -0.510321    33A     -0.501854
      34A     -0.462618    35A     -0.391400    36A     -0.349409
      37A     -0.346479    38A     -0.315978

  @DF-RHF Final Energy:  -454.47530638214658

   => Energetics <=

    Nuclear Repulsion Energy =            545.8280850067410483
    One-Electron Energy =               -1697.3334061083107827
    Two-Electron Energy =                 697.0300147194232068
    Total Energy =                       -454.4753063821465275
  Basis Set: (AUG-CC-PVTZ AUX)
    Blend: AUG-CC-PVTZ-RI
    Molecular point group: c1

    Geometry (in Angstrom), charge = 0, multiplicity = 1:

       Center              X                  Y                   Z               Mass
    ------------   -----------------  -----------------  -----------------  -----------------
         N            0.997038101664     0.041256460814    -0.010815708212    14.003074004430
         N            1.684919101664    -1.048700539186    -0.429594708212    14.003074004430
         C           -0.421254898336     0.024319460814    -0.019722708212    12.000000000000
         C           -1.127272898336     1.204655460814    -0.265676708212    12.000000000000
         C           -1.089132198336    -1.138100839186     0.423040991788    12.000000000000
         C            1.816429101664     1.058818460814     0.395535291788    12.000000000000
         C           -2.522127898336     1.179961460814    -0.242041708212    12.000000000000
         C           -2.481695898336    -1.191309539186     0.225380291788    12.000000000000
         C            3.112887101664     0.606297460814     0.226192291788    12.000000000000
         C           -3.202445898336    -0.014768539186     0.002393291788    12.000000000000
         C            2.976885101664    -0.697195539186    -0.280476708212    12.000000000000
         H           -0.593758898336     2.121402460814    -0.501764708212     1.007825032230
         H           -0.507489898336    -2.078203539186     0.404496291788     1.007825032230
         H            1.417691101664     1.979329460814     0.797768291788     1.007825032230
         H           -3.076576898336     2.095210460814    -0.433677708212     1.007825032230
         H           -3.007059898336    -2.124292539186     0.413511291788     1.007825032230
         H            4.023043101664     1.143390460814     0.453655291788     1.007825032230
         H           -4.289178898336    -0.030781539186     0.010502291788     1.007825032230
         H            3.748306101664    -1.404192539186    -0.557476708212     1.007825032230

  Basis Set: AUG-CC-PVTZ
    Blend: AUG-CC-PVTZ
  Basis Set: (AUG-CC-PVTZ AUX)
    Blend: AUG-CC-PVTZ-JKFIT
	 Reference Energy          =    -454.4753063821465844 [Eh]
	 Singles Energy            =      -0.0000000000000000 [Eh]
	 Same-Spin Energy          =      -0.5102392810753676 [Eh]
	 Opposite-Spin Energy      =      -1.5499026631562915 [Eh]
	 Correlation Energy        =      -2.0601419442316593 [Eh]
	 Total Energy              =    -456.5354483263782299 [Eh]

	 ================> DF-SCS-MP2 Energies <==================
	-----------------------------------------------------------
	 SCS Same-Spin Scale       =       0.3333333333333333 [-]
	 SCS Opposite-Spin Scale   =       1.2000000000000000 [-]
	 SCS Same-Spin Energy      =      -0.1700797603584559 [Eh]
	 SCS Opposite-Spin Energy  =      -1.8598831957875497 [Eh]
	 SCS Correlation Energy    =      -2.0299629561460057 [Eh]
	 SCS Total Energy          =    -456.5052693382925781 [Eh]
	-----------------------------------------------------------

  Dipole Moment: [D]
     X:    -0.9509      Y:     1.7064      Z:     0.6344     Total:     2.0539

*** Psi4 exiting successfully. Buy a developer a beer!
