                               Psi4 1.4a2.dev612

  ==> Input File <==

--------------------------------------------------------------------------
#psi4
#
memory 32 gb

molecule  {
0 1
  N        1.0119030     0.0333230     0.0008060
  N        1.6997840    -1.0566340    -0.4179730
  C       -0.4063900     0.0163860    -0.0081010
  C       -1.1124080     1.1967220    -0.2540550
  C       -1.0729400    -1.1865160     0.2388070
  C        1.8312940     1.0508850     0.4071570
  C       -2.5072630     1.1720280    -0.2304200
  C       -2.4668310    -1.1992430     0.2370020
  C        3.1277520     0.5983640     0.2378140
  C       -3.1875810    -0.0227020     0.0140150
  C        2.9917500    -0.7051290    -0.2688550
  H       -0.5788940     2.1134690    -0.4901430
  H       -0.4926250    -2.0861370     0.4161180
  H        1.4325560     1.9713960     0.8093900
  H       -3.0617120     2.0872770    -0.4220560
  H       -2.9921950    -2.1322260     0.4251330
  H        4.0347530     1.0258692     0.7445270
  H       -4.2743140    -0.0387150     0.0221240
  H        3.7631710    -1.4121260    -0.5458550
units angstrom
no_reorient  #important for SAPT in psi4, default
symmetry c1  #important for SAPT in psi4, default
}

set PROPERTIES_ORIGIN ["COM"]
properties('MP2/aug-cc-pvtz', properties = ['dipole'])
--------------------------------------------------------------------------

    Molecular point group: c1
  Charge       = 0
  Multiplicity = 1
  Basis Set: AUG-CC-PVTZ
    Blend: AUG-CC-PVTZ
  Basis Set: (AUG-CC-PVTZ AUX)
    Blend: AUG-CC-PVTZ-JKFIT

    Orbital Energies [Eh]
    ---------------------

    Doubly Occupied:

       1A    -15.652815     2A    -15.591397     3A    -11.292238
       4A    -11.283848     5A    -11.260432     6A    -11.248478
       7A    -11.246975     8A    -11.246326     9A    -11.241371
      10A    -11.241081    11A    -11.231396    12A     -1.383316
      13A     -1.175953    14A     -1.110877    15A     -1.064049
      16A     -1.024717    17A     -0.998153    18A     -0.860239
      19A     -0.848117    20A     -0.795602    21A     -0.778040
      22A     -0.741766    23A     -0.686254    24A     -0.648938
      25A     -0.638694    26A     -0.617910    27A     -0.597673
      28A     -0.594467    29A     -0.580258    30A     -0.561956
      31A     -0.520606    32A     -0.511509    33A     -0.506649
      34A     -0.463386    35A     -0.395665    36A     -0.350510
      37A     -0.346529    38A     -0.312785

  @DF-RHF Final Energy:  -454.48231924948897

   => Energetics <=

    Nuclear Repulsion Energy =            546.2106981647439170
    One-Electron Energy =               -1698.0840877354571603
    Two-Electron Energy =                 697.3910703212243334
    Total Energy =                       -454.4823192494889099
  Basis Set: (AUG-CC-PVTZ AUX)
    Blend: AUG-CC-PVTZ-RI
    Molecular point group: c1

    Geometry (in Angstrom), charge = 0, multiplicity = 1:

       Center              X                  Y                   Z               Mass
    ------------   -----------------  -----------------  -----------------  -----------------
         N            0.996949616741     0.045394941471     0.003544333675    14.003074004430
         N            1.684830616741    -1.044562058529    -0.415234666325    14.003074004430
         C           -0.421343383259     0.028457941471    -0.005362666325    12.000000000000
         C           -1.127361383259     1.208793941471    -0.251316666325    12.000000000000
         C           -1.087893383259    -1.174444058529     0.241545333675    12.000000000000
         C            1.816340616741     1.062956941471     0.409895333675    12.000000000000
         C           -2.522216383259     1.184099941471    -0.227681666325    12.000000000000
         C           -2.481784383259    -1.187171058529     0.239740333675    12.000000000000
         C            3.112798616741     0.610435941471     0.240552333675    12.000000000000
         C           -3.202534383259    -0.010630058529     0.016753333675    12.000000000000
         C            2.976796616741    -0.693057058529    -0.266116666325    12.000000000000
         H           -0.593847383259     2.125540941471    -0.487404666325     1.007825032230
         H           -0.507578383259    -2.074065058529     0.418856333675     1.007825032230
         H            1.417602616741     1.983467941471     0.812128333675     1.007825032230
         H           -3.076665383259     2.099348941471    -0.419317666325     1.007825032230
         H           -3.007148383259    -2.120154058529     0.427871333675     1.007825032230
         H            4.019799616741     1.037941141471     0.747265333675     1.007825032230
         H           -4.289267383259    -0.026643058529     0.024862333675     1.007825032230
         H            3.748217616741    -1.400054058529    -0.543116666325     1.007825032230

  Basis Set: AUG-CC-PVTZ
    Blend: AUG-CC-PVTZ
  Basis Set: (AUG-CC-PVTZ AUX)
    Blend: AUG-CC-PVTZ-JKFIT
	 Reference Energy          =    -454.4823192494889668 [Eh]
	 Singles Energy            =      -0.0000000000000000 [Eh]
	 Same-Spin Energy          =      -0.5098793577518060 [Eh]
	 Opposite-Spin Energy      =      -1.5484875272789091 [Eh]
	 Correlation Energy        =      -2.0583668850307153 [Eh]
	 Total Energy              =    -456.5406861345196603 [Eh]

	 ================> DF-SCS-MP2 Energies <==================
	-----------------------------------------------------------
	 SCS Same-Spin Scale       =       0.3333333333333333 [-]
	 SCS Opposite-Spin Scale   =       1.2000000000000000 [-]
	 SCS Same-Spin Energy      =      -0.1699597859172687 [Eh]
	 SCS Opposite-Spin Energy  =      -1.8581850327346909 [Eh]
	 SCS Correlation Energy    =      -2.0281448186519597 [Eh]
	 SCS Total Energy          =    -456.5104640681409478 [Eh]
	-----------------------------------------------------------

  Dipole Moment: [D]
     X:    -0.9505      Y:     1.5112      Z:     0.9394     Total:     2.0174

*** Psi4 exiting successfully. Buy a developer a beer!
