                               Psi4 1.4a2.dev612

  ==> Input File <==

--------------------------------------------------------------------------
#psi4
#
memory 32 gb

molecule  {
0 1
  N        1.0119030     0.0333230     0.0008060
  N        1.6997840    -1.0566340    -0.4179730
  C       -0.4063900     0.0163860    -0.0081010
  C       -1.1124080     1.1967220    -0.2540550
  C       -1.0732718    -1.1763956     0.2877709
  C        1.8312940     1.0508850     0.4071570
  C       -2.5072630     1.1720280    -0.2304200
  C       -2.4668310    -1.1992430     0.2370020
  C        3.1277520     0.5983640     0.2378140
  C       -3.1875810    -0.0227020     0.0140150
  C        2.9917500    -0.7051290    -0.2688550
  H       -0.5788940     2.1134690    -0.4901430
  H       -0.4926250    -2.0861370     0.4161180
  H        1.4325560     1.9713960     0.8093900
  H       -3.0617120     2.0872770    -0.4220560
  H       -2.9921950    -2.1322260     0.4251330
  H        4.0379080     1.1354570     0.4652770
  H       -4.2743140    -0.0387150     0.0221240
  H        3.7631710    -1.4121260    -0.5458550
units angstrom
no_reorient  #important for SAPT in psi4, default
symmetry c1  #important for SAPT in psi4, default
}

set PROPERTIES_ORIGIN ["COM"]
properties('MP2/aug-cc-pvtz', properties = ['dipole'])
--------------------------------------------------------------------------

    Molecular point group: c1
  Charge       = 0
  Multiplicity = 1
  Basis Set: AUG-CC-PVTZ
    Blend: AUG-CC-PVTZ
  Basis Set: (AUG-CC-PVTZ AUX)
    Blend: AUG-CC-PVTZ-JKFIT

    Orbital Energies [Eh]
    ---------------------

    Doubly Occupied:

       1A    -15.651623     2A    -15.590784     3A    -11.291848
       4A    -11.282483     5A    -11.259559     6A    -11.248412
       7A    -11.246895     8A    -11.246178     9A    -11.241237
      10A    -11.241066    11A    -11.228006    12A     -1.382339
      13A     -1.175504    14A     -1.110344    15A     -1.063830
      16A     -1.024461    17A     -0.998155    18A     -0.860659
      19A     -0.847812    20A     -0.797458    21A     -0.777464
      22A     -0.742541    23A     -0.686725    24A     -0.649522
      25A     -0.639865    26A     -0.614357    27A     -0.597297
      28A     -0.594387    29A     -0.588639    30A     -0.563639
      31A     -0.520551    32A     -0.510699    33A     -0.506587
      34A     -0.462911    35A     -0.394228    36A     -0.349724
      37A     -0.346429    38A     -0.313752

  @DF-RHF Final Energy:  -454.48721125203343

   => Energetics <=

    Nuclear Repulsion Energy =            546.3178046527219749
    One-Electron Energy =               -1698.3140924774356790
    Two-Electron Energy =                 697.5090765726804420
    Total Energy =                       -454.4872112520333758
  Basis Set: (AUG-CC-PVTZ AUX)
    Blend: AUG-CC-PVTZ-RI
    Molecular point group: c1

    Geometry (in Angstrom), charge = 0, multiplicity = 1:

       Center              X                  Y                   Z               Mass
    ------------   -----------------  -----------------  -----------------  -----------------
         N            0.996955182917     0.043785361803     0.001419433838    14.003074004430
         N            1.684836182917    -1.046171638197    -0.417359566162    14.003074004430
         C           -0.421337817083     0.026848361803    -0.007487566162    12.000000000000
         C           -1.127355817083     1.207184361803    -0.253441566162    12.000000000000
         C           -1.088219617083    -1.165933238197     0.288384333838    12.000000000000
         C            1.816346182917     1.061347361803     0.407770433838    12.000000000000
         C           -2.522210817083     1.182490361803    -0.229806566162    12.000000000000
         C           -2.481778817083    -1.188780638197     0.237615433838    12.000000000000
         C            3.112804182917     0.608826361803     0.238427433838    12.000000000000
         C           -3.202528817083    -0.012239638197     0.014628433838    12.000000000000
         C            2.976802182917    -0.694666638197    -0.268241566162    12.000000000000
         H           -0.593841817083     2.123931361803    -0.489529566162     1.007825032230
         H           -0.507572817083    -2.075674638197     0.416731433838     1.007825032230
         H            1.417608182917     1.981858361803     0.810003433838     1.007825032230
         H           -3.076659817083     2.097739361803    -0.421442566162     1.007825032230
         H           -3.007142817083    -2.121763638197     0.425746433838     1.007825032230
         H            4.022960182917     1.145919361803     0.465890433838     1.007825032230
         H           -4.289261817083    -0.028252638197     0.022737433838     1.007825032230
         H            3.748223182917    -1.401663638197    -0.545241566162     1.007825032230

  Basis Set: AUG-CC-PVTZ
    Blend: AUG-CC-PVTZ
  Basis Set: (AUG-CC-PVTZ AUX)
    Blend: AUG-CC-PVTZ-JKFIT
	 Reference Energy          =    -454.4872112520334326 [Eh]
	 Singles Energy            =      -0.0000000000000000 [Eh]
	 Same-Spin Energy          =      -0.5097024075252725 [Eh]
	 Opposite-Spin Energy      =      -1.5480691414995209 [Eh]
	 Correlation Energy        =      -2.0577715490247934 [Eh]
	 Total Energy              =    -456.5449828010582110 [Eh]

	 ================> DF-SCS-MP2 Energies <==================
	-----------------------------------------------------------
	 SCS Same-Spin Scale       =       0.3333333333333333 [-]
	 SCS Opposite-Spin Scale   =       1.2000000000000000 [-]
	 SCS Same-Spin Energy      =      -0.1699008025084242 [Eh]
	 SCS Opposite-Spin Energy  =      -1.8576829697994250 [Eh]
	 SCS Correlation Energy    =      -2.0275837723078491 [Eh]
	 SCS Total Energy          =    -456.5147950243412538 [Eh]
	-----------------------------------------------------------

  Dipole Moment: [D]
     X:    -0.8991      Y:     1.6439      Z:     0.7168     Total:     2.0061

*** Psi4 exiting successfully. Buy a developer a beer!
