                               Psi4 1.4a2.dev612

  ==> Input File <==

--------------------------------------------------------------------------
#psi4
#
memory 32 gb

molecule  {
0 1
  N        1.0119030     0.0333230     0.0008060
  N        1.6997840    -1.0566340    -0.4179730
  C       -0.4063900     0.0163860    -0.0081010
  C       -1.1124080     1.1967220    -0.2540550
  C       -1.0729400    -1.1865160     0.2388070
  C        1.8312940     1.0508850     0.4071570
  C       -2.5072630     1.1720280    -0.2304200
  C       -2.4668310    -1.1992430     0.2370020
  C        3.1277520     0.5983640     0.2378140
  C       -3.1875810    -0.0227020     0.0140150
  C        2.9917500    -0.7051290    -0.2688550
  H       -0.5788940     2.1134690    -0.4901430
  H       -0.4926250    -2.0861370     0.4161180
  H        1.4325560     1.9713960     0.8093900
  H       -3.0617120     2.0872770    -0.4220560
  H       -2.9921950    -2.1322260     0.4251330
  H        4.0379080     1.1354570     0.4652770
  H       -4.2743140    -0.0387150     0.0221240
  H        3.7639360    -1.3574406    -0.6855293
units angstrom
no_reorient  #important for SAPT in psi4, default
symmetry c1  #important for SAPT in psi4, default
}

set PROPERTIES_ORIGIN ["COM"]
properties('MP2/aug-cc-pvtz', properties = ['dipole'])
--------------------------------------------------------------------------

    Molecular point group: c1
  Charge       = 0
  Multiplicity = 1
  Basis Set: AUG-CC-PVTZ
    Blend: AUG-CC-PVTZ
  Basis Set: (AUG-CC-PVTZ AUX)
    Blend: AUG-CC-PVTZ-JKFIT

    Orbital Energies [Eh]
    ---------------------

    Doubly Occupied:

       1A    -15.652234     2A    -15.591230     3A    -11.291919
       4A    -11.282672     5A    -11.260597     6A    -11.248317
       7A    -11.246830     8A    -11.246038     9A    -11.241045
      10A    -11.240871    11A    -11.228224    12A     -1.382780
      13A     -1.175637    14A     -1.110417    15A     -1.064182
      16A     -1.024507    17A     -0.998135    18A     -0.860592
      19A     -0.847859    20A     -0.796761    21A     -0.777292
      22A     -0.742632    23A     -0.686623    24A     -0.648363
      25A     -0.640059    26A     -0.617042    27A     -0.597433
      28A     -0.594064    29A     -0.588673    30A     -0.560414
      31A     -0.520248    32A     -0.511367    33A     -0.507041
      34A     -0.463050    35A     -0.395435    36A     -0.350043
      37A     -0.346360    38A     -0.312745

  @DF-RHF Final Energy:  -454.48657382605319

   => Energetics <=

    Nuclear Repulsion Energy =            546.3212395192673512
    One-Electron Energy =               -1698.3161599398440558
    Two-Electron Energy =                 697.5083465945236867
    Total Energy =                       -454.4865738260531316
  Basis Set: (AUG-CC-PVTZ AUX)
    Blend: AUG-CC-PVTZ-RI
    Molecular point group: c1

    Geometry (in Angstrom), charge = 0, multiplicity = 1:

       Center              X                  Y                   Z               Mass
    ------------   -----------------  -----------------  -----------------  -----------------
         N            0.996922194596     0.044245777304     0.006474895655    14.003074004430
         N            1.684803194596    -1.045711222696    -0.412304104345    14.003074004430
         C           -0.421370805404     0.027308777304    -0.002432104345    12.000000000000
         C           -1.127388805404     1.207644777304    -0.248386104345    12.000000000000
         C           -1.087920805404    -1.175593222696     0.244475895655    12.000000000000
         C            1.816313194596     1.061807777304     0.412825895655    12.000000000000
         C           -2.522243805404     1.182950777304    -0.224751104345    12.000000000000
         C           -2.481811805404    -1.188320222696     0.242670895655    12.000000000000
         C            3.112771194596     0.609286777304     0.243482895655    12.000000000000
         C           -3.202561805404    -0.011779222696     0.019683895655    12.000000000000
         C            2.976769194596    -0.694206222696    -0.263186104345    12.000000000000
         H           -0.593874805404     2.124391777304    -0.484474104345     1.007825032230
         H           -0.507605805404    -2.075214222696     0.421786895655     1.007825032230
         H            1.417575194596     1.982318777304     0.815058895655     1.007825032230
         H           -3.076692805404     2.098199777304    -0.416387104345     1.007825032230
         H           -3.007175805404    -2.121303222696     0.430801895655     1.007825032230
         H            4.022927194596     1.146379777304     0.470945895655     1.007825032230
         H           -4.289294805404    -0.027792222696     0.027792895655     1.007825032230
         H            3.748955194596    -1.346517822696    -0.679860404345     1.007825032230

  Basis Set: AUG-CC-PVTZ
    Blend: AUG-CC-PVTZ
  Basis Set: (AUG-CC-PVTZ AUX)
    Blend: AUG-CC-PVTZ-JKFIT
	 Reference Energy          =    -454.4865738260531884 [Eh]
	 Singles Energy            =      -0.0000000000000000 [Eh]
	 Same-Spin Energy          =      -0.5097891092825712 [Eh]
	 Opposite-Spin Energy      =      -1.5481417531035002 [Eh]
	 Correlation Energy        =      -2.0579308623860713 [Eh]
	 Total Energy              =    -456.5445046884392468 [Eh]

	 ================> DF-SCS-MP2 Energies <==================
	-----------------------------------------------------------
	 SCS Same-Spin Scale       =       0.3333333333333333 [-]
	 SCS Opposite-Spin Scale   =       1.2000000000000000 [-]
	 SCS Same-Spin Energy      =      -0.1699297030941904 [Eh]
	 SCS Opposite-Spin Energy  =      -1.8577701037242003 [Eh]
	 SCS Correlation Energy    =      -2.0276998068183905 [Eh]
	 SCS Total Energy          =    -456.5142736328716069 [Eh]
	-----------------------------------------------------------

  Dipole Moment: [D]
     X:    -0.8938      Y:     1.6902      Z:     0.6423     Total:     2.0170

*** Psi4 exiting successfully. Buy a developer a beer!
