                               Psi4 1.4a2.dev612

  ==> Input File <==

--------------------------------------------------------------------------
#psi4
#
memory 32 gb

molecule  {
0 1
  N        1.0119030     0.0333230     0.0008060
  N        1.6997840    -1.0566340    -0.4179730
  C       -0.4063900     0.0163860    -0.0081010
  C       -1.1124080     1.1967220    -0.2540550
  C       -1.0729400    -1.1865160     0.2388070
  C        1.8312940     1.0508850     0.4071570
  C       -2.5072630     1.1720280    -0.2304200
  C       -2.4668310    -1.1992430     0.2370020
  C        3.1277520     0.5983640     0.2378140
  C       -3.1875810    -0.0227020     0.0140150
  C        2.9917500    -0.7051290    -0.2688550
  H       -0.5788940     2.1134690    -0.4901430
  H       -0.4926250    -2.0861370     0.4161180
  H        1.4325560     1.9713960     0.8093900
  H       -3.0617120     2.0872770    -0.4220560
  H       -2.9921950    -2.1322260     0.4251330
  H        4.0363305     1.0806631     0.6049020
  H       -4.2743140    -0.0387150     0.0221240
  H        3.7631710    -1.4121260    -0.5458550
units angstrom
no_reorient  #important for SAPT in psi4, default
symmetry c1  #important for SAPT in psi4, default
}

set PROPERTIES_ORIGIN ["COM"]
properties('MP2/aug-cc-pvtz', properties = ['dipole'])
--------------------------------------------------------------------------

    Molecular point group: c1
  Charge       = 0
  Multiplicity = 1
  Basis Set: AUG-CC-PVTZ
    Blend: AUG-CC-PVTZ
  Basis Set: (AUG-CC-PVTZ AUX)
    Blend: AUG-CC-PVTZ-JKFIT

    Orbital Energies [Eh]
    ---------------------

    Doubly Occupied:

       1A    -15.652136     2A    -15.590972     3A    -11.291907
       4A    -11.282937     5A    -11.259894     6A    -11.248271
       7A    -11.246769     8A    -11.246078     9A    -11.241106
      10A    -11.240900    11A    -11.228991    12A     -1.382721
      13A     -1.175644    14A     -1.110501    15A     -1.064029
      16A     -1.024503    17A     -0.998169    18A     -0.860588
      19A     -0.848002    20A     -0.796811    21A     -0.777731
      22A     -0.742403    23A     -0.686618    24A     -0.648849
      25A     -0.639296    26A     -0.617280    27A     -0.597409
      28A     -0.594473    29A     -0.585615    30A     -0.563190
      31A     -0.520401    32A     -0.511112    33A     -0.506794
      34A     -0.463134    35A     -0.395360    36A     -0.350133
      37A     -0.346350    38A     -0.312809

  @DF-RHF Final Energy:  -454.48676717764755

   => Energetics <=

    Nuclear Repulsion Energy =            546.3232965431183175
    One-Electron Energy =               -1698.3203522832084218
    Two-Electron Energy =                 697.5102885624426108
    Total Energy =                       -454.4867671776476072
  Basis Set: (AUG-CC-PVTZ AUX)
    Blend: AUG-CC-PVTZ-RI
    Molecular point group: c1

    Geometry (in Angstrom), charge = 0, multiplicity = 1:

       Center              X                  Y                   Z               Mass
    ------------   -----------------  -----------------  -----------------  -----------------
         N            0.996938581426     0.045011633747     0.004521072710    14.003074004430
         N            1.684819581426    -1.044945366253    -0.414257927290    14.003074004430
         C           -0.421354418574     0.028074633747    -0.004385927290    12.000000000000
         C           -1.127372418574     1.208410633747    -0.250339927290    12.000000000000
         C           -1.087904418574    -1.174827366253     0.242522072710    12.000000000000
         C            1.816329581426     1.062573633747     0.410872072710    12.000000000000
         C           -2.522227418574     1.183716633747    -0.226704927290    12.000000000000
         C           -2.481795418574    -1.187554366253     0.240717072710    12.000000000000
         C            3.112787581426     0.610052633747     0.241529072710    12.000000000000
         C           -3.202545418574    -0.011013366253     0.017730072710    12.000000000000
         C            2.976785581426    -0.693440366253    -0.265139927290    12.000000000000
         H           -0.593858418574     2.125157633747    -0.486427927290     1.007825032230
         H           -0.507589418574    -2.074448366253     0.419833072710     1.007825032230
         H            1.417591581426     1.983084633747     0.813105072710     1.007825032230
         H           -3.076676418574     2.098965633747    -0.418340927290     1.007825032230
         H           -3.007159418574    -2.120537366253     0.428848072710     1.007825032230
         H            4.021366081426     1.092351733747     0.608617072710     1.007825032230
         H           -4.289278418574    -0.027026366253     0.025839072710     1.007825032230
         H            3.748206581426    -1.400437366253    -0.542139927290     1.007825032230

  Basis Set: AUG-CC-PVTZ
    Blend: AUG-CC-PVTZ
  Basis Set: (AUG-CC-PVTZ AUX)
    Blend: AUG-CC-PVTZ-JKFIT
	 Reference Energy          =    -454.4867671776475504 [Eh]
	 Singles Energy            =      -0.0000000000000000 [Eh]
	 Same-Spin Energy          =      -0.5097267594012910 [Eh]
	 Opposite-Spin Energy      =      -1.5480413157758139 [Eh]
	 Correlation Energy        =      -2.0577680751771048 [Eh]
	 Total Energy              =    -456.5445352528246303 [Eh]

	 ================> DF-SCS-MP2 Energies <==================
	-----------------------------------------------------------
	 SCS Same-Spin Scale       =       0.3333333333333333 [-]
	 SCS Opposite-Spin Scale   =       1.2000000000000000 [-]
	 SCS Same-Spin Energy      =      -0.1699089198004303 [Eh]
	 SCS Opposite-Spin Energy  =      -1.8576495789309766 [Eh]
	 SCS Correlation Energy    =      -2.0275584987314068 [Eh]
	 SCS Total Energy          =    -456.5143256763789736 [Eh]
	-----------------------------------------------------------

  Dipole Moment: [D]
     X:    -0.8982      Y:     1.5836      Z:     0.8450     Total:     2.0071

*** Psi4 exiting successfully. Buy a developer a beer!
