                               Psi4 1.4a2.dev612

  ==> Input File <==

--------------------------------------------------------------------------
#psi4
#
memory 32 gb

molecule  {
0 1
  N        1.0119030     0.0333230     0.0008060
  N        1.6997840    -1.0566340    -0.4179730
  C       -0.4063900     0.0163860    -0.0081010
  C       -1.1124080     1.1967220    -0.2540550
  C       -1.0729400    -1.1865160     0.2388070
  C        1.8312940     1.0508850     0.4071570
  C       -2.5072630     1.1720280    -0.2304200
  C       -2.4668310    -1.1992430     0.2370020
  C        3.1277520     0.5983640     0.2378140
  C       -3.1875810    -0.0227020     0.0140150
  C        2.9917500    -0.7051290    -0.2688550
  H       -0.5788940     2.1134690    -0.4901430
  H       -0.4926250    -2.0861370     0.4161180
  H        1.4325560     1.9713960     0.8093900
  H       -3.0617120     2.0872770    -0.4220560
  H       -2.9921950    -2.1322260     0.4251330
  H        4.0379080     1.1354570     0.4652770
  H       -4.2743140    -0.0387150     0.0221240
  H        3.7647009    -1.3027551    -0.8252037
units angstrom
no_reorient  #important for SAPT in psi4, default
symmetry c1  #important for SAPT in psi4, default
}

set PROPERTIES_ORIGIN ["COM"]
properties('MP2/aug-cc-pvtz', properties = ['dipole'])
--------------------------------------------------------------------------

    Molecular point group: c1
  Charge       = 0
  Multiplicity = 1
  Basis Set: AUG-CC-PVTZ
    Blend: AUG-CC-PVTZ
  Basis Set: (AUG-CC-PVTZ AUX)
    Blend: AUG-CC-PVTZ-JKFIT

    Orbital Energies [Eh]
    ---------------------

    Doubly Occupied:

       1A    -15.653065     2A    -15.592195     3A    -11.292260
       4A    -11.282936     5A    -11.263157     6A    -11.248562
       7A    -11.247090     8A    -11.246240     9A    -11.241239
      10A    -11.241033    11A    -11.228602    12A     -1.383457
      13A     -1.175907    14A     -1.110535    15A     -1.064628
      16A     -1.024730    17A     -0.998033    18A     -0.860282
      19A     -0.847557    20A     -0.795475    21A     -0.776335
      22A     -0.742613    23A     -0.686254    24A     -0.648036
      25A     -0.639552    26A     -0.618463    27A     -0.597494
      28A     -0.593571    29A     -0.588764    30A     -0.554117
      31A     -0.520266    32A     -0.511893    33A     -0.507250
      34A     -0.463378    35A     -0.395552    36A     -0.350368
      37A     -0.346539    38A     -0.312595

  @DF-RHF Final Energy:  -454.48165708563033

   => Energetics <=

    Nuclear Repulsion Energy =            546.2045590452993338
    One-Electron Energy =               -1698.0723906763071227
    Two-Electron Energy =                 697.3861745453775711
    Total Energy =                       -454.4816570856303315
  Basis Set: (AUG-CC-PVTZ AUX)
    Blend: AUG-CC-PVTZ-RI
    Molecular point group: c1

    Geometry (in Angstrom), charge = 0, multiplicity = 1:

       Center              X                  Y                   Z               Mass
    ------------   -----------------  -----------------  -----------------  -----------------
         N            0.996916843780     0.043863227886     0.007451980265    14.003074004430
         N            1.684797843780    -1.046093772114    -0.411327019735    14.003074004430
         C           -0.421376156220     0.026926227886    -0.001455019735    12.000000000000
         C           -1.127394156220     1.207262227886    -0.247409019735    12.000000000000
         C           -1.087926156220    -1.175975772114     0.245452980265    12.000000000000
         C            1.816307843780     1.061425227886     0.413802980265    12.000000000000
         C           -2.522249156220     1.182568227886    -0.223774019735    12.000000000000
         C           -2.481817156220    -1.188702772114     0.243647980265    12.000000000000
         C            3.112765843780     0.608904227886     0.244459980265    12.000000000000
         C           -3.202567156220    -0.012161772114     0.020660980265    12.000000000000
         C            2.976763843780    -0.694588772114    -0.262209019735    12.000000000000
         H           -0.593880156220     2.124009227886    -0.483497019735     1.007825032230
         H           -0.507611156220    -2.075596772114     0.422763980265     1.007825032230
         H            1.417569843780     1.981936227886     0.816035980265     1.007825032230
         H           -3.076698156220     2.097817227886    -0.415410019735     1.007825032230
         H           -3.007181156220    -2.121685772114     0.431778980265     1.007825032230
         H            4.022921843780     1.145997227886     0.471922980265     1.007825032230
         H           -4.289300156220    -0.028174772114     0.028769980265     1.007825032230
         H            3.749714743780    -1.292214872114    -0.818557719735     1.007825032230

  Basis Set: AUG-CC-PVTZ
    Blend: AUG-CC-PVTZ
  Basis Set: (AUG-CC-PVTZ AUX)
    Blend: AUG-CC-PVTZ-JKFIT
	 Reference Energy          =    -454.4816570856303315 [Eh]
	 Singles Energy            =      -0.0000000000000000 [Eh]
	 Same-Spin Energy          =      -0.5100895751400183 [Eh]
	 Opposite-Spin Energy      =      -1.5488441666930779 [Eh]
	 Correlation Energy        =      -2.0589337418330960 [Eh]
	 Total Energy              =    -456.5405908274634044 [Eh]

	 ================> DF-SCS-MP2 Energies <==================
	-----------------------------------------------------------
	 SCS Same-Spin Scale       =       0.3333333333333333 [-]
	 SCS Opposite-Spin Scale   =       1.2000000000000000 [-]
	 SCS Same-Spin Energy      =      -0.1700298583800061 [Eh]
	 SCS Opposite-Spin Energy  =      -1.8586130000316934 [Eh]
	 SCS Correlation Energy    =      -2.0286428584116996 [Eh]
	 SCS Total Energy          =    -456.5102999440420035 [Eh]
	-----------------------------------------------------------

  Dipole Moment: [D]
     X:    -0.9384      Y:     1.7638      Z:     0.5577     Total:     2.0743

*** Psi4 exiting successfully. Buy a developer a beer!
