                               Psi4 1.4a2.dev612

  ==> Input File <==

--------------------------------------------------------------------------
#psi4
#
memory 32 gb

molecule  {
0 1
  N        1.0119030     0.0333230     0.0008060
  N        1.6997840    -1.0566340    -0.4179730
  C       -0.4063900     0.0163860    -0.0081010
  C       -1.1124080     1.1967220    -0.2540550
  C       -1.0729400    -1.1865160     0.2388070
  C        1.8312940     1.0508850     0.4071570
  C       -2.5072630     1.1720280    -0.2304200
  C       -2.4668310    -1.1992430     0.2370020
  C        3.1277520     0.5983640     0.2378140
  C       -3.1875810    -0.0227020     0.0140150
  C        2.9917500    -0.7051290    -0.2688550
  H       -0.5852047     2.0457846    -0.7823398
  H       -0.4926250    -2.0861370     0.4161180
  H        1.4325560     1.9713960     0.8093900
  H       -3.0617120     2.0872770    -0.4220560
  H       -2.9921950    -2.1322260     0.4251330
  H        4.0379080     1.1354570     0.4652770
  H       -4.2743140    -0.0387150     0.0221240
  H        3.7631710    -1.4121260    -0.5458550
units angstrom
no_reorient  #important for SAPT in psi4, default
symmetry c1  #important for SAPT in psi4, default
}

set PROPERTIES_ORIGIN ["COM"]
properties('MP2/aug-cc-pvtz', properties = ['dipole'])
--------------------------------------------------------------------------

    Molecular point group: c1
  Charge       = 0
  Multiplicity = 1
  Basis Set: AUG-CC-PVTZ
    Blend: AUG-CC-PVTZ
  Basis Set: (AUG-CC-PVTZ AUX)
    Blend: AUG-CC-PVTZ-JKFIT

    Orbital Energies [Eh]
    ---------------------

    Doubly Occupied:

       1A    -15.651825     2A    -15.590308     3A    -11.292650
       4A    -11.282112     5A    -11.259671     6A    -11.250274
       7A    -11.248576     8A    -11.247123     9A    -11.241282
      10A    -11.241102    11A    -11.227518    12A     -1.382348
      13A     -1.175568    14A     -1.110504    15A     -1.063628
      16A     -1.023725    17A     -0.998122    18A     -0.859929
      19A     -0.846865    20A     -0.796888    21A     -0.777350
      22A     -0.740870    23A     -0.683917    24A     -0.648635
      25A     -0.638448    26A     -0.615489    27A     -0.594797
      28A     -0.592487    29A     -0.587715    30A     -0.563590
      31A     -0.522158    32A     -0.513498    33A     -0.499618
      34A     -0.462537    35A     -0.394999    36A     -0.349004
      37A     -0.346468    38A     -0.313208

  @DF-RHF Final Energy:  -454.48153980824753

   => Energetics <=

    Nuclear Repulsion Energy =            546.1550453174544373
    One-Electron Energy =               -1698.0035561730639984
    Two-Electron Energy =                 697.3669710473621990
    Total Energy =                       -454.4815398082474758
  Basis Set: (AUG-CC-PVTZ AUX)
    Blend: AUG-CC-PVTZ-RI
    Molecular point group: c1

    Geometry (in Angstrom), charge = 0, multiplicity = 1:

       Center              X                  Y                   Z               Mass
    ------------   -----------------  -----------------  -----------------  -----------------
         N            0.996971692268     0.045101808533     0.007541858444    14.003074004430
         N            1.684852692268    -1.044855191467    -0.411237141556    14.003074004430
         C           -0.421321307732     0.028164808533    -0.001365141556    12.000000000000
         C           -1.127339307732     1.208500808533    -0.247319141556    12.000000000000
         C           -1.087871307732    -1.174737191467     0.245542858444    12.000000000000
         C            1.816362692268     1.062663808533     0.413892858444    12.000000000000
         C           -2.522194307732     1.183806808533    -0.223684141556    12.000000000000
         C           -2.481762307732    -1.187464191467     0.243737858444    12.000000000000
         C            3.112820692268     0.610142808533     0.244549858444    12.000000000000
         C           -3.202512307732    -0.010923191467     0.020750858444    12.000000000000
         C            2.976818692268    -0.693350191467    -0.262119141556    12.000000000000
         H           -0.600136007732     2.057563408533    -0.775603941556     1.007825032230
         H           -0.507556307732    -2.074358191467     0.422853858444     1.007825032230
         H            1.417624692268     1.983174808533     0.816125858444     1.007825032230
         H           -3.076643307732     2.099055808533    -0.415320141556     1.007825032230
         H           -3.007126307732    -2.120447191467     0.431868858444     1.007825032230
         H            4.022976692268     1.147235808533     0.472012858444     1.007825032230
         H           -4.289245307732    -0.026936191467     0.028859858444     1.007825032230
         H            3.748239692268    -1.400347191467    -0.539119141556     1.007825032230

  Basis Set: AUG-CC-PVTZ
    Blend: AUG-CC-PVTZ
  Basis Set: (AUG-CC-PVTZ AUX)
    Blend: AUG-CC-PVTZ-JKFIT
	 Reference Energy          =    -454.4815398082475326 [Eh]
	 Singles Energy            =      -0.0000000000000000 [Eh]
	 Same-Spin Energy          =      -0.5100078166197827 [Eh]
	 Opposite-Spin Energy      =      -1.5486923272892752 [Eh]
	 Correlation Energy        =      -2.0587001439090580 [Eh]
	 Total Energy              =    -456.5402399521565826 [Eh]

	 ================> DF-SCS-MP2 Energies <==================
	-----------------------------------------------------------
	 SCS Same-Spin Scale       =       0.3333333333333333 [-]
	 SCS Opposite-Spin Scale   =       1.2000000000000000 [-]
	 SCS Same-Spin Energy      =      -0.1700026055399275 [Eh]
	 SCS Opposite-Spin Energy  =      -1.8584307927471302 [Eh]
	 SCS Correlation Energy    =      -2.0284333982870577 [Eh]
	 SCS Total Energy          =    -456.5099732065345961 [Eh]
	-----------------------------------------------------------

  Dipole Moment: [D]
     X:    -0.9333      Y:     1.5441      Z:     0.5726     Total:     1.8929

*** Psi4 exiting successfully. Buy a developer a beer!
