                               Psi4 1.4a2.dev612

  ==> Input File <==

--------------------------------------------------------------------------
#psi4
#
memory 32 gb

molecule  {
0 1
  N        1.0119030     0.0333230     0.0008060
  N        1.6997840    -1.0566340    -0.4179730
  C       -0.4063900     0.0163860    -0.0081010
  C       -1.1124080     1.1967220    -0.2540550
  C       -1.0729400    -1.1865160     0.2388070
  C        1.8312940     1.0508850     0.4071570
  C       -2.5072630     1.1720280    -0.2304200
  C       -2.4668310    -1.1992430     0.2370020
  C        3.1277520     0.5983640     0.2378140
  C       -3.1875810    -0.0227020     0.0140150
  C        2.9917500    -0.7051290    -0.2688550
  H       -0.5788940     2.1134690    -0.4901430
  H       -0.4926250    -2.0861370     0.4161180
  H        1.4325560     1.9713960     0.8093900
  H       -3.0617120     2.0872770    -0.4220560
  H       -2.9921950    -2.1322260     0.4251330
  H        4.0373822     1.1171924     0.5118187
  H       -4.2743140    -0.0387150     0.0221240
  H        3.7631710    -1.4121260    -0.5458550
units angstrom
no_reorient  #important for SAPT in psi4, default
symmetry c1  #important for SAPT in psi4, default
}

set PROPERTIES_ORIGIN ["COM"]
properties('MP2/aug-cc-pvtz', properties = ['dipole'])
--------------------------------------------------------------------------

    Molecular point group: c1
  Charge       = 0
  Multiplicity = 1
  Basis Set: AUG-CC-PVTZ
    Blend: AUG-CC-PVTZ
  Basis Set: (AUG-CC-PVTZ AUX)
    Blend: AUG-CC-PVTZ-JKFIT

    Orbital Energies [Eh]
    ---------------------

    Doubly Occupied:

       1A    -15.651890     2A    -15.590807     3A    -11.291778
       4A    -11.282616     5A    -11.259697     6A    -11.248222
       7A    -11.246735     8A    -11.245997     9A    -11.241039
      10A    -11.240869    11A    -11.228204    12A     -1.382507
      13A     -1.175547    14A     -1.110375    15A     -1.064002
      16A     -1.024448    17A     -0.998179    18A     -0.860719
      19A     -0.847964    20A     -0.797239    21A     -0.777626
      22A     -0.742602    23A     -0.686760    24A     -0.648988
      25A     -0.639678    26A     -0.616150    27A     -0.597303
      28A     -0.594507    29A     -0.587951    30A     -0.563564
      31A     -0.520329    32A     -0.510902    33A     -0.506908
      34A     -0.462985    35A     -0.395118    36A     -0.349932
      37A     -0.346317    38A     -0.312924

  @DF-RHF Final Energy:  -454.48792643195912

   => Energetics <=

    Nuclear Repulsion Energy =            546.3590257334593616
    One-Electron Energy =               -1698.3951489418127494
    Two-Electron Energy =                 697.5481967763942066
    Total Energy =                       -454.4879264319590675
  Basis Set: (AUG-CC-PVTZ AUX)
    Blend: AUG-CC-PVTZ-RI
    Molecular point group: c1

    Geometry (in Angstrom), charge = 0, multiplicity = 1:

       Center              X                  Y                   Z               Mass
    ------------   -----------------  -----------------  -----------------  -----------------
         N            0.996931224317     0.044756095031     0.005172231833    14.003074004430
         N            1.684812224317    -1.045200904969    -0.413606768167    14.003074004430
         C           -0.421361775683     0.027819095031    -0.003734768167    12.000000000000
         C           -1.127379775683     1.208155095031    -0.249688768167    12.000000000000
         C           -1.087911775683    -1.175082904969     0.243173231833    12.000000000000
         C            1.816322224317     1.062318095031     0.411523231833    12.000000000000
         C           -2.522234775683     1.183461095031    -0.226053768167    12.000000000000
         C           -2.481802775683    -1.187809904969     0.241368231833    12.000000000000
         C            3.112780224317     0.609797095031     0.242180231833    12.000000000000
         C           -3.202552775683    -0.011268904969     0.018381231833    12.000000000000
         C            2.976778224317    -0.693695904969    -0.264488768167    12.000000000000
         H           -0.593865775683     2.124902095031    -0.485776768167     1.007825032230
         H           -0.507596775683    -2.074703904969     0.420484231833     1.007825032230
         H            1.417584224317     1.982829095031     0.813756231833     1.007825032230
         H           -3.076683775683     2.098710095031    -0.417689768167     1.007825032230
         H           -3.007166775683    -2.120792904969     0.429499231833     1.007825032230
         H            4.022410424317     1.128625495031     0.516184931833     1.007825032230
         H           -4.289285775683    -0.027281904969     0.026490231833     1.007825032230
         H            3.748199224317    -1.400692904969    -0.541488768167     1.007825032230

  Basis Set: AUG-CC-PVTZ
    Blend: AUG-CC-PVTZ
  Basis Set: (AUG-CC-PVTZ AUX)
    Blend: AUG-CC-PVTZ-JKFIT
	 Reference Energy          =    -454.4879264319591243 [Eh]
	 Singles Energy            =      -0.0000000000000000 [Eh]
	 Same-Spin Energy          =      -0.5096794727191420 [Eh]
	 Opposite-Spin Energy      =      -1.5479211099211359 [Eh]
	 Correlation Energy        =      -2.0576005826402781 [Eh]
	 Total Energy              =    -456.5455270145994291 [Eh]

	 ================> DF-SCS-MP2 Energies <==================
	-----------------------------------------------------------
	 SCS Same-Spin Scale       =       0.3333333333333333 [-]
	 SCS Opposite-Spin Scale   =       1.2000000000000000 [-]
	 SCS Same-Spin Energy      =      -0.1698931575730473 [Eh]
	 SCS Opposite-Spin Energy  =      -1.8575053319053629 [Eh]
	 SCS Correlation Energy    =      -2.0273984894784105 [Eh]
	 SCS Total Energy          =    -456.5153249214375251 [Eh]
	-----------------------------------------------------------

  Dipole Moment: [D]
     X:    -0.8851      Y:     1.6220      Z:     0.7753     Total:     2.0038

*** Psi4 exiting successfully. Buy a developer a beer!
