                               Psi4 1.4a2.dev612

  ==> Input File <==

--------------------------------------------------------------------------
#psi4
#
memory 32 gb

molecule  {
0 1
  N        1.0119030     0.0333230     0.0008060
  N        1.6997840    -1.0566340    -0.4179730
  C       -0.4063900     0.0163860    -0.0081010
  C       -1.1124080     1.1967220    -0.2540550
  C       -1.0729400    -1.1865160     0.2388070
  C        1.8312940     1.0508850     0.4071570
  C       -2.5072630     1.1720280    -0.2304200
  C       -2.4668310    -1.1992430     0.2370020
  C        3.1277520     0.5983640     0.2378140
  C       -3.1875810    -0.0227020     0.0140150
  C        2.9917500    -0.7051290    -0.2688550
  H       -0.5788940     2.1134690    -0.4901430
  H       -0.4926250    -2.0861370     0.4161180
  H        1.4325560     1.9713960     0.8093900
  H       -3.0617120     2.0872770    -0.4220560
  H       -2.9921950    -2.1322260     0.4251330
  H        4.0368563     1.0989277     0.5583603
  H       -4.2743140    -0.0387150     0.0221240
  H        3.7631710    -1.4121260    -0.5458550
units angstrom
no_reorient  #important for SAPT in psi4, default
symmetry c1  #important for SAPT in psi4, default
}

set PROPERTIES_ORIGIN ["COM"]
properties('MP2/aug-cc-pvtz', properties = ['dipole'])
--------------------------------------------------------------------------

    Molecular point group: c1
  Charge       = 0
  Multiplicity = 1
  Basis Set: AUG-CC-PVTZ
    Blend: AUG-CC-PVTZ
  Basis Set: (AUG-CC-PVTZ AUX)
    Blend: AUG-CC-PVTZ-JKFIT

    Orbital Energies [Eh]
    ---------------------

    Doubly Occupied:

       1A    -15.651992     2A    -15.590877     3A    -11.291833
       4A    -11.282747     5A    -11.259779     6A    -11.248237
       7A    -11.246742     8A    -11.246029     9A    -11.241061
      10A    -11.240876    11A    -11.228512    12A     -1.382595
      13A     -1.175584    14A     -1.110426    15A     -1.064019
      16A     -1.024467    17A     -0.998175    18A     -0.860668
      19A     -0.847979    20A     -0.797072    21A     -0.777668
      22A     -0.742529    23A     -0.686703    24A     -0.648900
      25A     -0.639500    26A     -0.616785    27A     -0.597350
      28A     -0.594500    29A     -0.586912    30A     -0.563398
      31A     -0.520357    32A     -0.511002    33A     -0.506848
      34A     -0.463057    35A     -0.395243    36A     -0.350028
      37A     -0.346325    38A     -0.312857

  @DF-RHF Final Energy:  -454.48750080010240

   => Energetics <=

    Nuclear Repulsion Energy =            546.3453380984178693
    One-Electron Energy =               -1698.3664125838988639
    Two-Electron Energy =                 697.5335736853785420
    Total Energy =                       -454.4875008001024526
  Basis Set: (AUG-CC-PVTZ AUX)
    Blend: AUG-CC-PVTZ-RI
    Molecular point group: c1

    Geometry (in Angstrom), charge = 0, multiplicity = 1:

       Center              X                  Y                   Z               Mass
    ------------   -----------------  -----------------  -----------------  -----------------
         N            0.996934903221     0.044883864739     0.004846652622    14.003074004430
         N            1.684815903221    -1.045073135261    -0.413932347378    14.003074004430
         C           -0.421358096779     0.027946864739    -0.004060347378    12.000000000000
         C           -1.127376096779     1.208282864739    -0.250014347378    12.000000000000
         C           -1.087908096779    -1.174955135261     0.242847652622    12.000000000000
         C            1.816325903221     1.062445864739     0.411197652622    12.000000000000
         C           -2.522231096779     1.183588864739    -0.226379347378    12.000000000000
         C           -2.481799096779    -1.187682135261     0.241042652622    12.000000000000
         C            3.112783903221     0.609924864739     0.241854652622    12.000000000000
         C           -3.202549096779    -0.011141135261     0.018055652622    12.000000000000
         C            2.976781903221    -0.693568135261    -0.264814347378    12.000000000000
         H           -0.593862096779     2.125029864739    -0.486102347378     1.007825032230
         H           -0.507593096779    -2.074576135261     0.420158652622     1.007825032230
         H            1.417587903221     1.982956864739     0.813430652622     1.007825032230
         H           -3.076680096779     2.098837864739    -0.418015347378     1.007825032230
         H           -3.007163096779    -2.120665135261     0.429173652622     1.007825032230
         H            4.021888203221     1.110488564739     0.562400952622     1.007825032230
         H           -4.289282096779    -0.027154135261     0.026164652622     1.007825032230
         H            3.748202903221    -1.400565135261    -0.541814347378     1.007825032230

  Basis Set: AUG-CC-PVTZ
    Blend: AUG-CC-PVTZ
  Basis Set: (AUG-CC-PVTZ AUX)
    Blend: AUG-CC-PVTZ-JKFIT
	 Reference Energy          =    -454.4875008001023957 [Eh]
	 Singles Energy            =      -0.0000000000000000 [Eh]
	 Same-Spin Energy          =      -0.5096974776258731 [Eh]
	 Opposite-Spin Energy      =      -1.5479648890691671 [Eh]
	 Correlation Energy        =      -2.0576623666950402 [Eh]
	 Total Energy              =    -456.5451631667974084 [Eh]

	 ================> DF-SCS-MP2 Energies <==================
	-----------------------------------------------------------
	 SCS Same-Spin Scale       =       0.3333333333333333 [-]
	 SCS Opposite-Spin Scale   =       1.2000000000000000 [-]
	 SCS Same-Spin Energy      =      -0.1698991592086244 [Eh]
	 SCS Opposite-Spin Energy  =      -1.8575578668830004 [Eh]
	 SCS Correlation Energy    =      -2.0274570260916249 [Eh]
	 SCS Total Energy          =    -456.5149578261940064 [Eh]
	-----------------------------------------------------------

  Dipole Moment: [D]
     X:    -0.8894      Y:     1.6038      Z:     0.8107     Total:     2.0051

*** Psi4 exiting successfully. Buy a developer a beer!
