                               Psi4 1.4a2.dev612

  ==> Input File <==

--------------------------------------------------------------------------
#psi4
#
memory 32 gb

molecule  {
0 1
  N        1.0119030     0.0333230     0.0008060
  N        1.6997840    -1.0566340    -0.4179730
  C       -0.4063900     0.0163860    -0.0081010
  C       -1.1124080     1.1967220    -0.2540550
  C       -1.0729400    -1.1865160     0.2388070
  C        1.8312940     1.0508850     0.4071570
  C       -2.5072630     1.1720280    -0.2304200
  C       -2.4668310    -1.1992430     0.2370020
  C        3.1277520     0.5983640     0.2378140
  C       -3.1875810    -0.0227020     0.0140150
  C        2.9917500    -0.7051290    -0.2688550
  H       -0.5820494     2.0796268    -0.6362414
  H       -0.4926250    -2.0861370     0.4161180
  H        1.4325560     1.9713960     0.8093900
  H       -3.0617120     2.0872770    -0.4220560
  H       -2.9921950    -2.1322260     0.4251330
  H        4.0379080     1.1354570     0.4652770
  H       -4.2743140    -0.0387150     0.0221240
  H        3.7631710    -1.4121260    -0.5458550
units angstrom
no_reorient  #important for SAPT in psi4, default
symmetry c1  #important for SAPT in psi4, default
}

set PROPERTIES_ORIGIN ["COM"]
properties('MP2/aug-cc-pvtz', properties = ['dipole'])
--------------------------------------------------------------------------

    Molecular point group: c1
  Charge       = 0
  Multiplicity = 1
  Basis Set: AUG-CC-PVTZ
    Blend: AUG-CC-PVTZ
  Basis Set: (AUG-CC-PVTZ AUX)
    Blend: AUG-CC-PVTZ-JKFIT

    Orbital Energies [Eh]
    ---------------------

    Doubly Occupied:

       1A    -15.651845     2A    -15.590539     3A    -11.292007
       4A    -11.282342     5A    -11.259651     6A    -11.248611
       7A    -11.247326     8A    -11.246332     9A    -11.241085
      10A    -11.240929    11A    -11.227810    12A     -1.382404
      13A     -1.175519    14A     -1.110375    15A     -1.063811
      16A     -1.024223    17A     -0.998150    18A     -0.860413
      19A     -0.847583    20A     -0.797238    21A     -0.777496
      22A     -0.741883    23A     -0.685945    24A     -0.648801
      25A     -0.639535    26A     -0.615419    27A     -0.595712
      28A     -0.594496    29A     -0.588387    30A     -0.563719
      31A     -0.521058    32A     -0.511855    33A     -0.504469
      34A     -0.462744    35A     -0.394966    36A     -0.349417
      37A     -0.346480    38A     -0.313070

  @DF-RHF Final Energy:  -454.48649494637579

   => Energetics <=

    Nuclear Repulsion Energy =            546.2993326354350074
    One-Electron Energy =               -1698.2843641946219577
    Two-Electron Energy =                 697.4985366128112219
    Total Energy =                       -454.4864949463758421
  Basis Set: (AUG-CC-PVTZ AUX)
    Blend: AUG-CC-PVTZ-RI
    Molecular point group: c1

    Geometry (in Angstrom), charge = 0, multiplicity = 1:

       Center              X                  Y                   Z               Mass
    ------------   -----------------  -----------------  -----------------  -----------------
         N            0.996949619539     0.044865067278     0.006519835095    14.003074004430
         N            1.684830619539    -1.045091932722    -0.412259164905    14.003074004430
         C           -0.421343380461     0.027928067278    -0.002387164905    12.000000000000
         C           -1.127361380461     1.208264067278    -0.248341164905    12.000000000000
         C           -1.087893380461    -1.174973932722     0.244520835095    12.000000000000
         C            1.816340619539     1.062427067278     0.412870835095    12.000000000000
         C           -2.522216380461     1.183570067278    -0.224706164905    12.000000000000
         C           -2.481784380461    -1.187700932722     0.242715835095    12.000000000000
         C            3.112798619539     0.609906067278     0.243527835095    12.000000000000
         C           -3.202534380461    -0.011159932722     0.019728835095    12.000000000000
         C            2.976796619539    -0.693586932722    -0.263141164905    12.000000000000
         H           -0.597002780461     2.091168867278    -0.630527564905     1.007825032230
         H           -0.507578380461    -2.074594932722     0.421831835095     1.007825032230
         H            1.417602619539     1.982938067278     0.815103835095     1.007825032230
         H           -3.076665380461     2.098819067278    -0.416342164905     1.007825032230
         H           -3.007148380461    -2.120683932722     0.430846835095     1.007825032230
         H            4.022954619539     1.146999067278     0.470990835095     1.007825032230
         H           -4.289267380461    -0.027172932722     0.027837835095     1.007825032230
         H            3.748217619539    -1.400583932722    -0.540141164905     1.007825032230

  Basis Set: AUG-CC-PVTZ
    Blend: AUG-CC-PVTZ
  Basis Set: (AUG-CC-PVTZ AUX)
    Blend: AUG-CC-PVTZ-JKFIT
	 Reference Energy          =    -454.4864949463757853 [Eh]
	 Singles Energy            =      -0.0000000000000000 [Eh]
	 Same-Spin Energy          =      -0.5097667230953780 [Eh]
	 Opposite-Spin Energy      =      -1.5480946740064430 [Eh]
	 Correlation Energy        =      -2.0578613971018207 [Eh]
	 Total Energy              =    -456.5443563434776024 [Eh]

	 ================> DF-SCS-MP2 Energies <==================
	-----------------------------------------------------------
	 SCS Same-Spin Scale       =       0.3333333333333333 [-]
	 SCS Opposite-Spin Scale   =       1.2000000000000000 [-]
	 SCS Same-Spin Energy      =      -0.1699222410317927 [Eh]
	 SCS Opposite-Spin Energy  =      -1.8577136088077315 [Eh]
	 SCS Correlation Energy    =      -2.0276358498395242 [Eh]
	 SCS Total Energy          =    -456.5141307962152837 [Eh]
	-----------------------------------------------------------

  Dipole Moment: [D]
     X:    -0.9021      Y:     1.6035      Z:     0.6513     Total:     1.9517

*** Psi4 exiting successfully. Buy a developer a beer!
