                               Psi4 1.4a2.dev612

  ==> Input File <==

--------------------------------------------------------------------------
#psi4
#
memory 32 gb

molecule  {
0 1
  N        1.0119030     0.0333230     0.0008060
  N        1.6997840    -1.0566340    -0.4179730
  C       -0.4063900     0.0163860    -0.0081010
  C       -1.1124080     1.1967220    -0.2540550
  C       -1.0729400    -1.1865160     0.2388070
  C        1.8312940     1.0508850     0.4071570
  C       -2.5072630     1.1720280    -0.2304200
  C       -2.4668310    -1.1992430     0.2370020
  C        3.1277520     0.5983640     0.2378140
  C       -3.1875810    -0.0227020     0.0140150
  C        2.9917500    -0.7051290    -0.2688550
  H       -0.5841529     2.0570653    -0.7336404
  H       -0.4926250    -2.0861370     0.4161180
  H        1.4325560     1.9713960     0.8093900
  H       -3.0617120     2.0872770    -0.4220560
  H       -2.9921950    -2.1322260     0.4251330
  H        4.0379080     1.1354570     0.4652770
  H       -4.2743140    -0.0387150     0.0221240
  H        3.7631710    -1.4121260    -0.5458550
units angstrom
no_reorient  #important for SAPT in psi4, default
symmetry c1  #important for SAPT in psi4, default
}

set PROPERTIES_ORIGIN ["COM"]
properties('MP2/aug-cc-pvtz', properties = ['dipole'])
--------------------------------------------------------------------------

    Molecular point group: c1
  Charge       = 0
  Multiplicity = 1
  Basis Set: AUG-CC-PVTZ
    Blend: AUG-CC-PVTZ
  Basis Set: (AUG-CC-PVTZ AUX)
    Blend: AUG-CC-PVTZ-JKFIT

    Orbital Energies [Eh]
    ---------------------

    Doubly Occupied:

       1A    -15.651836     2A    -15.590385     3A    -11.292395
       4A    -11.282191     5A    -11.259663     6A    -11.249495
       7A    -11.248180     8A    -11.246813     9A    -11.241199
      10A    -11.241030    11A    -11.227618    12A     -1.382367
      13A     -1.175543    14A     -1.110450    15A     -1.063690
      16A     -1.023911    17A     -0.998129    18A     -0.860095
      19A     -0.847136    20A     -0.797030    21A     -0.777400
      22A     -0.741223    23A     -0.684685    24A     -0.648666
      25A     -0.638896    26A     -0.615462    27A     -0.594775
      28A     -0.593596    29A     -0.588018    30A     -0.563649
      31A     -0.521769    32A     -0.512986    33A     -0.501387
      34A     -0.462610    35A     -0.394982    36A     -0.349136
      37A     -0.346491    38A     -0.313153

  @DF-RHF Final Energy:  -454.48363176021911

   => Energetics <=

    Nuclear Repulsion Energy =            546.2112457677854991
    One-Electron Energy =               -1698.1136764026061883
    Two-Electron Energy =                 697.4187988746014071
    Total Energy =                       -454.4836317602191684
  Basis Set: (AUG-CC-PVTZ AUX)
    Blend: AUG-CC-PVTZ-RI
    Molecular point group: c1

    Geometry (in Angstrom), charge = 0, multiplicity = 1:

       Center              X                  Y                   Z               Mass
    ------------   -----------------  -----------------  -----------------  -----------------
         N            0.996964334458     0.045022895015     0.007201184461    14.003074004430
         N            1.684845334458    -1.044934104985    -0.411577815539    14.003074004430
         C           -0.421328665542     0.028085895015    -0.001705815539    12.000000000000
         C           -1.127346665542     1.208421895015    -0.247659815539    12.000000000000
         C           -1.087878665542    -1.174816104985     0.245202184461    12.000000000000
         C            1.816355334458     1.062584895015     0.413552184461    12.000000000000
         C           -2.522201665542     1.183727895015    -0.224024815539    12.000000000000
         C           -2.481769665542    -1.187543104985     0.243397184461    12.000000000000
         C            3.112813334458     0.610063895015     0.244209184461    12.000000000000
         C           -3.202519665542    -0.011002104985     0.020410184461    12.000000000000
         C            2.976811334458    -0.693429104985    -0.262459815539    12.000000000000
         H           -0.599091565542     2.068765195015    -0.727245215539     1.007825032230
         H           -0.507563665542    -2.074437104985     0.422513184461     1.007825032230
         H            1.417617334458     1.983095895015     0.815785184461     1.007825032230
         H           -3.076650665542     2.098976895015    -0.415660815539     1.007825032230
         H           -3.007133665542    -2.120526104985     0.431528184461     1.007825032230
         H            4.022969334458     1.147156895015     0.471672184461     1.007825032230
         H           -4.289252665542    -0.027015104985     0.028519184461     1.007825032230
         H            3.748232334458    -1.400426104985    -0.539459815539     1.007825032230

  Basis Set: AUG-CC-PVTZ
    Blend: AUG-CC-PVTZ
  Basis Set: (AUG-CC-PVTZ AUX)
    Blend: AUG-CC-PVTZ-JKFIT
	 Reference Energy          =    -454.4836317602191116 [Eh]
	 Singles Energy            =      -0.0000000000000000 [Eh]
	 Same-Spin Energy          =      -0.5099125810550011 [Eh]
	 Opposite-Spin Energy      =      -1.5484459857901847 [Eh]
	 Correlation Energy        =      -2.0583585668451860 [Eh]
	 Total Energy              =    -456.5419903270642976 [Eh]

	 ================> DF-SCS-MP2 Energies <==================
	-----------------------------------------------------------
	 SCS Same-Spin Scale       =       0.3333333333333333 [-]
	 SCS Opposite-Spin Scale   =       1.2000000000000000 [-]
	 SCS Same-Spin Energy      =      -0.1699708603516670 [Eh]
	 SCS Opposite-Spin Energy  =      -1.8581351829482216 [Eh]
	 SCS Correlation Energy    =      -2.0281060432998887 [Eh]
	 SCS Total Energy          =    -456.5117378035189972 [Eh]
	-----------------------------------------------------------

  Dipole Moment: [D]
     X:    -0.9214      Y:     1.5665      Z:     0.5977     Total:     1.9131

*** Psi4 exiting successfully. Buy a developer a beer!
