                               Psi4 1.4a3.dev225

  ==> Input File <==

--------------------------------------------------------------------------
#psi4
#
memory 32 gb

molecule  {
0 1
  S       -0.2413029    -0.5631253    -0.0902785
  O       -0.2870700    -1.2499240     1.2262220
  C        2.3977240     0.0716980     0.1844310
  C        1.0261530     0.6905850    -0.0782140
  C       -1.6743200     0.5466190    -0.2136450
  C        2.8653030    -0.7972080    -0.9817560
  C        3.4104270     1.1761770     0.4821660
  C       -2.9771600    -0.2389800    -0.1306750
  C       -4.1937400     0.6821530    -0.1120660
  H        2.2947170    -0.5588030     1.0765090
  H        0.7552030     1.3745990     0.7353710
  H        1.0111040     1.2381230    -1.0301620
  H       -1.5863530     1.2355690     0.6350930
  H       -1.6018540     1.1165020    -1.1483330
  H        2.9531350    -0.1978260    -1.8953020
  H        3.8477320    -1.2283710    -0.7670690
  H        2.1762820    -1.6227130    -1.1817050
  H        3.5229730     1.8417250    -0.3809710
  H        4.3924350     0.7485930     0.7071400
  H        3.0997810     1.7802300     1.3402560
  H       -3.0432920    -0.9285740    -0.9804800
  H       -2.9504610    -0.8515990     0.7760110
  H       -4.1584820     1.3575060     0.7479640
  H       -4.2413300     1.2926870    -1.0190020
  H       -5.1195520     0.1037900    -0.0468840
units angstrom
no_reorient  #important for SAPT in psi4, default
symmetry c1  #important for SAPT in psi4, default
}

set PROPERTIES_ORIGIN ["COM"]
properties('MP2/aug-cc-pvtz', properties = ['dipole'])
--------------------------------------------------------------------------

    Molecular point group: c1
  Charge       = 0
  Multiplicity = 1
  Basis Set: AUG-CC-PVTZ
    Blend: AUG-CC-PVTZ
  Basis Set: (AUG-CC-PVTZ AUX)
    Blend: AUG-CC-PVTZ-JKFIT

    Orbital Energies [Eh]
    ---------------------

    Doubly Occupied:

       1A    -92.053094     2A    -20.499783     3A    -11.260103
       4A    -11.257290     5A    -11.238774     6A    -11.233265
       7A    -11.223522     8A    -11.221337     9A    -11.217625
      10A     -9.041382    11A     -6.723100    12A     -6.723034
      13A     -6.721672    14A     -1.336744    15A     -1.112967
      16A     -1.084350    17A     -1.010900    18A     -0.943334
      19A     -0.937292    20A     -0.844209    21A     -0.798486
      22A     -0.772526    23A     -0.666249    24A     -0.652383
      25A     -0.631113    26A     -0.612570    27A     -0.595366
      28A     -0.589117    29A     -0.567979    30A     -0.557907
      31A     -0.545617    32A     -0.534244    33A     -0.516869
      34A     -0.510844    35A     -0.499143    36A     -0.486235
      37A     -0.481350    38A     -0.477500    39A     -0.474066
      40A     -0.409895    41A     -0.351467

  @DF-RHF Final Energy:  -746.89155216105894

   => Energetics <=

    Nuclear Repulsion Energy =            577.1832754224587916
    One-Electron Energy =               -2169.3202488702472692
    Two-Electron Energy =                 845.2454212867295382
    Total Energy =                       -746.8915521610589394
  Basis Set: (AUG-CC-PVTZ AUX)
    Blend: AUG-CC-PVTZ-RI
    Molecular point group: c1

    Geometry (in Angstrom), charge = 0, multiplicity = 1:

       Center              X                  Y                   Z               Mass
    ------------   -----------------  -----------------  -----------------  -----------------
         S           -0.236634511279    -0.524836278779    -0.117823683862    31.972071174400
         O           -0.282401611279    -1.211634978779     1.198676816138    15.994914619570
         C            2.402392388721     0.109987021221     0.156885816138    12.000000000000
         C            1.030821388721     0.728874021221    -0.105759183862    12.000000000000
         C           -1.669651611279     0.584908021221    -0.241190183862    12.000000000000
         C            2.869971388721    -0.758918978779    -1.009301183862    12.000000000000
         C            3.415095388721     1.214466021221     0.454620816138    12.000000000000
         C           -2.972491611279    -0.200690978779    -0.158220183862    12.000000000000
         C           -4.189071611279     0.720442021221    -0.139611183862    12.000000000000
         H            2.299385388721    -0.520513978779     1.048963816138     1.007825032230
         H            0.759871388721     1.412888021221     0.707825816138     1.007825032230
         H            1.015772388721     1.276412021221    -1.057707183862     1.007825032230
         H           -1.581684611279     1.273858021221     0.607547816138     1.007825032230
         H           -1.597185611279     1.154791021221    -1.175878183862     1.007825032230
         H            2.957803388721    -0.159536978779    -1.922847183862     1.007825032230
         H            3.852400388721    -1.190081978779    -0.794614183862     1.007825032230
         H            2.180950388721    -1.584423978779    -1.209250183862     1.007825032230
         H            3.527641388721     1.880014021221    -0.408516183862     1.007825032230
         H            4.397103388721     0.786882021221     0.679594816138     1.007825032230
         H            3.104449388721     1.818519021221     1.312710816138     1.007825032230
         H           -3.038623611279    -0.890284978779    -1.008025183862     1.007825032230
         H           -2.945792611279    -0.813309978779     0.748465816138     1.007825032230
         H           -4.153813611279     1.395795021221     0.720418816138     1.007825032230
         H           -4.236661611279     1.330976021221    -1.046547183862     1.007825032230
         H           -5.114883611279     0.142079021221    -0.074429183862     1.007825032230

  Basis Set: AUG-CC-PVTZ
    Blend: AUG-CC-PVTZ
  Basis Set: (AUG-CC-PVTZ AUX)
    Blend: AUG-CC-PVTZ-JKFIT
	 Reference Energy          =    -746.8915521610589394 [Eh]
	 Singles Energy            =      -0.0000000000000000 [Eh]
	 Same-Spin Energy          =      -0.4269580064758342 [Eh]
	 Opposite-Spin Energy      =      -1.4565698617644278 [Eh]
	 Correlation Energy        =      -1.8835278682402621 [Eh]
	 Total Energy              =    -748.7750800292991471 [Eh]

	 ================> DF-SCS-MP2 Energies <==================
	-----------------------------------------------------------
	 SCS Same-Spin Scale       =       0.3333333333333333 [-]
	 SCS Opposite-Spin Scale   =       1.2000000000000000 [-]
	 SCS Same-Spin Energy      =      -0.1423193354919447 [Eh]
	 SCS Opposite-Spin Energy  =      -1.7478838341173133 [Eh]
	 SCS Correlation Energy    =      -1.8902031696092580 [Eh]
	 SCS Total Energy          =    -748.7817553306681475 [Eh]
	-----------------------------------------------------------

  Dipole Moment: [D]
     X:     0.0158      Y:     2.8765      Z:    -2.1385     Total:     3.5843

*** Psi4 exiting successfully. Buy a developer a beer!
