                               Psi4 1.4a3.dev225

  ==> Input File <==

--------------------------------------------------------------------------
#psi4
#
memory 32 gb

molecule  {
0 1
  S       -0.2613620    -0.5930190    -0.1424790
  O       -0.2870700    -1.2499240     1.2262220
  C        2.3977240     0.0716980     0.1844310
  C        1.0261530     0.6905850    -0.0782140
  C       -1.6743200     0.5466190    -0.2136450
  C        2.8653030    -0.7972080    -0.9817560
  C        3.4104270     1.1761770     0.4821660
  C       -2.9771600    -0.2389800    -0.1306750
  C       -4.1937400     0.6821530    -0.1120660
  H        2.2994109    -0.5300719     1.0358582
  H        0.7552030     1.3745990     0.7353710
  H        1.0111040     1.2381230    -1.0301620
  H       -1.5863530     1.2355690     0.6350930
  H       -1.6018540     1.1165020    -1.1483330
  H        2.9531350    -0.1978260    -1.8953020
  H        3.8477320    -1.2283710    -0.7670690
  H        2.1762820    -1.6227130    -1.1817050
  H        3.5229730     1.8417250    -0.3809710
  H        4.3924350     0.7485930     0.7071400
  H        3.0997810     1.7802300     1.3402560
  H       -3.0432920    -0.9285740    -0.9804800
  H       -2.9504610    -0.8515990     0.7760110
  H       -4.1584820     1.3575060     0.7479640
  H       -4.2413300     1.2926870    -1.0190020
  H       -5.1195520     0.1037900    -0.0468840
units angstrom
no_reorient  #important for SAPT in psi4, default
symmetry c1  #important for SAPT in psi4, default
}

set PROPERTIES_ORIGIN ["COM"]
properties('MP2/aug-cc-pvtz', properties = ['dipole'])
--------------------------------------------------------------------------

    Molecular point group: c1
  Charge       = 0
  Multiplicity = 1
  Basis Set: AUG-CC-PVTZ
    Blend: AUG-CC-PVTZ
  Basis Set: (AUG-CC-PVTZ AUX)
    Blend: AUG-CC-PVTZ-JKFIT

    Orbital Energies [Eh]
    ---------------------

    Doubly Occupied:

       1A    -92.057565     2A    -20.497543     3A    -11.261704
       4A    -11.259501     5A    -11.233458     6A    -11.231942
       7A    -11.223738     8A    -11.220785     9A    -11.217479
      10A     -9.045027    11A     -6.726625    12A     -6.726438
      13A     -6.725153    14A     -1.317187    15A     -1.111067
      16A     -1.085428    17A     -1.007834    18A     -0.941833
      19A     -0.937026    20A     -0.846174    21A     -0.800886
      22A     -0.778942    23A     -0.665020    24A     -0.650248
      25A     -0.629726    26A     -0.611103    27A     -0.593246
      28A     -0.588248    29A     -0.566404    30A     -0.554215
      31A     -0.545095    32A     -0.533118    33A     -0.513977
      34A     -0.506443    35A     -0.499387    36A     -0.486140
      37A     -0.481037    38A     -0.478794    39A     -0.474350
      40A     -0.403503    41A     -0.359369

  @DF-RHF Final Energy:  -746.89087333616624

   => Energetics <=

    Nuclear Repulsion Energy =            575.5150061268175250
    One-Electron Energy =               -2166.0262437913934264
    Two-Electron Energy =                 843.6203643284096643
    Total Energy =                       -746.8908733361662371
  Basis Set: (AUG-CC-PVTZ AUX)
    Blend: AUG-CC-PVTZ-RI
    Molecular point group: c1

    Geometry (in Angstrom), charge = 0, multiplicity = 1:

       Center              X                  Y                   Z               Mass
    ------------   -----------------  -----------------  -----------------  -----------------
         S           -0.252394935171    -0.548471663567    -0.158477815092    31.972071174400
         O           -0.278102935171    -1.205376663567     1.210223184908    15.994914619570
         C            2.406691064829     0.116245336433     0.168432184908    12.000000000000
         C            1.035120064829     0.735132336433    -0.094212815092    12.000000000000
         C           -1.665352935171     0.591166336433    -0.229643815092    12.000000000000
         C            2.874270064829    -0.752660663567    -0.997754815092    12.000000000000
         C            3.419394064829     1.220724336433     0.466167184908    12.000000000000
         C           -2.968192935171    -0.194432663567    -0.146673815092    12.000000000000
         C           -4.184772935171     0.726700336433    -0.128064815092    12.000000000000
         H            2.308377964829    -0.485524563567     1.019859384908     1.007825032230
         H            0.764170064829     1.419146336433     0.719372184908     1.007825032230
         H            1.020071064829     1.282670336433    -1.046160815092     1.007825032230
         H           -1.577385935171     1.280116336433     0.619094184908     1.007825032230
         H           -1.592886935171     1.161049336433    -1.164331815092     1.007825032230
         H            2.962102064829    -0.153278663567    -1.911300815092     1.007825032230
         H            3.856699064829    -1.183823663567    -0.783067815092     1.007825032230
         H            2.185249064829    -1.578165663567    -1.197703815092     1.007825032230
         H            3.531940064829     1.886272336433    -0.396969815092     1.007825032230
         H            4.401402064829     0.793140336433     0.691141184908     1.007825032230
         H            3.108748064829     1.824777336433     1.324257184908     1.007825032230
         H           -3.034324935171    -0.884026663567    -0.996478815092     1.007825032230
         H           -2.941493935171    -0.807051663567     0.760012184908     1.007825032230
         H           -4.149514935171     1.402053336433     0.731965184908     1.007825032230
         H           -4.232362935171     1.337234336433    -1.035000815092     1.007825032230
         H           -5.110584935171     0.148337336433    -0.062882815092     1.007825032230

  Basis Set: AUG-CC-PVTZ
    Blend: AUG-CC-PVTZ
  Basis Set: (AUG-CC-PVTZ AUX)
    Blend: AUG-CC-PVTZ-JKFIT
	 Reference Energy          =    -746.8908733361662371 [Eh]
	 Singles Energy            =      -0.0000000000000000 [Eh]
	 Same-Spin Energy          =      -0.4271729611003234 [Eh]
	 Opposite-Spin Energy      =      -1.4578719716318580 [Eh]
	 Correlation Energy        =      -1.8850449327321814 [Eh]
	 Total Energy              =    -748.7759182688984083 [Eh]

	 ================> DF-SCS-MP2 Energies <==================
	-----------------------------------------------------------
	 SCS Same-Spin Scale       =       0.3333333333333333 [-]
	 SCS Opposite-Spin Scale   =       1.2000000000000000 [-]
	 SCS Same-Spin Energy      =      -0.1423909870334411 [Eh]
	 SCS Opposite-Spin Energy  =      -1.7494463659582296 [Eh]
	 SCS Correlation Energy    =      -1.8918373529916708 [Eh]
	 SCS Total Energy          =    -748.7827106891578524 [Eh]
	-----------------------------------------------------------

  Dipole Moment: [D]
     X:    -0.0494      Y:     2.8823      Z:    -2.2675     Total:     3.6677

*** Psi4 exiting successfully. Buy a developer a beer!
