                               Psi4 1.4a3.dev225

  ==> Input File <==

--------------------------------------------------------------------------
#psi4
#
memory 32 gb

molecule  {
0 1
  S       -0.2613620    -0.5930190    -0.1424790
  O       -0.2870700    -1.2499240     1.2262220
  C        2.3977240     0.0716980     0.1844310
  C        1.0261530     0.6905850    -0.0782140
  C       -1.6743200     0.5466190    -0.2136450
  C        2.8653030    -0.7972080    -0.9817560
  C        3.4104270     1.1761770     0.4821660
  C       -2.9269931    -0.2909734     0.0115015
  C       -4.1937400     0.6821530    -0.1120660
  H        2.2947170    -0.5588030     1.0765090
  H        0.7552030     1.3745990     0.7353710
  H        1.0111040     1.2381230    -1.0301620
  H       -1.5863530     1.2355690     0.6350930
  H       -1.6018540     1.1165020    -1.1483330
  H        2.9531350    -0.1978260    -1.8953020
  H        3.8477320    -1.2283710    -0.7670690
  H        2.1762820    -1.6227130    -1.1817050
  H        3.5229730     1.8417250    -0.3809710
  H        4.3924350     0.7485930     0.7071400
  H        3.0997810     1.7802300     1.3402560
  H       -3.0432920    -0.9285740    -0.9804800
  H       -2.9504610    -0.8515990     0.7760110
  H       -4.1584820     1.3575060     0.7479640
  H       -4.2413300     1.2926870    -1.0190020
  H       -5.1195520     0.1037900    -0.0468840
units angstrom
no_reorient  #important for SAPT in psi4, default
symmetry c1  #important for SAPT in psi4, default
}

set PROPERTIES_ORIGIN ["COM"]
properties('MP2/aug-cc-pvtz', properties = ['dipole'])
--------------------------------------------------------------------------

    Molecular point group: c1
  Charge       = 0
  Multiplicity = 1
  Basis Set: AUG-CC-PVTZ
    Blend: AUG-CC-PVTZ
  Basis Set: (AUG-CC-PVTZ AUX)
    Blend: AUG-CC-PVTZ-JKFIT

    Orbital Energies [Eh]
    ---------------------

    Doubly Occupied:

       1A    -92.056323     2A    -20.497941     3A    -11.264143
       4A    -11.258971     5A    -11.237186     6A    -11.235219
       7A    -11.227811     8A    -11.220677     9A    -11.217473
      10A     -9.043964    11A     -6.725572    12A     -6.725310
      13A     -6.724046    14A     -1.317640    15A     -1.109143
      16A     -1.082960    17A     -1.003457    18A     -0.938499
      19A     -0.936848    20A     -0.853040    21A     -0.808835
      22A     -0.772625    23A     -0.667384    24A     -0.647946
      25A     -0.626725    26A     -0.615542    27A     -0.596222
      28A     -0.583804    29A     -0.569422    30A     -0.551488
      31A     -0.544540    32A     -0.533930    33A     -0.530533
      34A     -0.509448    35A     -0.501349    36A     -0.479954
      37A     -0.474013    38A     -0.469727    39A     -0.462937
      40A     -0.400973    41A     -0.359307

  @DF-RHF Final Energy:  -746.85981738966768

   => Energetics <=

    Nuclear Repulsion Energy =            575.5801468713196982
    One-Electron Energy =               -2166.1140748730067571
    Two-Electron Energy =                 843.6741106120192626
    Total Energy =                       -746.8598173896676826
  Basis Set: (AUG-CC-PVTZ AUX)
    Blend: AUG-CC-PVTZ-RI
    Molecular point group: c1

    Geometry (in Angstrom), charge = 0, multiplicity = 1:

       Center              X                  Y                   Z               Mass
    ------------   -----------------  -----------------  -----------------  -----------------
         S           -0.256428045796    -0.544063080386    -0.170275107963    31.972071174400
         O           -0.282136045796    -1.200968080386     1.198425892037    15.994914619570
         C            2.402657954204     0.120653919614     0.156634892037    12.000000000000
         C            1.031086954204     0.739540919614    -0.106010107963    12.000000000000
         C           -1.669386045796     0.595574919614    -0.241441107963    12.000000000000
         C            2.870236954204    -0.748252080386    -1.009552107963    12.000000000000
         C            3.415360954204     1.225132919614     0.454369892037    12.000000000000
         C           -2.922059145796    -0.242017480386    -0.016294607963    12.000000000000
         C           -4.188806045796     0.731108919614    -0.139862107963    12.000000000000
         H            2.299650954204    -0.509847080386     1.048712892037     1.007825032230
         H            0.760136954204     1.423554919614     0.707574892037     1.007825032230
         H            1.016037954204     1.287078919614    -1.057958107963     1.007825032230
         H           -1.581419045796     1.284524919614     0.607296892037     1.007825032230
         H           -1.596920045796     1.165457919614    -1.176129107963     1.007825032230
         H            2.958068954204    -0.148870080386    -1.923098107963     1.007825032230
         H            3.852665954204    -1.179415080386    -0.794865107963     1.007825032230
         H            2.181215954204    -1.573757080386    -1.209501107963     1.007825032230
         H            3.527906954204     1.890680919614    -0.408767107963     1.007825032230
         H            4.397368954204     0.797548919614     0.679343892037     1.007825032230
         H            3.104714954204     1.829185919614     1.312459892037     1.007825032230
         H           -3.038358045796    -0.879618080386    -1.008276107963     1.007825032230
         H           -2.945527045796    -0.802643080386     0.748214892037     1.007825032230
         H           -4.153548045796     1.406461919614     0.720167892037     1.007825032230
         H           -4.236396045796     1.341642919614    -1.046798107963     1.007825032230
         H           -5.114618045796     0.152745919614    -0.074680107963     1.007825032230

  Basis Set: AUG-CC-PVTZ
    Blend: AUG-CC-PVTZ
  Basis Set: (AUG-CC-PVTZ AUX)
    Blend: AUG-CC-PVTZ-JKFIT
	 Reference Energy          =    -746.8598173896676826 [Eh]
	 Singles Energy            =      -0.0000000000000000 [Eh]
	 Same-Spin Energy          =      -0.4274470995582019 [Eh]
	 Opposite-Spin Energy      =      -1.4595427781880184 [Eh]
	 Correlation Energy        =      -1.8869898777462204 [Eh]
	 Total Energy              =    -748.7468072674139421 [Eh]

	 ================> DF-SCS-MP2 Energies <==================
	-----------------------------------------------------------
	 SCS Same-Spin Scale       =       0.3333333333333333 [-]
	 SCS Opposite-Spin Scale   =       1.2000000000000000 [-]
	 SCS Same-Spin Energy      =      -0.1424823665194006 [Eh]
	 SCS Opposite-Spin Energy  =      -1.7514513338256219 [Eh]
	 SCS Correlation Energy    =      -1.8939337003450225 [Eh]
	 SCS Total Energy          =    -748.7537510900126563 [Eh]
	-----------------------------------------------------------

  Dipole Moment: [D]
     X:    -0.0824      Y:     2.9298      Z:    -2.2491     Total:     3.6945

*** Psi4 exiting successfully. Buy a developer a beer!
