                               Psi4 1.4a3.dev225

  ==> Input File <==

--------------------------------------------------------------------------
#psi4
#
memory 32 gb

molecule  {
0 1
  S       -0.2613620    -0.5930190    -0.1424790
  O       -0.2870700    -1.2499240     1.2262220
  C        2.3977240     0.0716980     0.1844310
  C        1.0261530     0.6905850    -0.0782140
  C       -1.6898755     0.5591655    -0.2144285
  C        2.8653030    -0.7972080    -0.9817560
  C        3.4104270     1.1761770     0.4821660
  C       -2.9771600    -0.2389800    -0.1306750
  C       -4.1937400     0.6821530    -0.1120660
  H        2.2947170    -0.5588030     1.0765090
  H        0.7552030     1.3745990     0.7353710
  H        1.0111040     1.2381230    -1.0301620
  H       -1.5863530     1.2355690     0.6350930
  H       -1.6018540     1.1165020    -1.1483330
  H        2.9531350    -0.1978260    -1.8953020
  H        3.8477320    -1.2283710    -0.7670690
  H        2.1762820    -1.6227130    -1.1817050
  H        3.5229730     1.8417250    -0.3809710
  H        4.3924350     0.7485930     0.7071400
  H        3.0997810     1.7802300     1.3402560
  H       -3.0432920    -0.9285740    -0.9804800
  H       -2.9504610    -0.8515990     0.7760110
  H       -4.1584820     1.3575060     0.7479640
  H       -4.2413300     1.2926870    -1.0190020
  H       -5.1195520     0.1037900    -0.0468840
units angstrom
no_reorient  #important for SAPT in psi4, default
symmetry c1  #important for SAPT in psi4, default
}

set PROPERTIES_ORIGIN ["COM"]
properties('MP2/aug-cc-pvtz', properties = ['dipole'])
--------------------------------------------------------------------------

    Molecular point group: c1
  Charge       = 0
  Multiplicity = 1
  Basis Set: AUG-CC-PVTZ
    Blend: AUG-CC-PVTZ
  Basis Set: (AUG-CC-PVTZ AUX)
    Blend: AUG-CC-PVTZ-JKFIT

    Orbital Energies [Eh]
    ---------------------

    Doubly Occupied:

       1A    -92.057143     2A    -20.497421     3A    -11.261741
       4A    -11.259708     5A    -11.237643     6A    -11.233125
       7A    -11.223516     8A    -11.220968     9A    -11.217696
      10A     -9.044455    11A     -6.726015    12A     -6.725840
      13A     -6.724566    14A     -1.316460    15A     -1.109272
      16A     -1.085616    17A     -1.006423    18A     -0.941581
      19A     -0.937124    20A     -0.844948    21A     -0.801508
      22A     -0.772606    23A     -0.665282    24A     -0.649459
      25A     -0.628858    26A     -0.610855    27A     -0.593207
      28A     -0.588215    29A     -0.566573    30A     -0.554471
      31A     -0.545070    32A     -0.532995    33A     -0.513421
      34A     -0.506563    35A     -0.500709    36A     -0.487133
      37A     -0.479929    38A     -0.475896    39A     -0.472424
      40A     -0.401603    41A     -0.358401

  @DF-RHF Final Energy:  -746.89137283366870

   => Energetics <=

    Nuclear Repulsion Energy =            574.9586274575717653
    One-Electron Energy =               -2164.9471247193800991
    Two-Electron Energy =                 843.0971244281396366
    Total Energy =                       -746.8913728336686972
  Basis Set: (AUG-CC-PVTZ AUX)
    Blend: AUG-CC-PVTZ-RI
    Molecular point group: c1

    Geometry (in Angstrom), charge = 0, multiplicity = 1:

       Center              X                  Y                   Z               Mass
    ------------   -----------------  -----------------  -----------------  -----------------
         S           -0.251102519719    -0.549292787769    -0.158690972143    31.972071174400
         O           -0.276810519719    -1.206197787769     1.210010027857    15.994914619570
         C            2.407983480281     0.115424212231     0.168219027857    12.000000000000
         C            1.036412480281     0.734311212231    -0.094425972143    12.000000000000
         C           -1.679616019719     0.602891712231    -0.230640472143    12.000000000000
         C            2.875562480281    -0.753481787769    -0.997967972143    12.000000000000
         C            3.420686480281     1.219903212231     0.465954027857    12.000000000000
         C           -2.966900519719    -0.195253787769    -0.146886972143    12.000000000000
         C           -4.183480519719     0.725879212231    -0.128277972143    12.000000000000
         H            2.304976480281    -0.515076787769     1.060297027857     1.007825032230
         H            0.765462480281     1.418325212231     0.719159027857     1.007825032230
         H            1.021363480281     1.281849212231    -1.046373972143     1.007825032230
         H           -1.576093519719     1.279295212231     0.618881027857     1.007825032230
         H           -1.591594519719     1.160228212231    -1.164544972143     1.007825032230
         H            2.963394480281    -0.154099787769    -1.911513972143     1.007825032230
         H            3.857991480281    -1.184644787769    -0.783280972143     1.007825032230
         H            2.186541480281    -1.578986787769    -1.197916972143     1.007825032230
         H            3.533232480281     1.885451212231    -0.397182972143     1.007825032230
         H            4.402694480281     0.792319212231     0.690928027857     1.007825032230
         H            3.110040480281     1.823956212231     1.324044027857     1.007825032230
         H           -3.033032519719    -0.884847787769    -0.996691972143     1.007825032230
         H           -2.940201519719    -0.807872787769     0.759799027857     1.007825032230
         H           -4.148222519719     1.401232212231     0.731752027857     1.007825032230
         H           -4.231070519719     1.336413212231    -1.035213972143     1.007825032230
         H           -5.109292519719     0.147516212231    -0.063095972143     1.007825032230

  Basis Set: AUG-CC-PVTZ
    Blend: AUG-CC-PVTZ
  Basis Set: (AUG-CC-PVTZ AUX)
    Blend: AUG-CC-PVTZ-JKFIT
	 Reference Energy          =    -746.8913728336686972 [Eh]
	 Singles Energy            =      -0.0000000000000000 [Eh]
	 Same-Spin Energy          =      -0.4272777058195612 [Eh]
	 Opposite-Spin Energy      =      -1.4583674098363870 [Eh]
	 Correlation Energy        =      -1.8856451156559482 [Eh]
	 Total Energy              =    -748.7770179493246587 [Eh]

	 ================> DF-SCS-MP2 Energies <==================
	-----------------------------------------------------------
	 SCS Same-Spin Scale       =       0.3333333333333333 [-]
	 SCS Opposite-Spin Scale   =       1.2000000000000000 [-]
	 SCS Same-Spin Energy      =      -0.1424259019398537 [Eh]
	 SCS Opposite-Spin Energy  =      -1.7500408918036643 [Eh]
	 SCS Correlation Energy    =      -1.8924667937435180 [Eh]
	 SCS Total Energy          =    -748.7838396274122488 [Eh]
	-----------------------------------------------------------

  Dipole Moment: [D]
     X:    -0.0445      Y:     2.8773      Z:    -2.2733     Total:     3.6673

*** Psi4 exiting successfully. Buy a developer a beer!
