                               Psi4 1.4a3.dev225

  ==> Input File <==

--------------------------------------------------------------------------
#psi4
#
memory 32 gb

molecule  {
0 1
  S       -0.2613620    -0.5930190    -0.1424790
  O       -0.2870700    -1.2499240     1.2262220
  C        2.3977240     0.0716980     0.1844310
  C        1.0703687     0.7862470    -0.0620606
  C       -1.6743200     0.5466190    -0.2136450
  C        2.8653030    -0.7972080    -0.9817560
  C        3.4104270     1.1761770     0.4821660
  C       -2.9771600    -0.2389800    -0.1306750
  C       -4.1937400     0.6821530    -0.1120660
  H        2.2947170    -0.5588030     1.0765090
  H        0.7552030     1.3745990     0.7353710
  H        1.0111040     1.2381230    -1.0301620
  H       -1.5863530     1.2355690     0.6350930
  H       -1.6018540     1.1165020    -1.1483330
  H        2.9531350    -0.1978260    -1.8953020
  H        3.8477320    -1.2283710    -0.7670690
  H        2.1762820    -1.6227130    -1.1817050
  H        3.5229730     1.8417250    -0.3809710
  H        4.3924350     0.7485930     0.7071400
  H        3.0997810     1.7802300     1.3402560
  H       -3.0432920    -0.9285740    -0.9804800
  H       -2.9504610    -0.8515990     0.7760110
  H       -4.1584820     1.3575060     0.7479640
  H       -4.2413300     1.2926870    -1.0190020
  H       -5.1195520     0.1037900    -0.0468840
units angstrom
no_reorient  #important for SAPT in psi4, default
symmetry c1  #important for SAPT in psi4, default
}

set PROPERTIES_ORIGIN ["COM"]
properties('MP2/aug-cc-pvtz', properties = ['dipole'])
--------------------------------------------------------------------------

    Molecular point group: c1
  Charge       = 0
  Multiplicity = 1
  Basis Set: AUG-CC-PVTZ
    Blend: AUG-CC-PVTZ
  Basis Set: (AUG-CC-PVTZ AUX)
    Blend: AUG-CC-PVTZ-JKFIT

    Orbital Energies [Eh]
    ---------------------

    Doubly Occupied:

       1A    -92.054627     2A    -20.497198     3A    -11.260277
       4A    -11.259460     5A    -11.238100     6A    -11.232236
       7A    -11.222835     8A    -11.219939     9A    -11.219298
      10A     -9.041586    11A     -6.723056    12A     -6.722793
      13A     -6.721617    14A     -1.314018    15A     -1.108177
      16A     -1.084033    17A     -1.000785    18A     -0.943238
      19A     -0.936659    20A     -0.844230    21A     -0.796666
      22A     -0.778831    23A     -0.669809    24A     -0.651058
      25A     -0.625383    26A     -0.613291    27A     -0.592902
      28A     -0.587497    29A     -0.566623    30A     -0.554406
      31A     -0.545642    32A     -0.533539    33A     -0.512470
      34A     -0.507881    35A     -0.498611    36A     -0.485864
      37A     -0.484884    38A     -0.477811    39A     -0.471314
      40A     -0.393295    41A     -0.354057

  @DF-RHF Final Energy:  -746.88336595151668

   => Energetics <=

    Nuclear Repulsion Energy =            573.6049057326159755
    One-Electron Energy =               -2162.2845460509252007
    Two-Electron Energy =                 841.7962743667926588
    Total Energy =                       -746.8833659515166801
  Basis Set: (AUG-CC-PVTZ AUX)
    Blend: AUG-CC-PVTZ-RI
    Molecular point group: c1

    Geometry (in Angstrom), charge = 0, multiplicity = 1:

       Center              X                  Y                   Z               Mass
    ------------   -----------------  -----------------  -----------------  -----------------
         S           -0.255945816438    -0.556027687326    -0.160063379460    31.972071174400
         O           -0.281653816438    -1.212932687326     1.208637620540    15.994914619570
         C            2.403140183562     0.108689312674     0.166846620540    12.000000000000
         C            1.075784883562     0.823238312674    -0.079644979460    12.000000000000
         C           -1.668903816438     0.583610312674    -0.231229379460    12.000000000000
         C            2.870719183562    -0.760216687326    -0.999340379460    12.000000000000
         C            3.415843183562     1.213168312674     0.464581620540    12.000000000000
         C           -2.971743816438    -0.201988687326    -0.148259379460    12.000000000000
         C           -4.188323816438     0.719144312674    -0.129650379460    12.000000000000
         H            2.300133183562    -0.521811687326     1.058924620540     1.007825032230
         H            0.760619183562     1.411590312674     0.717786620540     1.007825032230
         H            1.016520183562     1.275114312674    -1.047746379460     1.007825032230
         H           -1.580936816438     1.272560312674     0.617508620540     1.007825032230
         H           -1.596437816438     1.153493312674    -1.165917379460     1.007825032230
         H            2.958551183562    -0.160834687326    -1.912886379460     1.007825032230
         H            3.853148183562    -1.191379687326    -0.784653379460     1.007825032230
         H            2.181698183562    -1.585721687326    -1.199289379460     1.007825032230
         H            3.528389183562     1.878716312674    -0.398555379460     1.007825032230
         H            4.397851183562     0.785584312674     0.689555620540     1.007825032230
         H            3.105197183562     1.817221312674     1.322671620540     1.007825032230
         H           -3.037875816438    -0.891582687326    -0.998064379460     1.007825032230
         H           -2.945044816438    -0.814607687326     0.758426620540     1.007825032230
         H           -4.153065816438     1.394497312674     0.730379620540     1.007825032230
         H           -4.235913816438     1.329678312674    -1.036586379460     1.007825032230
         H           -5.114135816438     0.140781312674    -0.064468379460     1.007825032230

  Basis Set: AUG-CC-PVTZ
    Blend: AUG-CC-PVTZ
  Basis Set: (AUG-CC-PVTZ AUX)
    Blend: AUG-CC-PVTZ-JKFIT
	 Reference Energy          =    -746.8833659515166801 [Eh]
	 Singles Energy            =      -0.0000000000000000 [Eh]
	 Same-Spin Energy          =      -0.4274400126400940 [Eh]
	 Opposite-Spin Energy      =      -1.4593308513143528 [Eh]
	 Correlation Energy        =      -1.8867708639544469 [Eh]
	 Total Energy              =    -748.7701368154711190 [Eh]

	 ================> DF-SCS-MP2 Energies <==================
	-----------------------------------------------------------
	 SCS Same-Spin Scale       =       0.3333333333333333 [-]
	 SCS Opposite-Spin Scale   =       1.2000000000000000 [-]
	 SCS Same-Spin Energy      =      -0.1424800042133647 [Eh]
	 SCS Opposite-Spin Energy  =      -1.7511970215772232 [Eh]
	 SCS Correlation Energy    =      -1.8936770257905879 [Eh]
	 SCS Total Energy          =    -748.7770429773072465 [Eh]
	-----------------------------------------------------------

  Dipole Moment: [D]
     X:    -0.0732      Y:     2.8232      Z:    -2.2674     Total:     3.6217

*** Psi4 exiting successfully. Buy a developer a beer!
