                               Psi4 1.4a3.dev225

  ==> Input File <==

--------------------------------------------------------------------------
#psi4
#
memory 32 gb

molecule  {
0 1
  S       -0.2613620    -0.5930190    -0.1424790
  O       -0.2870700    -1.2499240     1.2262220
  C        2.3977240     0.0716980     0.1844310
  C        1.0261530     0.6905850    -0.0782140
  C       -1.6743200     0.5466190    -0.2136450
  C        2.8653030    -0.7972080    -0.9817560
  C        3.4104270     1.1761770     0.4821660
  C       -2.9771600    -0.2389800    -0.1306750
  C       -4.1937400     0.6821530    -0.1120660
  H        2.2947170    -0.5588030     1.0765090
  H        0.7552030     1.3745990     0.7353710
  H        1.0111040     1.2381230    -1.0301620
  H       -1.5863530     1.2355690     0.6350930
  H       -1.6018540     1.1165020    -1.1483330
  H        2.9531350    -0.1978260    -1.8953020
  H        3.8477320    -1.2283710    -0.7670690
  H        2.3022797    -1.4717571    -1.1451414
  H        3.5229730     1.8417250    -0.3809710
  H        4.3924350     0.7485930     0.7071400
  H        3.0997810     1.7802300     1.3402560
  H       -3.0432920    -0.9285740    -0.9804800
  H       -2.9504610    -0.8515990     0.7760110
  H       -4.1584820     1.3575060     0.7479640
  H       -4.2413300     1.2926870    -1.0190020
  H       -5.1195520     0.1037900    -0.0468840
units angstrom
no_reorient  #important for SAPT in psi4, default
symmetry c1  #important for SAPT in psi4, default
}

set PROPERTIES_ORIGIN ["COM"]
properties('MP2/aug-cc-pvtz', properties = ['dipole'])
--------------------------------------------------------------------------

    Molecular point group: c1
  Charge       = 0
  Multiplicity = 1
  Basis Set: AUG-CC-PVTZ
    Blend: AUG-CC-PVTZ
  Basis Set: (AUG-CC-PVTZ AUX)
    Blend: AUG-CC-PVTZ-JKFIT

    Orbital Energies [Eh]
    ---------------------

    Doubly Occupied:

       1A    -92.058164     2A    -20.497810     3A    -11.262242
       4A    -11.259674     5A    -11.236218     6A    -11.233764
       7A    -11.223972     8A    -11.219610     9A    -11.193269
      10A     -9.045610    11A     -6.727222    12A     -6.727031
      13A     -6.725755    14A     -1.317500    15A     -1.111660
      16A     -1.086002    17A     -1.009697    18A     -0.958132
      19A     -0.941074    20A     -0.846686    21A     -0.800949
      22A     -0.776533    23A     -0.666519    24A     -0.654827
      25A     -0.632473    26A     -0.617613    27A     -0.600841
      28A     -0.587827    29A     -0.568865    30A     -0.554838
      31A     -0.547119    32A     -0.533217    33A     -0.519346
      34A     -0.506517    35A     -0.499628    36A     -0.487205
      37A     -0.485000    38A     -0.475107    39A     -0.471402
      40A     -0.403683    41A     -0.360209

  @DF-RHF Final Energy:  -746.85778221805856

   => Energetics <=

    Nuclear Repulsion Energy =            576.1167794059787184
    One-Electron Energy =               -2167.0875069737853664
    Two-Electron Energy =                 844.1129453497479744
    Total Energy =                       -746.8577822180585599
  Basis Set: (AUG-CC-PVTZ AUX)
    Blend: AUG-CC-PVTZ-RI
    Molecular point group: c1

    Geometry (in Angstrom), charge = 0, multiplicity = 1:

       Center              X                  Y                   Z               Mass
    ------------   -----------------  -----------------  -----------------  -----------------
         S           -0.253220454796    -0.549303450956    -0.159003289170    31.972071174400
         O           -0.278928454796    -1.206208450956     1.209697710830    15.994914619570
         C            2.405865545204     0.115413549044     0.167906710830    12.000000000000
         C            1.034294545204     0.734300549044    -0.094738289170    12.000000000000
         C           -1.666178454796     0.590334549044    -0.230169289170    12.000000000000
         C            2.873444545204    -0.753492450956    -0.998280289170    12.000000000000
         C            3.418568545204     1.219892549044     0.465641710830    12.000000000000
         C           -2.969018454796    -0.195264450956    -0.147199289170    12.000000000000
         C           -4.185598454796     0.725868549044    -0.128590289170    12.000000000000
         H            2.302858545204    -0.515087450956     1.059984710830     1.007825032230
         H            0.763344545204     1.418314549044     0.718846710830     1.007825032230
         H            1.019245545204     1.281838549044    -1.046686289170     1.007825032230
         H           -1.578211454796     1.279284549044     0.618568710830     1.007825032230
         H           -1.593712454796     1.160217549044    -1.164857289170     1.007825032230
         H            2.961276545204    -0.154110450956    -1.911826289170     1.007825032230
         H            3.855873545204    -1.184655450956    -0.783593289170     1.007825032230
         H            2.310421245204    -1.428041550956    -1.161665689170     1.007825032230
         H            3.531114545204     1.885440549044    -0.397495289170     1.007825032230
         H            4.400576545204     0.792308549044     0.690615710830     1.007825032230
         H            3.107922545204     1.823945549044     1.323731710830     1.007825032230
         H           -3.035150454796    -0.884858450956    -0.997004289170     1.007825032230
         H           -2.942319454796    -0.807883450956     0.759486710830     1.007825032230
         H           -4.150340454796     1.401221549044     0.731439710830     1.007825032230
         H           -4.233188454796     1.336402549044    -1.035526289170     1.007825032230
         H           -5.111410454796     0.147505549044    -0.063408289170     1.007825032230

  Basis Set: AUG-CC-PVTZ
    Blend: AUG-CC-PVTZ
  Basis Set: (AUG-CC-PVTZ AUX)
    Blend: AUG-CC-PVTZ-JKFIT
	 Reference Energy          =    -746.8577822180585599 [Eh]
	 Singles Energy            =      -0.0000000000000000 [Eh]
	 Same-Spin Energy          =      -0.4272160723601418 [Eh]
	 Opposite-Spin Energy      =      -1.4574678444538267 [Eh]
	 Correlation Energy        =      -1.8846839168139686 [Eh]
	 Total Energy              =    -748.7424661348725294 [Eh]

	 ================> DF-SCS-MP2 Energies <==================
	-----------------------------------------------------------
	 SCS Same-Spin Scale       =       0.3333333333333333 [-]
	 SCS Opposite-Spin Scale   =       1.2000000000000000 [-]
	 SCS Same-Spin Energy      =      -0.1424053574533806 [Eh]
	 SCS Opposite-Spin Energy  =      -1.7489614133445921 [Eh]
	 SCS Correlation Energy    =      -1.8913667707979727 [Eh]
	 SCS Total Energy          =    -748.7491489888565184 [Eh]
	-----------------------------------------------------------

  Dipole Moment: [D]
     X:    -0.1029      Y:     2.8261      Z:    -2.3083     Total:     3.6504

*** Psi4 exiting successfully. Buy a developer a beer!
