                               Psi4 1.4a3.dev225

  ==> Input File <==

--------------------------------------------------------------------------
#psi4
#
memory 32 gb

molecule  {
0 1
  S       -0.2613620    -0.5930190    -0.1424790
  O       -0.2870700    -1.2499240     1.2262220
  C        2.3977240     0.0716980     0.1844310
  C        1.0261530     0.6905850    -0.0782140
  C       -1.6743200     0.5466190    -0.2136450
  C        2.8653030    -0.7972080    -0.9817560
  C        3.4104270     1.1761770     0.4821660
  C       -2.9771600    -0.2389800    -0.1306750
  C       -4.1140204     0.6217933    -0.1132854
  H        2.2947170    -0.5588030     1.0765090
  H        0.7552030     1.3745990     0.7353710
  H        1.0111040     1.2381230    -1.0301620
  H       -1.5863530     1.2355690     0.6350930
  H       -1.6018540     1.1165020    -1.1483330
  H        2.9531350    -0.1978260    -1.8953020
  H        3.8477320    -1.2283710    -0.7670690
  H        2.1762820    -1.6227130    -1.1817050
  H        3.5229730     1.8417250    -0.3809710
  H        4.3924350     0.7485930     0.7071400
  H        3.0997810     1.7802300     1.3402560
  H       -3.0432920    -0.9285740    -0.9804800
  H       -2.9504610    -0.8515990     0.7760110
  H       -4.1584820     1.3575060     0.7479640
  H       -4.2413300     1.2926870    -1.0190020
  H       -5.1195520     0.1037900    -0.0468840
units angstrom
no_reorient  #important for SAPT in psi4, default
symmetry c1  #important for SAPT in psi4, default
}

set PROPERTIES_ORIGIN ["COM"]
properties('MP2/aug-cc-pvtz', properties = ['dipole'])
--------------------------------------------------------------------------

    Molecular point group: c1
  Charge       = 0
  Multiplicity = 1
  Basis Set: AUG-CC-PVTZ
    Blend: AUG-CC-PVTZ
  Basis Set: (AUG-CC-PVTZ AUX)
    Blend: AUG-CC-PVTZ-JKFIT

    Orbital Energies [Eh]
    ---------------------

    Doubly Occupied:

       1A    -92.058010     2A    -20.497870     3A    -11.262380
       4A    -11.260176     5A    -11.237981     6A    -11.229926
       7A    -11.228973     8A    -11.221231     9A    -11.217999
      10A     -9.045469    11A     -6.727070    12A     -6.726882
      13A     -6.725597    14A     -1.317556    15A     -1.111695
      16A     -1.096301    17A     -1.013413    18A     -0.942109
      19A     -0.937410    20A     -0.840457    21A     -0.801015
      22A     -0.773203    23A     -0.666892    24A     -0.651561
      25A     -0.633211    26A     -0.612474    27A     -0.595244
      28A     -0.587747    29A     -0.567543    30A     -0.553484
      31A     -0.545524    32A     -0.537541    33A     -0.525927
      34A     -0.504587    35A     -0.492081    36A     -0.480569
      37A     -0.474329    38A     -0.474041    39A     -0.469668
      40A     -0.403959    41A     -0.359859

  @DF-RHF Final Energy:  -746.88004296936049

   => Energetics <=

    Nuclear Repulsion Energy =            576.8762045956078737
    One-Electron Energy =               -2168.6945688237551622
    Two-Electron Energy =                 844.9383212587869139
    Total Energy =                       -746.8800429693604883
  Basis Set: (AUG-CC-PVTZ AUX)
    Blend: AUG-CC-PVTZ-RI
    Molecular point group: c1

    Geometry (in Angstrom), charge = 0, multiplicity = 1:

       Center              X                  Y                   Z               Mass
    ------------   -----------------  -----------------  -----------------  -----------------
         S           -0.258822719066    -0.543385154005    -0.158655650901    31.972071174400
         O           -0.284530719066    -1.200290154005     1.210045349099    15.994914619570
         C            2.400263280934     0.121331845995     0.168254349099    12.000000000000
         C            1.028692280934     0.740218845995    -0.094390650901    12.000000000000
         C           -1.671780719066     0.596252845995    -0.229821650901    12.000000000000
         C            2.867842280934    -0.747574154005    -0.997932650901    12.000000000000
         C            3.412966280934     1.225810845995     0.465989349099    12.000000000000
         C           -2.974620719066    -0.189346154005    -0.146851650901    12.000000000000
         C           -4.111481119066     0.671427145995    -0.129462050901    12.000000000000
         H            2.297256280934    -0.509169154005     1.060332349099     1.007825032230
         H            0.757742280934     1.424232845995     0.719194349099     1.007825032230
         H            1.013643280934     1.287756845995    -1.046338650901     1.007825032230
         H           -1.583813719066     1.285202845995     0.618916349099     1.007825032230
         H           -1.599314719066     1.166135845995    -1.164509650901     1.007825032230
         H            2.955674280934    -0.148192154005    -1.911478650901     1.007825032230
         H            3.850271280934    -1.178737154005    -0.783245650901     1.007825032230
         H            2.178821280934    -1.573079154005    -1.197881650901     1.007825032230
         H            3.525512280934     1.891358845995    -0.397147650901     1.007825032230
         H            4.394974280934     0.798226845995     0.690963349099     1.007825032230
         H            3.102320280934     1.829863845995     1.324079349099     1.007825032230
         H           -3.040752719066    -0.878940154005    -0.996656650901     1.007825032230
         H           -2.947921719066    -0.801965154005     0.759834349099     1.007825032230
         H           -4.155942719066     1.407139845995     0.731787349099     1.007825032230
         H           -4.238790719066     1.342320845995    -1.035178650901     1.007825032230
         H           -5.117012719066     0.153423845995    -0.063060650901     1.007825032230

  Basis Set: AUG-CC-PVTZ
    Blend: AUG-CC-PVTZ
  Basis Set: (AUG-CC-PVTZ AUX)
    Blend: AUG-CC-PVTZ-JKFIT
	 Reference Energy          =    -746.8800429693604883 [Eh]
	 Singles Energy            =      -0.0000000000000000 [Eh]
	 Same-Spin Energy          =      -0.4282107038866474 [Eh]
	 Opposite-Spin Energy      =      -1.4593599772658812 [Eh]
	 Correlation Energy        =      -1.8875706811525286 [Eh]
	 Total Energy              =    -748.7676136505129989 [Eh]

	 ================> DF-SCS-MP2 Energies <==================
	-----------------------------------------------------------
	 SCS Same-Spin Scale       =       0.3333333333333333 [-]
	 SCS Opposite-Spin Scale   =       1.2000000000000000 [-]
	 SCS Same-Spin Energy      =      -0.1427369012955491 [Eh]
	 SCS Opposite-Spin Energy  =      -1.7512319727190573 [Eh]
	 SCS Correlation Energy    =      -1.8939688740146063 [Eh]
	 SCS Total Energy          =    -748.7740118433750922 [Eh]
	-----------------------------------------------------------

  Dipole Moment: [D]
     X:    -0.0206      Y:     2.8627      Z:    -2.2744     Total:     3.6563

*** Psi4 exiting successfully. Buy a developer a beer!
