                               Psi4 1.4a3.dev225

  ==> Input File <==

--------------------------------------------------------------------------
#psi4
#
memory 32 gb

molecule  {
0 1
  S       -0.2613620    -0.5930190    -0.1424790
  O       -0.2870700    -1.2499240     1.2262220
  C        2.3977240     0.0716980     0.1844310
  C        1.0261530     0.6905850    -0.0782140
  C       -1.6743200     0.5466190    -0.2136450
  C        2.8653030    -0.7972080    -0.9817560
  C        3.4247144     1.1121821     0.6280196
  C       -2.9771600    -0.2389800    -0.1306750
  C       -4.1937400     0.6821530    -0.1120660
  H        2.2947170    -0.5588030     1.0765090
  H        0.7552030     1.3745990     0.7353710
  H        1.0111040     1.2381230    -1.0301620
  H       -1.5863530     1.2355690     0.6350930
  H       -1.6018540     1.1165020    -1.1483330
  H        2.9531350    -0.1978260    -1.8953020
  H        3.8477320    -1.2283710    -0.7670690
  H        2.1762820    -1.6227130    -1.1817050
  H        3.5229730     1.8417250    -0.3809710
  H        4.3924350     0.7485930     0.7071400
  H        3.0997810     1.7802300     1.3402560
  H       -3.0432920    -0.9285740    -0.9804800
  H       -2.9504610    -0.8515990     0.7760110
  H       -4.1584820     1.3575060     0.7479640
  H       -4.2413300     1.2926870    -1.0190020
  H       -5.1195520     0.1037900    -0.0468840
units angstrom
no_reorient  #important for SAPT in psi4, default
symmetry c1  #important for SAPT in psi4, default
}

set PROPERTIES_ORIGIN ["COM"]
properties('MP2/aug-cc-pvtz', properties = ['dipole'])
--------------------------------------------------------------------------

    Molecular point group: c1
  Charge       = 0
  Multiplicity = 1
  Basis Set: AUG-CC-PVTZ
    Blend: AUG-CC-PVTZ
  Basis Set: (AUG-CC-PVTZ AUX)
    Blend: AUG-CC-PVTZ-JKFIT

    Orbital Energies [Eh]
    ---------------------

    Doubly Occupied:

       1A    -92.058630     2A    -20.497794     3A    -11.262382
       4A    -11.261212     5A    -11.239182     6A    -11.233953
       7A    -11.226007     8A    -11.224095     9A    -11.219479
      10A     -9.046032    11A     -6.727627    12A     -6.727449
      13A     -6.726151    14A     -1.317493    15A     -1.109571
      16A     -1.085448    17A     -1.008575    18A     -0.943492
      19A     -0.940516    20A     -0.846671    21A     -0.800930
      22A     -0.773325    23A     -0.664140    24A     -0.648569
      25A     -0.631206    26A     -0.627889    27A     -0.596637
      28A     -0.585019    29A     -0.569322    30A     -0.554253
      31A     -0.550271    32A     -0.520522    33A     -0.515342
      34A     -0.508512    35A     -0.500300    36A     -0.490014
      37A     -0.486058    38A     -0.479066    39A     -0.442426
      40A     -0.405143    41A     -0.359973

  @DF-RHF Final Energy:  -746.86881828129287

   => Energetics <=

    Nuclear Repulsion Energy =            574.9635048712805201
    One-Electron Energy =               -2164.8432945774075051
    Two-Electron Energy =                 843.0109714248341106
    Total Energy =                       -746.8688182812928744
  Basis Set: (AUG-CC-PVTZ AUX)
    Blend: AUG-CC-PVTZ-RI
    Molecular point group: c1

    Geometry (in Angstrom), charge = 0, multiplicity = 1:

       Center              X                  Y                   Z               Mass
    ------------   -----------------  -----------------  -----------------  -----------------
         S           -0.253520708071    -0.543090591536    -0.170573065614    31.972071174400
         O           -0.279228708071    -1.199995591536     1.198127934386    15.994914619570
         C            2.405565291929     0.121626408464     0.156336934386    12.000000000000
         C            1.033994291929     0.740513408464    -0.106308065614    12.000000000000
         C           -1.666478708071     0.596547408464    -0.241739065614    12.000000000000
         C            2.873144291929    -0.747279591536    -1.009850065614    12.000000000000
         C            3.432555691929     1.162110508464     0.599925534386    12.000000000000
         C           -2.969318708071    -0.189051591536    -0.158769065614    12.000000000000
         C           -4.185898708071     0.732081408464    -0.140160065614    12.000000000000
         H            2.302558291929    -0.508874591536     1.048414934386     1.007825032230
         H            0.763044291929     1.424527408464     0.707276934386     1.007825032230
         H            1.018945291929     1.288051408464    -1.058256065614     1.007825032230
         H           -1.578511708071     1.285497408464     0.606998934386     1.007825032230
         H           -1.594012708071     1.166430408464    -1.176427065614     1.007825032230
         H            2.960976291929    -0.147897591536    -1.923396065614     1.007825032230
         H            3.855573291929    -1.178442591536    -0.795163065614     1.007825032230
         H            2.184123291929    -1.572784591536    -1.209799065614     1.007825032230
         H            3.530814291929     1.891653408464    -0.409065065614     1.007825032230
         H            4.400276291929     0.798521408464     0.679045934386     1.007825032230
         H            3.107622291929     1.830158408464     1.312161934386     1.007825032230
         H           -3.035450708071    -0.878645591536    -1.008574065614     1.007825032230
         H           -2.942619708071    -0.801670591536     0.747916934386     1.007825032230
         H           -4.150640708071     1.407434408464     0.719869934386     1.007825032230
         H           -4.233488708071     1.342615408464    -1.047096065614     1.007825032230
         H           -5.111710708071     0.153718408464    -0.074978065614     1.007825032230

  Basis Set: AUG-CC-PVTZ
    Blend: AUG-CC-PVTZ
  Basis Set: (AUG-CC-PVTZ AUX)
    Blend: AUG-CC-PVTZ-JKFIT
	 Reference Energy          =    -746.8688182812928744 [Eh]
	 Singles Energy            =      -0.0000000000000000 [Eh]
	 Same-Spin Energy          =      -0.4275404195473698 [Eh]
	 Opposite-Spin Energy      =      -1.4592475893426968 [Eh]
	 Correlation Energy        =      -1.8867880088900666 [Eh]
	 Total Energy              =    -748.7556062901829819 [Eh]

	 ================> DF-SCS-MP2 Energies <==================
	-----------------------------------------------------------
	 SCS Same-Spin Scale       =       0.3333333333333333 [-]
	 SCS Opposite-Spin Scale   =       1.2000000000000000 [-]
	 SCS Same-Spin Energy      =      -0.1425134731824566 [Eh]
	 SCS Opposite-Spin Energy  =      -1.7510971072112362 [Eh]
	 SCS Correlation Energy    =      -1.8936105803936929 [Eh]
	 SCS Total Energy          =    -748.7624288616865442 [Eh]
	-----------------------------------------------------------

  Dipole Moment: [D]
     X:    -0.1151      Y:     2.7840      Z:    -2.1896     Total:     3.5438

*** Psi4 exiting successfully. Buy a developer a beer!
