                               Psi4 1.4a3.dev225

  ==> Input File <==

--------------------------------------------------------------------------
#psi4
#
memory 32 gb

molecule  {
0 1
  S       -0.2613620    -0.5930190    -0.1424790
  O       -0.2870700    -1.2499240     1.2262220
  C        2.3977240     0.0716980     0.1844310
  C        1.0261530     0.6905850    -0.0782140
  C       -1.6743200     0.5466190    -0.2136450
  C        2.8653030    -0.7972080    -0.9817560
  C        3.4104270     1.1761770     0.4821660
  C       -2.9771600    -0.2389800    -0.1306750
  C       -4.1937400     0.6821530    -0.1120660
  H        2.2947170    -0.5588030     1.0765090
  H        0.7552030     1.3745990     0.7353710
  H        1.0111040     1.2381230    -1.0301620
  H       -1.5863530     1.2355690     0.6350930
  H       -1.6018540     1.1165020    -1.1483330
  H        2.9531350    -0.1978260    -1.8953020
  H        3.8477320    -1.2283710    -0.7670690
  H        2.1762820    -1.6227130    -1.1817050
  H        3.5229730     1.8417250    -0.3809710
  H        4.3862795     0.8028014     0.8078708
  H        3.0997810     1.7802300     1.3402560
  H       -3.0432920    -0.9285740    -0.9804800
  H       -2.9504610    -0.8515990     0.7760110
  H       -4.1584820     1.3575060     0.7479640
  H       -4.2413300     1.2926870    -1.0190020
  H       -5.1195520     0.1037900    -0.0468840
units angstrom
no_reorient  #important for SAPT in psi4, default
symmetry c1  #important for SAPT in psi4, default
}

set PROPERTIES_ORIGIN ["COM"]
properties('MP2/aug-cc-pvtz', properties = ['dipole'])
--------------------------------------------------------------------------

    Molecular point group: c1
  Charge       = 0
  Multiplicity = 1
  Basis Set: AUG-CC-PVTZ
    Blend: AUG-CC-PVTZ
  Basis Set: (AUG-CC-PVTZ AUX)
    Blend: AUG-CC-PVTZ-JKFIT

    Orbital Energies [Eh]
    ---------------------

    Doubly Occupied:

       1A    -92.057801     2A    -20.497572     3A    -11.261864
       4A    -11.260071     5A    -11.238359     6A    -11.233565
       7A    -11.223813     8A    -11.220833     9A    -11.217519
      10A     -9.045246    11A     -6.726844    12A     -6.726658
      13A     -6.725370    14A     -1.317231    15A     -1.109512
      16A     -1.085057    17A     -1.007516    18A     -0.941828
      19A     -0.937722    20A     -0.845821    21A     -0.800401
      22A     -0.773214    23A     -0.664897    24A     -0.650801
      25A     -0.629969    26A     -0.608359    27A     -0.592338
      28A     -0.588523    29A     -0.566773    30A     -0.554486
      31A     -0.546955    32A     -0.530510    33A     -0.514072
      34A     -0.506062    35A     -0.499375    36A     -0.486343
      37A     -0.479985    38A     -0.475521    39A     -0.471955
      40A     -0.403942    41A     -0.359483

  @DF-RHF Final Energy:  -746.89045086781618

   => Energetics <=

    Nuclear Repulsion Energy =            575.1817690438177806
    One-Electron Energy =               -2165.3761121107349936
    Two-Electron Energy =                 843.3038921991009147
    Total Energy =                       -746.8904508678161847
  Basis Set: (AUG-CC-PVTZ AUX)
    Blend: AUG-CC-PVTZ-RI
    Molecular point group: c1

    Geometry (in Angstrom), charge = 0, multiplicity = 1:

       Center              X                  Y                   Z               Mass
    ------------   -----------------  -----------------  -----------------  -----------------
         S           -0.252321100777    -0.548645046521    -0.159439971969    31.972071174400
         O           -0.278029100777    -1.205550046521     1.209261028031    15.994914619570
         C            2.406764899223     0.116071953479     0.167470028031    12.000000000000
         C            1.035193899223     0.734958953479    -0.095174971969    12.000000000000
         C           -1.665279100777     0.590992953479    -0.230605971969    12.000000000000
         C            2.874343899223    -0.752834046521    -0.998716971969    12.000000000000
         C            3.419467899223     1.220550953479     0.465205028031    12.000000000000
         C           -2.968119100777    -0.194606046521    -0.147635971969    12.000000000000
         C           -4.184699100777     0.726526953479    -0.129026971969    12.000000000000
         H            2.303757899223    -0.514429046521     1.059548028031     1.007825032230
         H            0.764243899223     1.418972953479     0.718410028031     1.007825032230
         H            1.020144899223     1.282496953479    -1.047122971969     1.007825032230
         H           -1.577312100777     1.279942953479     0.618132028031     1.007825032230
         H           -1.592813100777     1.160875953479    -1.165293971969     1.007825032230
         H            2.962175899223    -0.153452046521    -1.912262971969     1.007825032230
         H            3.856772899223    -1.183997046521    -0.784029971969     1.007825032230
         H            2.185322899223    -1.578339046521    -1.198665971969     1.007825032230
         H            3.532013899223     1.886098953479    -0.397931971969     1.007825032230
         H            4.395320399223     0.847175353479     0.790909828031     1.007825032230
         H            3.108821899223     1.824603953479     1.323295028031     1.007825032230
         H           -3.034251100777    -0.884200046521    -0.997440971969     1.007825032230
         H           -2.941420100777    -0.807225046521     0.759050028031     1.007825032230
         H           -4.149441100777     1.401879953479     0.731003028031     1.007825032230
         H           -4.232289100777     1.337060953479    -1.035962971969     1.007825032230
         H           -5.110511100777     0.148163953479    -0.063844971969     1.007825032230

  Basis Set: AUG-CC-PVTZ
    Blend: AUG-CC-PVTZ
  Basis Set: (AUG-CC-PVTZ AUX)
    Blend: AUG-CC-PVTZ-JKFIT
	 Reference Energy          =    -746.8904508678161847 [Eh]
	 Singles Energy            =      -0.0000000000000000 [Eh]
	 Same-Spin Energy          =      -0.4272713634407211 [Eh]
	 Opposite-Spin Energy      =      -1.4582292187329962 [Eh]
	 Correlation Energy        =      -1.8855005821737172 [Eh]
	 Total Energy              =    -748.7759514499898614 [Eh]

	 ================> DF-SCS-MP2 Energies <==================
	-----------------------------------------------------------
	 SCS Same-Spin Scale       =       0.3333333333333333 [-]
	 SCS Opposite-Spin Scale   =       1.2000000000000000 [-]
	 SCS Same-Spin Energy      =      -0.1424237878135737 [Eh]
	 SCS Opposite-Spin Energy  =      -1.7498750624795953 [Eh]
	 SCS Correlation Energy    =      -1.8922988502931690 [Eh]
	 SCS Total Energy          =    -748.7827497181093577 [Eh]
	-----------------------------------------------------------

  Dipole Moment: [D]
     X:    -0.0591      Y:     2.8945      Z:    -2.2401     Total:     3.6606

*** Psi4 exiting successfully. Buy a developer a beer!
