                               Psi4 1.4a3.dev225

  ==> Input File <==

--------------------------------------------------------------------------
#psi4
#
memory 32 gb

molecule  {
0 1
  S       -0.2613620    -0.5930190    -0.1424790
  O       -0.2870700    -1.2499240     1.2262220
  C        2.3977240     0.0716980     0.1844310
  C        1.0474383     0.7388224    -0.0702925
  C       -1.6743200     0.5466190    -0.2136450
  C        2.8653030    -0.7972080    -0.9817560
  C        3.4104270     1.1761770     0.4821660
  C       -2.9771600    -0.2389800    -0.1306750
  C       -4.1937400     0.6821530    -0.1120660
  H        2.2947170    -0.5588030     1.0765090
  H        0.7552030     1.3745990     0.7353710
  H        1.0111040     1.2381230    -1.0301620
  H       -1.5863530     1.2355690     0.6350930
  H       -1.6018540     1.1165020    -1.1483330
  H        2.9531350    -0.1978260    -1.8953020
  H        3.8477320    -1.2283710    -0.7670690
  H        2.1762820    -1.6227130    -1.1817050
  H        3.5229730     1.8417250    -0.3809710
  H        4.3924350     0.7485930     0.7071400
  H        3.0997810     1.7802300     1.3402560
  H       -3.0432920    -0.9285740    -0.9804800
  H       -2.9504610    -0.8515990     0.7760110
  H       -4.1584820     1.3575060     0.7479640
  H       -4.2413300     1.2926870    -1.0190020
  H       -5.1195520     0.1037900    -0.0468840
units angstrom
no_reorient  #important for SAPT in psi4, default
symmetry c1  #important for SAPT in psi4, default
}

set PROPERTIES_ORIGIN ["COM"]
properties('MP2/aug-cc-pvtz', properties = ['dipole'])
--------------------------------------------------------------------------

    Molecular point group: c1
  Charge       = 0
  Multiplicity = 1
  Basis Set: AUG-CC-PVTZ
    Blend: AUG-CC-PVTZ
  Basis Set: (AUG-CC-PVTZ AUX)
    Blend: AUG-CC-PVTZ-JKFIT

    Orbital Energies [Eh]
    ---------------------

    Doubly Occupied:

       1A    -92.056388     2A    -20.497436     3A    -11.261042
       4A    -11.259164     5A    -11.237703     6A    -11.232904
       7A    -11.223326     8A    -11.220354     9A    -11.218477
      10A     -9.043524    11A     -6.725050    12A     -6.724837
      13A     -6.723605    14A     -1.315586    15A     -1.108623
      16A     -1.084585    17A     -1.004018    18A     -0.942131
      19A     -0.937135    20A     -0.844951    21A     -0.798407
      22A     -0.776013    23A     -0.666400    24A     -0.650055
      25A     -0.627673    26A     -0.611905    27A     -0.592903
      28A     -0.587956    29A     -0.566539    30A     -0.554274
      31A     -0.545441    32A     -0.533307    33A     -0.513230
      34A     -0.507600    35A     -0.499037    36A     -0.485527
      37A     -0.482685    38A     -0.476774    39A     -0.472474
      40A     -0.398389    41A     -0.357366

  @DF-RHF Final Energy:  -746.88959311771623

   => Energetics <=

    Nuclear Repulsion Energy =            574.4288284626452423
    One-Electron Energy =               -2163.9072569484574160
    Two-Electron Energy =                 842.5888353680959426
    Total Energy =                       -746.8895931177162311
  Basis Set: (AUG-CC-PVTZ AUX)
    Blend: AUG-CC-PVTZ-RI
    Molecular point group: c1

    Geometry (in Angstrom), charge = 0, multiplicity = 1:

       Center              X                  Y                   Z               Mass
    ------------   -----------------  -----------------  -----------------  -----------------
         S           -0.254087752168    -0.552184843121    -0.159396343592    31.972071174400
         O           -0.279795752168    -1.209089843121     1.209304656408    15.994914619570
         C            2.404998247832     0.112532156879     0.167513656408    12.000000000000
         C            1.054712547832     0.779656556879    -0.087209843592    12.000000000000
         C           -1.667045752168     0.587453156879    -0.230562343592    12.000000000000
         C            2.872577247832    -0.756373843121    -0.998673343592    12.000000000000
         C            3.417701247832     1.217011156879     0.465248656408    12.000000000000
         C           -2.969885752168    -0.198145843121    -0.147592343592    12.000000000000
         C           -4.186465752168     0.722987156879    -0.128983343592    12.000000000000
         H            2.301991247832    -0.517968843121     1.059591656408     1.007825032230
         H            0.762477247832     1.415433156879     0.718453656408     1.007825032230
         H            1.018378247832     1.278957156879    -1.047079343592     1.007825032230
         H           -1.579078752168     1.276403156879     0.618175656408     1.007825032230
         H           -1.594579752168     1.157336156879    -1.165250343592     1.007825032230
         H            2.960409247832    -0.156991843121    -1.912219343592     1.007825032230
         H            3.855006247832    -1.187536843121    -0.783986343592     1.007825032230
         H            2.183556247832    -1.581878843121    -1.198622343592     1.007825032230
         H            3.530247247832     1.882559156879    -0.397888343592     1.007825032230
         H            4.399709247832     0.789427156879     0.690222656408     1.007825032230
         H            3.107055247832     1.821064156879     1.323338656408     1.007825032230
         H           -3.036017752168    -0.887739843121    -0.997397343592     1.007825032230
         H           -2.943186752168    -0.810764843121     0.759093656408     1.007825032230
         H           -4.151207752168     1.398340156879     0.731046656408     1.007825032230
         H           -4.234055752168     1.333521156879    -1.035919343592     1.007825032230
         H           -5.112277752168     0.144624156879    -0.063801343592     1.007825032230

  Basis Set: AUG-CC-PVTZ
    Blend: AUG-CC-PVTZ
  Basis Set: (AUG-CC-PVTZ AUX)
    Blend: AUG-CC-PVTZ-JKFIT
	 Reference Energy          =    -746.8895931177162311 [Eh]
	 Singles Energy            =      -0.0000000000000000 [Eh]
	 Same-Spin Energy          =      -0.4272494738997176 [Eh]
	 Opposite-Spin Energy      =      -1.4586045776687602 [Eh]
	 Correlation Energy        =      -1.8858540515684776 [Eh]
	 Total Energy              =    -748.7754471692846892 [Eh]

	 ================> DF-SCS-MP2 Energies <==================
	-----------------------------------------------------------
	 SCS Same-Spin Scale       =       0.3333333333333333 [-]
	 SCS Opposite-Spin Scale   =       1.2000000000000000 [-]
	 SCS Same-Spin Energy      =      -0.1424164912999059 [Eh]
	 SCS Opposite-Spin Energy  =      -1.7503254932025121 [Eh]
	 SCS Correlation Energy    =      -1.8927419845024178 [Eh]
	 SCS Total Energy          =    -748.7823351022186671 [Eh]
	-----------------------------------------------------------

  Dipole Moment: [D]
     X:    -0.0661      Y:     2.8549      Z:    -2.2725     Total:     3.6496

*** Psi4 exiting successfully. Buy a developer a beer!
