                               Psi4 1.4a3.dev225

  ==> Input File <==

--------------------------------------------------------------------------
#psi4
#
memory 32 gb

molecule  {
0 1
  S       -0.2613620    -0.5930190    -0.1424790
  O       -0.3304444    -1.2217890     1.2378845
  C        2.3977240     0.0716980     0.1844310
  C        1.0261530     0.6905850    -0.0782140
  C       -1.6743200     0.5466190    -0.2136450
  C        2.8653030    -0.7972080    -0.9817560
  C        3.4104270     1.1761770     0.4821660
  C       -2.9771600    -0.2389800    -0.1306750
  C       -4.1937400     0.6821530    -0.1120660
  H        2.2947170    -0.5588030     1.0765090
  H        0.7552030     1.3745990     0.7353710
  H        1.0111040     1.2381230    -1.0301620
  H       -1.5863530     1.2355690     0.6350930
  H       -1.6018540     1.1165020    -1.1483330
  H        2.9531350    -0.1978260    -1.8953020
  H        3.8477320    -1.2283710    -0.7670690
  H        2.1762820    -1.6227130    -1.1817050
  H        3.5229730     1.8417250    -0.3809710
  H        4.3924350     0.7485930     0.7071400
  H        3.0997810     1.7802300     1.3402560
  H       -3.0432920    -0.9285740    -0.9804800
  H       -2.9504610    -0.8515990     0.7760110
  H       -4.1584820     1.3575060     0.7479640
  H       -4.2413300     1.2926870    -1.0190020
  H       -5.1195520     0.1037900    -0.0468840
units angstrom
no_reorient  #important for SAPT in psi4, default
symmetry c1  #important for SAPT in psi4, default
}

set PROPERTIES_ORIGIN ["COM"]
properties('MP2/aug-cc-pvtz', properties = ['dipole'])
--------------------------------------------------------------------------

    Molecular point group: c1
  Charge       = 0
  Multiplicity = 1
  Basis Set: AUG-CC-PVTZ
    Blend: AUG-CC-PVTZ
  Basis Set: (AUG-CC-PVTZ AUX)
    Blend: AUG-CC-PVTZ-JKFIT

    Orbital Energies [Eh]
    ---------------------

    Doubly Occupied:

       1A    -92.057880     2A    -20.496361     3A    -11.260707
       4A    -11.260125     5A    -11.238528     6A    -11.232384
       7A    -11.223025     8A    -11.221520     9A    -11.218480
      10A     -9.045349    11A     -6.726931    12A     -6.726751
      13A     -6.725454    14A     -1.316969    15A     -1.109968
      16A     -1.084021    17A     -1.007357    18A     -0.941667
      19A     -0.937828    20A     -0.845387    21A     -0.799680
      22A     -0.773647    23A     -0.664053    24A     -0.649274
      25A     -0.629565    26A     -0.611389    27A     -0.592929
      28A     -0.587787    29A     -0.566217    30A     -0.553492
      31A     -0.545670    32A     -0.533456    33A     -0.513732
      34A     -0.506320    35A     -0.498510    36A     -0.485209
      37A     -0.480323    38A     -0.475708    39A     -0.473256
      40A     -0.402623    41A     -0.360159

  @DF-RHF Final Energy:  -746.89160829501839

   => Energetics <=

    Nuclear Repulsion Energy =            575.3941172114037954
    One-Electron Energy =               -2165.8120677982137749
    Two-Electron Energy =                 843.5263422917917069
    Total Energy =                       -746.8916082950183863
  Basis Set: (AUG-CC-PVTZ AUX)
    Blend: AUG-CC-PVTZ-RI
    Molecular point group: c1

    Geometry (in Angstrom), charge = 0, multiplicity = 1:

       Center              X                  Y                   Z               Mass
    ------------   -----------------  -----------------  -----------------  -----------------
         S           -0.247678275420    -0.551314899335    -0.160014085109    31.972071174400
         O           -0.316760675420    -1.180084899335     1.220349414891    15.994914619570
         C            2.411407724580     0.113402100665     0.166895914891    12.000000000000
         C            1.039836724580     0.732289100665    -0.095749085109    12.000000000000
         C           -1.660636275420     0.588323100665    -0.231180085109    12.000000000000
         C            2.878986724580    -0.755503899335    -0.999291085109    12.000000000000
         C            3.424110724580     1.217881100665     0.464630914891    12.000000000000
         C           -2.963476275420    -0.197275899335    -0.148210085109    12.000000000000
         C           -4.180056275420     0.723857100665    -0.129601085109    12.000000000000
         H            2.308400724580    -0.517098899335     1.058973914891     1.007825032230
         H            0.768886724580     1.416303100665     0.717835914891     1.007825032230
         H            1.024787724580     1.279827100665    -1.047697085109     1.007825032230
         H           -1.572669275420     1.277273100665     0.617557914891     1.007825032230
         H           -1.588170275420     1.158206100665    -1.165868085109     1.007825032230
         H            2.966818724580    -0.156121899335    -1.912837085109     1.007825032230
         H            3.861415724580    -1.186666899335    -0.784604085109     1.007825032230
         H            2.189965724580    -1.581008899335    -1.199240085109     1.007825032230
         H            3.536656724580     1.883429100665    -0.398506085109     1.007825032230
         H            4.406118724580     0.790297100665     0.689604914891     1.007825032230
         H            3.113464724580     1.821934100665     1.322720914891     1.007825032230
         H           -3.029608275420    -0.886869899335    -0.998015085109     1.007825032230
         H           -2.936777275420    -0.809894899335     0.758475914891     1.007825032230
         H           -4.144798275420     1.399210100665     0.730428914891     1.007825032230
         H           -4.227646275420     1.334391100665    -1.036537085109     1.007825032230
         H           -5.105868275420     0.145494100665    -0.064419085109     1.007825032230

  Basis Set: AUG-CC-PVTZ
    Blend: AUG-CC-PVTZ
  Basis Set: (AUG-CC-PVTZ AUX)
    Blend: AUG-CC-PVTZ-JKFIT
	 Reference Energy          =    -746.8916082950183863 [Eh]
	 Singles Energy            =      -0.0000000000000000 [Eh]
	 Same-Spin Energy          =      -0.4272714222701165 [Eh]
	 Opposite-Spin Energy      =      -1.4582598922093406 [Eh]
	 Correlation Energy        =      -1.8855313144794570 [Eh]
	 Total Energy              =    -748.7771396094977945 [Eh]

	 ================> DF-SCS-MP2 Energies <==================
	-----------------------------------------------------------
	 SCS Same-Spin Scale       =       0.3333333333333333 [-]
	 SCS Opposite-Spin Scale   =       1.2000000000000000 [-]
	 SCS Same-Spin Energy      =      -0.1424238074233722 [Eh]
	 SCS Opposite-Spin Energy  =      -1.7499118706512087 [Eh]
	 SCS Correlation Energy    =      -1.8923356780745808 [Eh]
	 SCS Total Energy          =    -748.7839439730929598 [Eh]
	-----------------------------------------------------------

  Dipole Moment: [D]
     X:     0.0626      Y:     2.8348      Z:    -2.3167     Total:     3.6616

*** Psi4 exiting successfully. Buy a developer a beer!
