                               Psi4 1.4a3.dev225

  ==> Input File <==

--------------------------------------------------------------------------
#psi4
#
memory 32 gb

molecule  {
0 1
  S       -0.2613620    -0.5930190    -0.1424790
  O       -0.2870700    -1.2499240     1.2262220
  C        2.3977240     0.0716980     0.1844310
  C        1.0261530     0.6905850    -0.0782140
  C       -1.6743200     0.5466190    -0.2136450
  C        2.8653030    -0.7972080    -0.9817560
  C        3.4104270     1.1761770     0.4821660
  C       -2.9771600    -0.2389800    -0.1306750
  C       -4.1937400     0.6821530    -0.1120660
  H        2.2947170    -0.5588030     1.0765090
  H        0.7552030     1.3745990     0.7353710
  H        1.0111040     1.2381230    -1.0301620
  H       -1.5863530     1.2355690     0.6350930
  H       -1.6018540     1.1165020    -1.1483330
  H        2.9531350    -0.1978260    -1.8953020
  H        3.8477320    -1.2283710    -0.7670690
  H        2.2392809    -1.5472351    -1.1634232
  H        3.5229730     1.8417250    -0.3809710
  H        4.3924350     0.7485930     0.7071400
  H        3.0997810     1.7802300     1.3402560
  H       -3.0432920    -0.9285740    -0.9804800
  H       -2.9504610    -0.8515990     0.7760110
  H       -4.1584820     1.3575060     0.7479640
  H       -4.2413300     1.2926870    -1.0190020
  H       -5.1195520     0.1037900    -0.0468840
units angstrom
no_reorient  #important for SAPT in psi4, default
symmetry c1  #important for SAPT in psi4, default
}

set PROPERTIES_ORIGIN ["COM"]
properties('MP2/aug-cc-pvtz', properties = ['dipole'])
--------------------------------------------------------------------------

    Molecular point group: c1
  Charge       = 0
  Multiplicity = 1
  Basis Set: AUG-CC-PVTZ
    Blend: AUG-CC-PVTZ
  Basis Set: (AUG-CC-PVTZ AUX)
    Blend: AUG-CC-PVTZ-JKFIT

    Orbital Energies [Eh]
    ---------------------

    Doubly Occupied:

       1A    -92.057900     2A    -20.497655     3A    -11.262014
       4A    -11.259723     5A    -11.236854     6A    -11.233634
       7A    -11.223873     8A    -11.220216     9A    -11.205510
      10A     -9.045353    11A     -6.726959    12A     -6.726769
      13A     -6.725488    14A     -1.317327    15A     -1.110308
      16A     -1.085442    17A     -1.008325    18A     -0.946818
      19A     -0.940904    20A     -0.846123    21A     -0.800541
      22A     -0.774436    23A     -0.665092    24A     -0.651414
      25A     -0.630811    26A     -0.613690    27A     -0.597655
      28A     -0.587885    29A     -0.567780    30A     -0.554520
      31A     -0.546151    32A     -0.533203    33A     -0.517051
      34A     -0.506487    35A     -0.499527    36A     -0.486499
      37A     -0.483351    38A     -0.475331    39A     -0.471887
      40A     -0.403590    41A     -0.359841

  @DF-RHF Final Energy:  -746.88569649638157

   => Energetics <=

    Nuclear Repulsion Energy =            575.6616429373882511
    One-Electron Energy =               -2166.2868129413227507
    Two-Electron Energy =                 843.7394735075529297
    Total Energy =                       -746.8856964963815699
  Basis Set: (AUG-CC-PVTZ AUX)
    Blend: AUG-CC-PVTZ-RI
    Molecular point group: c1

    Geometry (in Angstrom), charge = 0, multiplicity = 1:

       Center              X                  Y                   Z               Mass
    ------------   -----------------  -----------------  -----------------  -----------------
         S           -0.252791723415    -0.548789793756    -0.158878874398    31.972071174400
         O           -0.278499723415    -1.205694793756     1.209822125602    15.994914619570
         C            2.406294276585     0.115927206244     0.168031125602    12.000000000000
         C            1.034723276585     0.734814206244    -0.094613874398    12.000000000000
         C           -1.665749723415     0.590848206244    -0.230044874398    12.000000000000
         C            2.873873276585    -0.752978793756    -0.998155874398    12.000000000000
         C            3.418997276585     1.220406206244     0.465766125602    12.000000000000
         C           -2.968589723415    -0.194750793756    -0.147074874398    12.000000000000
         C           -4.185169723415     0.726382206244    -0.128465874398    12.000000000000
         H            2.303287276585    -0.514573793756     1.060109125602     1.007825032230
         H            0.763773276585     1.418828206244     0.718971125602     1.007825032230
         H            1.019674276585     1.282352206244    -1.046561874398     1.007825032230
         H           -1.577782723415     1.279798206244     0.618693125602     1.007825032230
         H           -1.593283723415     1.160731206244    -1.164732874398     1.007825032230
         H            2.961705276585    -0.153596793756    -1.911701874398     1.007825032230
         H            3.856302276585    -1.184141793756    -0.783468874398     1.007825032230
         H            2.247851176585    -1.503005893756    -1.179823074398     1.007825032230
         H            3.531543276585     1.885954206244    -0.397370874398     1.007825032230
         H            4.401005276585     0.792822206244     0.690740125602     1.007825032230
         H            3.108351276585     1.824459206244     1.323856125602     1.007825032230
         H           -3.034721723415    -0.884344793756    -0.996879874398     1.007825032230
         H           -2.941890723415    -0.807369793756     0.759611125602     1.007825032230
         H           -4.149911723415     1.401735206244     0.731564125602     1.007825032230
         H           -4.232759723415     1.336916206244    -1.035401874398     1.007825032230
         H           -5.110981723415     0.148019206244    -0.063283874398     1.007825032230

  Basis Set: AUG-CC-PVTZ
    Blend: AUG-CC-PVTZ
  Basis Set: (AUG-CC-PVTZ AUX)
    Blend: AUG-CC-PVTZ-JKFIT
	 Reference Energy          =    -746.8856964963815699 [Eh]
	 Singles Energy            =      -0.0000000000000000 [Eh]
	 Same-Spin Energy          =      -0.4272039299226871 [Eh]
	 Opposite-Spin Energy      =      -1.4576696312175619 [Eh]
	 Correlation Energy        =      -1.8848735611402490 [Eh]
	 Total Energy              =    -748.7705700575218088 [Eh]

	 ================> DF-SCS-MP2 Energies <==================
	-----------------------------------------------------------
	 SCS Same-Spin Scale       =       0.3333333333333333 [-]
	 SCS Opposite-Spin Scale   =       1.2000000000000000 [-]
	 SCS Same-Spin Energy      =      -0.1424013099742290 [Eh]
	 SCS Opposite-Spin Energy  =      -1.7492035574610743 [Eh]
	 SCS Correlation Energy    =      -1.8916048674353032 [Eh]
	 SCS Total Energy          =    -748.7773013638168322 [Eh]
	-----------------------------------------------------------

  Dipole Moment: [D]
     X:    -0.0822      Y:     2.8506      Z:    -2.2952     Total:     3.6607

*** Psi4 exiting successfully. Buy a developer a beer!
