                               Psi4 1.4a3.dev225

  ==> Input File <==

--------------------------------------------------------------------------
#psi4
#
memory 32 gb

molecule  {
0 1
  S       -0.2613620    -0.5930190    -0.1424790
  O       -0.2870700    -1.2499240     1.2262220
  C        2.3977240     0.0716980     0.1844310
  C        1.0261530     0.6905850    -0.0782140
  C       -1.6743200     0.5466190    -0.2136450
  C        2.8653030    -0.7972080    -0.9817560
  C        3.4104270     1.1761770     0.4821660
  C       -2.9771600    -0.2389800    -0.1306750
  C       -4.1937400     0.6821530    -0.1120660
  H        2.2947170    -0.5588030     1.0765090
  H        0.7552030     1.3745990     0.7353710
  H        1.0111040     1.2381230    -1.0301620
  H       -1.5863530     1.2355690     0.6350930
  H       -1.6018540     1.1165020    -1.1483330
  H        2.9531350    -0.1978260    -1.8953020
  H        3.8477320    -1.2283710    -0.7670690
  H        2.1762820    -1.6227130    -1.1817050
  H        3.5229730     1.8417250    -0.3809710
  H        4.3924350     0.7485930     0.7071400
  H        3.0997810     1.7802300     1.3402560
  H       -3.0432920    -0.9285740    -0.9804800
  H       -2.9504610    -0.8515990     0.7760110
  H       -4.1520367     1.4809626     0.9051802
  H       -4.2413300     1.2926870    -1.0190020
  H       -5.1195520     0.1037900    -0.0468840
units angstrom
no_reorient  #important for SAPT in psi4, default
symmetry c1  #important for SAPT in psi4, default
}

set PROPERTIES_ORIGIN ["COM"]
properties('MP2/aug-cc-pvtz', properties = ['dipole'])
--------------------------------------------------------------------------

    Molecular point group: c1
  Charge       = 0
  Multiplicity = 1
  Basis Set: AUG-CC-PVTZ
    Blend: AUG-CC-PVTZ
  Basis Set: (AUG-CC-PVTZ AUX)
    Blend: AUG-CC-PVTZ-JKFIT

    Orbital Energies [Eh]
    ---------------------

    Doubly Occupied:

       1A    -92.057926     2A    -20.497785     3A    -11.262236
       4A    -11.260110     5A    -11.247352     6A    -11.237936
       7A    -11.236446     8A    -11.221177     9A    -11.217981
      10A     -9.045394    11A     -6.726997    12A     -6.726809
      13A     -6.725523    14A     -1.317452    15A     -1.109848
      16A     -1.084690    17A     -1.005809    18A     -0.937983
      19A     -0.937257    20A     -0.840977    21A     -0.798467
      22A     -0.773125    23A     -0.664299    24A     -0.647859
      25A     -0.629788    26A     -0.611600    27A     -0.594603
      28A     -0.583708    29A     -0.566182    30A     -0.546143
      31A     -0.543742    32A     -0.533098    33A     -0.515948
      34A     -0.505963    35A     -0.495295    36A     -0.480406
      37A     -0.478464    38A     -0.473668    39A     -0.469366
      40A     -0.404027    41A     -0.359660

  @DF-RHF Final Energy:  -746.87200356458948

   => Energetics <=

    Nuclear Repulsion Energy =            574.5567328622366858
    One-Electron Energy =               -2164.1112795432077291
    Two-Electron Energy =                 842.6825431163815665
    Total Energy =                       -746.8720035645894768
  Basis Set: (AUG-CC-PVTZ AUX)
    Blend: AUG-CC-PVTZ-RI
    Molecular point group: c1

    Geometry (in Angstrom), charge = 0, multiplicity = 1:

       Center              X                  Y                   Z               Mass
    ------------   -----------------  -----------------  -----------------  -----------------
         S           -0.252406854131    -0.549116307505    -0.159824377126    31.972071174400
         O           -0.278114854131    -1.206021307505     1.208876622874    15.994914619570
         C            2.406679145869     0.115600692495     0.167085622874    12.000000000000
         C            1.035108145869     0.734487692495    -0.095559377126    12.000000000000
         C           -1.665364854131     0.590521692495    -0.230990377126    12.000000000000
         C            2.874258145869    -0.753305307505    -0.999101377126    12.000000000000
         C            3.419382145869     1.220079692495     0.464820622874    12.000000000000
         C           -2.968204854131    -0.195077307505    -0.148020377126    12.000000000000
         C           -4.184784854131     0.726055692495    -0.129411377126    12.000000000000
         H            2.303672145869    -0.514900307505     1.059163622874     1.007825032230
         H            0.764158145869     1.418501692495     0.718025622874     1.007825032230
         H            1.020059145869     1.282025692495    -1.047507377126     1.007825032230
         H           -1.577397854131     1.279471692495     0.617747622874     1.007825032230
         H           -1.592898854131     1.160404692495    -1.165678377126     1.007825032230
         H            2.962090145869    -0.153923307505    -1.912647377126     1.007825032230
         H            3.856687145869    -1.184468307505    -0.784414377126     1.007825032230
         H            2.185237145869    -1.578810307505    -1.199050377126     1.007825032230
         H            3.531928145869     1.885627692495    -0.398316377126     1.007825032230
         H            4.401390145869     0.792495692495     0.689794622874     1.007825032230
         H            3.108736145869     1.824132692495     1.322910622874     1.007825032230
         H           -3.034336854131    -0.884671307505    -0.997825377126     1.007825032230
         H           -2.941505854131    -0.807696307505     0.758665622874     1.007825032230
         H           -4.143081554131     1.524865292495     0.887834822874     1.007825032230
         H           -4.232374854131     1.336589692495    -1.036347377126     1.007825032230
         H           -5.110596854131     0.147692692495    -0.064229377126     1.007825032230

  Basis Set: AUG-CC-PVTZ
    Blend: AUG-CC-PVTZ
  Basis Set: (AUG-CC-PVTZ AUX)
    Blend: AUG-CC-PVTZ-JKFIT
	 Reference Energy          =    -746.8720035645894768 [Eh]
	 Singles Energy            =      -0.0000000000000000 [Eh]
	 Same-Spin Energy          =      -0.4271532044488969 [Eh]
	 Opposite-Spin Energy      =      -1.4596600596868239 [Eh]
	 Correlation Energy        =      -1.8868132641357209 [Eh]
	 Total Energy              =    -748.7588168287252302 [Eh]

	 ================> DF-SCS-MP2 Energies <==================
	-----------------------------------------------------------
	 SCS Same-Spin Scale       =       0.3333333333333333 [-]
	 SCS Opposite-Spin Scale   =       1.2000000000000000 [-]
	 SCS Same-Spin Energy      =      -0.1423844014829656 [Eh]
	 SCS Opposite-Spin Energy  =      -1.7515920716241886 [Eh]
	 SCS Correlation Energy    =      -1.8939764731071542 [Eh]
	 SCS Total Energy          =    -748.7659800376966359 [Eh]
	-----------------------------------------------------------

  Dipole Moment: [D]
     X:    -0.0192      Y:     2.7821      Z:    -2.3826     Total:     3.6630

*** Psi4 exiting successfully. Buy a developer a beer!
