                               Psi4 1.4a3.dev225

  ==> Input File <==

--------------------------------------------------------------------------
#psi4
#
memory 32 gb

molecule  {
0 1
  S       -0.2613620    -0.5930190    -0.1424790
  O       -0.2870700    -1.2499240     1.2262220
  C        2.3977240     0.0716980     0.1844310
  C        1.0261530     0.6905850    -0.0782140
  C       -1.6743200     0.5466190    -0.2136450
  C        2.8653030    -0.7972080    -0.9817560
  C        3.4104270     1.1761770     0.4821660
  C       -2.9771600    -0.2389800    -0.1306750
  C       -4.1937400     0.6821530    -0.1120660
  H        2.2965946    -0.5473106     1.0602487
  H        0.7552030     1.3745990     0.7353710
  H        1.0111040     1.2381230    -1.0301620
  H       -1.5863530     1.2355690     0.6350930
  H       -1.6018540     1.1165020    -1.1483330
  H        2.9531350    -0.1978260    -1.8953020
  H        3.8477320    -1.2283710    -0.7670690
  H        2.1762820    -1.6227130    -1.1817050
  H        3.5229730     1.8417250    -0.3809710
  H        4.3924350     0.7485930     0.7071400
  H        3.0997810     1.7802300     1.3402560
  H       -3.0432920    -0.9285740    -0.9804800
  H       -2.9504610    -0.8515990     0.7760110
  H       -4.1584820     1.3575060     0.7479640
  H       -4.2413300     1.2926870    -1.0190020
  H       -5.1195520     0.1037900    -0.0468840
units angstrom
no_reorient  #important for SAPT in psi4, default
symmetry c1  #important for SAPT in psi4, default
}

set PROPERTIES_ORIGIN ["COM"]
properties('MP2/aug-cc-pvtz', properties = ['dipole'])
--------------------------------------------------------------------------

    Molecular point group: c1
  Charge       = 0
  Multiplicity = 1
  Basis Set: AUG-CC-PVTZ
    Blend: AUG-CC-PVTZ
  Basis Set: (AUG-CC-PVTZ AUX)
    Blend: AUG-CC-PVTZ-JKFIT

    Orbital Energies [Eh]
    ---------------------

    Doubly Occupied:

       1A    -92.057576     2A    -20.497491     3A    -11.261721
       4A    -11.259691     5A    -11.235441     6A    -11.233465
       7A    -11.223743     8A    -11.220941     9A    -11.217663
      10A     -9.045035    11A     -6.726633    12A     -6.726446
      13A     -6.725161    14A     -1.317140    15A     -1.110164
      16A     -1.085200    17A     -1.007719    18A     -0.941891
      19A     -0.937136    20A     -0.845831    21A     -0.800414
      22A     -0.775293    23A     -0.664702    24A     -0.649721
      25A     -0.629701    26A     -0.611099    27A     -0.593099
      28A     -0.588068    29A     -0.566414    30A     -0.554223
      31A     -0.545139    32A     -0.533165    33A     -0.514012
      34A     -0.506427    35A     -0.499398    36A     -0.486107
      37A     -0.480043    38A     -0.476703    39A     -0.473892
      40A     -0.403490    41A     -0.359360

  @DF-RHF Final Energy:  -746.89175017216951

   => Energetics <=

    Nuclear Repulsion Energy =            575.3677586146918657
    One-Electron Energy =               -2165.7459045175014580
    Two-Electron Energy =                 843.4863957306400835
    Total Energy =                       -746.8917501721695089
  Basis Set: (AUG-CC-PVTZ AUX)
    Blend: AUG-CC-PVTZ-RI
    Molecular point group: c1

    Geometry (in Angstrom), charge = 0, multiplicity = 1:

       Center              X                  Y                   Z               Mass
    ------------   -----------------  -----------------  -----------------  -----------------
         S           -0.252375769152    -0.548354347497    -0.158643801948    31.972071174400
         O           -0.278083769152    -1.205259347497     1.210057198052    15.994914619570
         C            2.406710230848     0.116362652503     0.168266198052    12.000000000000
         C            1.035139230848     0.735249652503    -0.094378801948    12.000000000000
         C           -1.665333769152     0.591283652503    -0.229809801948    12.000000000000
         C            2.874289230848    -0.752543347497    -0.997920801948    12.000000000000
         C            3.419413230848     1.220841652503     0.466001198052    12.000000000000
         C           -2.968173769152    -0.194315347497    -0.146839801948    12.000000000000
         C           -4.184753769152     0.726817652503    -0.128230801948    12.000000000000
         H            2.305580830848    -0.502645947497     1.044083898052     1.007825032230
         H            0.764189230848     1.419263652503     0.719206198052     1.007825032230
         H            1.020090230848     1.282787652503    -1.046326801948     1.007825032230
         H           -1.577366769152     1.280233652503     0.618928198052     1.007825032230
         H           -1.592867769152     1.161166652503    -1.164497801948     1.007825032230
         H            2.962121230848    -0.153161347497    -1.911466801948     1.007825032230
         H            3.856718230848    -1.183706347497    -0.783233801948     1.007825032230
         H            2.185268230848    -1.578048347497    -1.197869801948     1.007825032230
         H            3.531959230848     1.886389652503    -0.397135801948     1.007825032230
         H            4.401421230848     0.793257652503     0.690975198052     1.007825032230
         H            3.108767230848     1.824894652503     1.324091198052     1.007825032230
         H           -3.034305769152    -0.883909347497    -0.996644801948     1.007825032230
         H           -2.941474769152    -0.806934347497     0.759846198052     1.007825032230
         H           -4.149495769152     1.402170652503     0.731799198052     1.007825032230
         H           -4.232343769152     1.337351652503    -1.035166801948     1.007825032230
         H           -5.110565769152     0.148454652503    -0.063048801948     1.007825032230

  Basis Set: AUG-CC-PVTZ
    Blend: AUG-CC-PVTZ
  Basis Set: (AUG-CC-PVTZ AUX)
    Blend: AUG-CC-PVTZ-JKFIT
	 Reference Energy          =    -746.8917501721695089 [Eh]
	 Singles Energy            =      -0.0000000000000000 [Eh]
	 Same-Spin Energy          =      -0.4272252938075160 [Eh]
	 Opposite-Spin Energy      =      -1.4580832970024202 [Eh]
	 Correlation Energy        =      -1.8853085908099363 [Eh]
	 Total Energy              =    -748.7770587629794363 [Eh]

	 ================> DF-SCS-MP2 Energies <==================
	-----------------------------------------------------------
	 SCS Same-Spin Scale       =       0.3333333333333333 [-]
	 SCS Opposite-Spin Scale   =       1.2000000000000000 [-]
	 SCS Same-Spin Energy      =      -0.1424084312691720 [Eh]
	 SCS Opposite-Spin Energy  =      -1.7496999564029043 [Eh]
	 SCS Correlation Energy    =      -1.8921083876720763 [Eh]
	 SCS Total Energy          =    -748.7838585598416330 [Eh]
	-----------------------------------------------------------

  Dipole Moment: [D]
     X:    -0.0515      Y:     2.8846      Z:    -2.2734     Total:     3.6732

*** Psi4 exiting successfully. Buy a developer a beer!
