                               Psi4 1.4a3.dev225

  ==> Input File <==

--------------------------------------------------------------------------
#psi4
#
memory 32 gb

molecule  {
0 1
  S       -0.2613620    -0.5930190    -0.1424790
  O       -0.2870700    -1.2499240     1.2262220
  C        2.4147718     0.0921776     0.1382508
  C        1.0261530     0.6905850    -0.0782140
  C       -1.6743200     0.5466190    -0.2136450
  C        2.8653030    -0.7972080    -0.9817560
  C        3.4104270     1.1761770     0.4821660
  C       -2.9771600    -0.2389800    -0.1306750
  C       -4.1937400     0.6821530    -0.1120660
  H        2.2947170    -0.5588030     1.0765090
  H        0.7552030     1.3745990     0.7353710
  H        1.0111040     1.2381230    -1.0301620
  H       -1.5863530     1.2355690     0.6350930
  H       -1.6018540     1.1165020    -1.1483330
  H        2.9531350    -0.1978260    -1.8953020
  H        3.8477320    -1.2283710    -0.7670690
  H        2.1762820    -1.6227130    -1.1817050
  H        3.5229730     1.8417250    -0.3809710
  H        4.3924350     0.7485930     0.7071400
  H        3.0997810     1.7802300     1.3402560
  H       -3.0432920    -0.9285740    -0.9804800
  H       -2.9504610    -0.8515990     0.7760110
  H       -4.1584820     1.3575060     0.7479640
  H       -4.2413300     1.2926870    -1.0190020
  H       -5.1195520     0.1037900    -0.0468840
units angstrom
no_reorient  #important for SAPT in psi4, default
symmetry c1  #important for SAPT in psi4, default
}

set PROPERTIES_ORIGIN ["COM"]
properties('MP2/aug-cc-pvtz', properties = ['dipole'])
--------------------------------------------------------------------------

    Molecular point group: c1
  Charge       = 0
  Multiplicity = 1
  Basis Set: AUG-CC-PVTZ
    Blend: AUG-CC-PVTZ
  Basis Set: (AUG-CC-PVTZ AUX)
    Blend: AUG-CC-PVTZ-JKFIT

    Orbital Energies [Eh]
    ---------------------

    Doubly Occupied:

       1A    -92.058097     2A    -20.497378     3A    -11.262043
       4A    -11.260014     5A    -11.239615     6A    -11.233693
       7A    -11.223903     8A    -11.220929     9A    -11.217483
      10A     -9.045488    11A     -6.727080    12A     -6.726912
      13A     -6.725619    14A     -1.316993    15A     -1.112273
      16A     -1.086000    17A     -1.009145    18A     -0.943074
      19A     -0.941386    20A     -0.845532    21A     -0.799960
      22A     -0.766113    23A     -0.665246    24A     -0.650905
      25A     -0.630531    26A     -0.612591    27A     -0.594839
      28A     -0.587930    29A     -0.567466    30A     -0.553986
      31A     -0.544959    32A     -0.534407    33A     -0.514498
      34A     -0.507734    35A     -0.499664    36A     -0.489997
      37A     -0.485945    38A     -0.476222    39A     -0.455302
      40A     -0.404031    41A     -0.359481

  @DF-RHF Final Energy:  -746.88786192341013

   => Energetics <=

    Nuclear Repulsion Energy =            575.3614767424628553
    One-Electron Energy =               -2165.7097523430420551
    Two-Electron Energy =                 843.4604136771690719
    Total Energy =                       -746.8878619234101279
  Basis Set: (AUG-CC-PVTZ AUX)
    Blend: AUG-CC-PVTZ-RI
    Molecular point group: c1

    Geometry (in Angstrom), charge = 0, multiplicity = 1:

       Center              X                  Y                   Z               Mass
    ------------   -----------------  -----------------  -----------------  -----------------
         S           -0.253744384964    -0.549935611690    -0.155012449910    31.972071174400
         O           -0.279452384964    -1.206840611690     1.213688550090    15.994914619570
         C            2.422389415036     0.135260988310     0.125717350090    12.000000000000
         C            1.033770615036     0.733668388310    -0.090747449910    12.000000000000
         C           -1.666702384964     0.589702388310    -0.226178449910    12.000000000000
         C            2.872920615036    -0.754124611690    -0.994289449910    12.000000000000
         C            3.418044615036     1.219260388310     0.469632550090    12.000000000000
         C           -2.969542384964    -0.195896611690    -0.143208449910    12.000000000000
         C           -4.186122384964     0.725236388310    -0.124599449910    12.000000000000
         H            2.302334615036    -0.515719611690     1.063975550090     1.007825032230
         H            0.762820615036     1.417682388310     0.722837550090     1.007825032230
         H            1.018721615036     1.281206388310    -1.042695449910     1.007825032230
         H           -1.578735384964     1.278652388310     0.622559550090     1.007825032230
         H           -1.594236384964     1.159585388310    -1.160866449910     1.007825032230
         H            2.960752615036    -0.154742611690    -1.907835449910     1.007825032230
         H            3.855349615036    -1.185287611690    -0.779602449910     1.007825032230
         H            2.183899615036    -1.579629611690    -1.194238449910     1.007825032230
         H            3.530590615036     1.884808388310    -0.393504449910     1.007825032230
         H            4.400052615036     0.791676388310     0.694606550090     1.007825032230
         H            3.107398615036     1.823313388310     1.327722550090     1.007825032230
         H           -3.035674384964    -0.885490611690    -0.993013449910     1.007825032230
         H           -2.942843384964    -0.808515611690     0.763477550090     1.007825032230
         H           -4.150864384964     1.400589388310     0.735430550090     1.007825032230
         H           -4.233712384964     1.335770388310    -1.031535449910     1.007825032230
         H           -5.111934384964     0.146873388310    -0.059417449910     1.007825032230

  Basis Set: AUG-CC-PVTZ
    Blend: AUG-CC-PVTZ
  Basis Set: (AUG-CC-PVTZ AUX)
    Blend: AUG-CC-PVTZ-JKFIT
	 Reference Energy          =    -746.8878619234101279 [Eh]
	 Singles Energy            =      -0.0000000000000000 [Eh]
	 Same-Spin Energy          =      -0.4276581771099260 [Eh]
	 Opposite-Spin Energy      =      -1.4587634743600573 [Eh]
	 Correlation Energy        =      -1.8864216514699832 [Eh]
	 Total Energy              =    -748.7742835748800871 [Eh]

	 ================> DF-SCS-MP2 Energies <==================
	-----------------------------------------------------------
	 SCS Same-Spin Scale       =       0.3333333333333333 [-]
	 SCS Opposite-Spin Scale   =       1.2000000000000000 [-]
	 SCS Same-Spin Energy      =      -0.1425527257033087 [Eh]
	 SCS Opposite-Spin Energy  =      -1.7505161692320688 [Eh]
	 SCS Correlation Energy    =      -1.8930688949353773 [Eh]
	 SCS Total Energy          =    -748.7809308183454959 [Eh]
	-----------------------------------------------------------

  Dipole Moment: [D]
     X:    -0.0621      Y:     2.8788      Z:    -2.2855     Total:     3.6763

*** Psi4 exiting successfully. Buy a developer a beer!
