                               Psi4 1.4a3.dev225

  ==> Input File <==

--------------------------------------------------------------------------
#psi4
#
memory 32 gb

molecule  {
0 1
  S       -0.2613620    -0.5930190    -0.1424790
  O       -0.2870700    -1.2499240     1.2262220
  C        2.3977240     0.0716980     0.1844310
  C        1.0261530     0.6905850    -0.0782140
  C       -1.6743200     0.5466190    -0.2136450
  C        2.8653030    -0.7972080    -0.9817560
  C        3.4104270     1.1761770     0.4821660
  C       -2.9619997    -0.2572976    -0.0831045
  C       -4.1937400     0.6821530    -0.1120660
  H        2.2947170    -0.5588030     1.0765090
  H        0.7552030     1.3745990     0.7353710
  H        1.0111040     1.2381230    -1.0301620
  H       -1.5863530     1.2355690     0.6350930
  H       -1.6018540     1.1165020    -1.1483330
  H        2.9531350    -0.1978260    -1.8953020
  H        3.8477320    -1.2283710    -0.7670690
  H        2.1762820    -1.6227130    -1.1817050
  H        3.5229730     1.8417250    -0.3809710
  H        4.3924350     0.7485930     0.7071400
  H        3.0997810     1.7802300     1.3402560
  H       -3.0432920    -0.9285740    -0.9804800
  H       -2.9504610    -0.8515990     0.7760110
  H       -4.1584820     1.3575060     0.7479640
  H       -4.2413300     1.2926870    -1.0190020
  H       -5.1195520     0.1037900    -0.0468840
units angstrom
no_reorient  #important for SAPT in psi4, default
symmetry c1  #important for SAPT in psi4, default
}

set PROPERTIES_ORIGIN ["COM"]
properties('MP2/aug-cc-pvtz', properties = ['dipole'])
--------------------------------------------------------------------------

    Molecular point group: c1
  Charge       = 0
  Multiplicity = 1
  Basis Set: AUG-CC-PVTZ
    Blend: AUG-CC-PVTZ
  Basis Set: (AUG-CC-PVTZ AUX)
    Blend: AUG-CC-PVTZ-JKFIT

    Orbital Energies [Eh]
    ---------------------

    Doubly Occupied:

       1A    -92.057106     2A    -20.497565     3A    -11.262106
       4A    -11.259512     5A    -11.237535     6A    -11.233319
       7A    -11.224779     8A    -11.220911     9A    -11.217670
      10A     -9.044626    11A     -6.726228    12A     -6.726017
      13A     -6.724738    14A     -1.317230    15A     -1.109412
      16A     -1.084003    17A     -1.006077    18A     -0.940732
      19A     -0.937080    20A     -0.847000    21A     -0.802184
      22A     -0.772801    23A     -0.665651    24A     -0.649103
      25A     -0.628433    26A     -0.611866    27A     -0.593432
      28A     -0.586155    29A     -0.567542    30A     -0.553118
      31A     -0.544911    32A     -0.532330    33A     -0.512485
      34A     -0.509837    35A     -0.502445    36A     -0.484774
      37A     -0.479788    38A     -0.474887    39A     -0.471974
      40A     -0.402728    41A     -0.359309

  @DF-RHF Final Energy:  -746.88859122346491

   => Energetics <=

    Nuclear Repulsion Energy =            575.3632755908331546
    One-Electron Energy =               -2165.7449308617315182
    Two-Electron Energy =                 843.4930640474334496
    Total Energy =                       -746.8885912234649140
  Basis Set: (AUG-CC-PVTZ AUX)
    Blend: AUG-CC-PVTZ-RI
    Molecular point group: c1

    Geometry (in Angstrom), charge = 0, multiplicity = 1:

       Center              X                  Y                   Z               Mass
    ------------   -----------------  -----------------  -----------------  -----------------
         S           -0.253591439690    -0.546791850959    -0.162609126196    31.972071174400
         O           -0.279299439690    -1.203696850959     1.206091873804    15.994914619570
         C            2.405494560310     0.117925149041     0.164300873804    12.000000000000
         C            1.033923560310     0.736812149041    -0.098344126196    12.000000000000
         C           -1.666549439690     0.592846149041    -0.233775126196    12.000000000000
         C            2.873073560310    -0.750980850959    -1.001886126196    12.000000000000
         C            3.418197560310     1.222404149041     0.462035873804    12.000000000000
         C           -2.954229139690    -0.211070450959    -0.103234626196    12.000000000000
         C           -4.185969439690     0.728380149041    -0.132196126196    12.000000000000
         H            2.302487560310    -0.512575850959     1.056378873804     1.007825032230
         H            0.762973560310     1.420826149041     0.715240873804     1.007825032230
         H            1.018874560310     1.284350149041    -1.050292126196     1.007825032230
         H           -1.578582439690     1.281796149041     0.614962873804     1.007825032230
         H           -1.594083439690     1.162729149041    -1.168463126196     1.007825032230
         H            2.960905560310    -0.151598850959    -1.915432126196     1.007825032230
         H            3.855502560310    -1.182143850959    -0.787199126196     1.007825032230
         H            2.184052560310    -1.576485850959    -1.201835126196     1.007825032230
         H            3.530743560310     1.887952149041    -0.401101126196     1.007825032230
         H            4.400205560310     0.794820149041     0.687009873804     1.007825032230
         H            3.107551560310     1.826457149041     1.320125873804     1.007825032230
         H           -3.035521439690    -0.882346850959    -1.000610126196     1.007825032230
         H           -2.942690439690    -0.805371850959     0.755880873804     1.007825032230
         H           -4.150711439690     1.403733149041     0.727833873804     1.007825032230
         H           -4.233559439690     1.338914149041    -1.039132126196     1.007825032230
         H           -5.111781439690     0.150017149041    -0.067014126196     1.007825032230

  Basis Set: AUG-CC-PVTZ
    Blend: AUG-CC-PVTZ
  Basis Set: (AUG-CC-PVTZ AUX)
    Blend: AUG-CC-PVTZ-JKFIT
	 Reference Energy          =    -746.8885912234649140 [Eh]
	 Singles Energy            =      -0.0000000000000000 [Eh]
	 Same-Spin Energy          =      -0.4271968080248766 [Eh]
	 Opposite-Spin Energy      =      -1.4582968605227449 [Eh]
	 Correlation Energy        =      -1.8854936685476216 [Eh]
	 Total Energy              =    -748.7740848920125245 [Eh]

	 ================> DF-SCS-MP2 Energies <==================
	-----------------------------------------------------------
	 SCS Same-Spin Scale       =       0.3333333333333333 [-]
	 SCS Opposite-Spin Scale   =       1.2000000000000000 [-]
	 SCS Same-Spin Energy      =      -0.1423989360082922 [Eh]
	 SCS Opposite-Spin Energy  =      -1.7499562326272937 [Eh]
	 SCS Correlation Energy    =      -1.8923551686355859 [Eh]
	 SCS Total Energy          =    -748.7809463921005317 [Eh]
	-----------------------------------------------------------

  Dipole Moment: [D]
     X:    -0.0655      Y:     2.8936      Z:    -2.2664     Total:     3.6761

*** Psi4 exiting successfully. Buy a developer a beer!
