                               Psi4 1.4a3.dev225

  ==> Input File <==

--------------------------------------------------------------------------
#psi4
#
memory 32 gb

molecule  {
0 1
  S       -0.2613620    -0.5930190    -0.1424790
  O       -0.2870700    -1.2499240     1.2262220
  C        2.3977240     0.0716980     0.1844310
  C        1.0261530     0.6905850    -0.0782140
  C       -1.6743200     0.5466190    -0.2136450
  C        2.8591813    -0.7858320    -0.9664880
  C        3.4104270     1.1761770     0.4821660
  C       -2.9771600    -0.2389800    -0.1306750
  C       -4.1937400     0.6821530    -0.1120660
  H        2.2947170    -0.5588030     1.0765090
  H        0.7552030     1.3745990     0.7353710
  H        1.0111040     1.2381230    -1.0301620
  H       -1.5863530     1.2355690     0.6350930
  H       -1.6018540     1.1165020    -1.1483330
  H        2.9531350    -0.1978260    -1.8953020
  H        3.8477320    -1.2283710    -0.7670690
  H        2.1762820    -1.6227130    -1.1817050
  H        3.5229730     1.8417250    -0.3809710
  H        4.3924350     0.7485930     0.7071400
  H        3.0997810     1.7802300     1.3402560
  H       -3.0432920    -0.9285740    -0.9804800
  H       -2.9504610    -0.8515990     0.7760110
  H       -4.1584820     1.3575060     0.7479640
  H       -4.2413300     1.2926870    -1.0190020
  H       -5.1195520     0.1037900    -0.0468840
units angstrom
no_reorient  #important for SAPT in psi4, default
symmetry c1  #important for SAPT in psi4, default
}

set PROPERTIES_ORIGIN ["COM"]
properties('MP2/aug-cc-pvtz', properties = ['dipole'])
--------------------------------------------------------------------------

    Molecular point group: c1
  Charge       = 0
  Multiplicity = 1
  Basis Set: AUG-CC-PVTZ
    Blend: AUG-CC-PVTZ
  Basis Set: (AUG-CC-PVTZ AUX)
    Blend: AUG-CC-PVTZ-JKFIT

    Orbital Energies [Eh]
    ---------------------

    Doubly Occupied:

       1A    -92.057593     2A    -20.497476     3A    -11.261737
       4A    -11.259883     5A    -11.236901     6A    -11.233477
       7A    -11.223752     8A    -11.221107     9A    -11.218778
      10A     -9.045051    11A     -6.726648    12A     -6.726460
      13A     -6.725173    14A     -1.317133    15A     -1.111459
      16A     -1.085536    17A     -1.008128    18A     -0.942024
      19A     -0.937037    20A     -0.845570    21A     -0.800214
      22A     -0.773184    23A     -0.664811    24A     -0.649977
      25A     -0.629841    26A     -0.611789    27A     -0.592869
      28A     -0.587926    29A     -0.566490    30A     -0.554152
      31A     -0.543813    32A     -0.532395    33A     -0.513049
      34A     -0.506459    35A     -0.499424    36A     -0.486045
      37A     -0.482292    38A     -0.474778    39A     -0.472699
      40A     -0.403499    41A     -0.359323

  @DF-RHF Final Energy:  -746.89100806494707

   => Energetics <=

    Nuclear Repulsion Energy =            575.6124241777157522
    One-Electron Energy =               -2166.2349680848992648
    Two-Electron Energy =                 843.7315358422365534
    Total Energy =                       -746.8910080649470729
  Basis Set: (AUG-CC-PVTZ AUX)
    Blend: AUG-CC-PVTZ-RI
    Molecular point group: c1

    Geometry (in Angstrom), charge = 0, multiplicity = 1:

       Center              X                  Y                   Z               Mass
    ------------   -----------------  -----------------  -----------------  -----------------
         S           -0.251866946275    -0.549197941441    -0.159991634959    31.972071174400
         O           -0.277574946275    -1.206102941441     1.208709365041    15.994914619570
         C            2.407219053725     0.115519058559     0.166918365041    12.000000000000
         C            1.035648053725     0.734406058559    -0.095726634959    12.000000000000
         C           -1.664824946275     0.590440058559    -0.231157634959    12.000000000000
         C            2.868676353725    -0.742010941441    -0.984000634959    12.000000000000
         C            3.419922053725     1.219998058559     0.464653365041    12.000000000000
         C           -2.967664946275    -0.195158941441    -0.148187634959    12.000000000000
         C           -4.184244946275     0.725974058559    -0.129578634959    12.000000000000
         H            2.304212053725    -0.514981941441     1.058996365041     1.007825032230
         H            0.764698053725     1.418420058559     0.717858365041     1.007825032230
         H            1.020599053725     1.281944058559    -1.047674634959     1.007825032230
         H           -1.576857946275     1.279390058559     0.617580365041     1.007825032230
         H           -1.592358946275     1.160323058559    -1.165845634959     1.007825032230
         H            2.962630053725    -0.154004941441    -1.912814634959     1.007825032230
         H            3.857227053725    -1.184549941441    -0.784581634959     1.007825032230
         H            2.185777053725    -1.578891941441    -1.199217634959     1.007825032230
         H            3.532468053725     1.885546058559    -0.398483634959     1.007825032230
         H            4.401930053725     0.792414058559     0.689627365041     1.007825032230
         H            3.109276053725     1.824051058559     1.322743365041     1.007825032230
         H           -3.033796946275    -0.884752941441    -0.997992634959     1.007825032230
         H           -2.940965946275    -0.807777941441     0.758498365041     1.007825032230
         H           -4.148986946275     1.401327058559     0.730451365041     1.007825032230
         H           -4.231834946275     1.336508058559    -1.036514634959     1.007825032230
         H           -5.110056946275     0.147611058559    -0.064396634959     1.007825032230

  Basis Set: AUG-CC-PVTZ
    Blend: AUG-CC-PVTZ
  Basis Set: (AUG-CC-PVTZ AUX)
    Blend: AUG-CC-PVTZ-JKFIT
	 Reference Energy          =    -746.8910080649470729 [Eh]
	 Singles Energy            =      -0.0000000000000000 [Eh]
	 Same-Spin Energy          =      -0.4274325843249269 [Eh]
	 Opposite-Spin Energy      =      -1.4584034093600653 [Eh]
	 Correlation Energy        =      -1.8858359936849922 [Eh]
	 Total Energy              =    -748.7768440586320366 [Eh]

	 ================> DF-SCS-MP2 Energies <==================
	-----------------------------------------------------------
	 SCS Same-Spin Scale       =       0.3333333333333333 [-]
	 SCS Opposite-Spin Scale   =       1.2000000000000000 [-]
	 SCS Same-Spin Energy      =      -0.1424775281083089 [Eh]
	 SCS Opposite-Spin Energy  =      -1.7500840912320783 [Eh]
	 SCS Correlation Energy    =      -1.8925616193403874 [Eh]
	 SCS Total Energy          =    -748.7835696842874995 [Eh]
	-----------------------------------------------------------

  Dipole Moment: [D]
     X:    -0.0531      Y:     2.8831      Z:    -2.2786     Total:     3.6752

*** Psi4 exiting successfully. Buy a developer a beer!
