                               Psi4 1.4a3.dev225

  ==> Input File <==

--------------------------------------------------------------------------
#psi4
#
memory 32 gb

molecule  {
0 1
  S       -0.2613620    -0.5930190    -0.1424790
  O       -0.2862234    -1.2282925     1.1811514
  C        2.3977240     0.0716980     0.1844310
  C        1.0261530     0.6905850    -0.0782140
  C       -1.6743200     0.5466190    -0.2136450
  C        2.8653030    -0.7972080    -0.9817560
  C        3.4104270     1.1761770     0.4821660
  C       -2.9771600    -0.2389800    -0.1306750
  C       -4.1937400     0.6821530    -0.1120660
  H        2.2947170    -0.5588030     1.0765090
  H        0.7552030     1.3745990     0.7353710
  H        1.0111040     1.2381230    -1.0301620
  H       -1.5863530     1.2355690     0.6350930
  H       -1.6018540     1.1165020    -1.1483330
  H        2.9531350    -0.1978260    -1.8953020
  H        3.8477320    -1.2283710    -0.7670690
  H        2.1762820    -1.6227130    -1.1817050
  H        3.5229730     1.8417250    -0.3809710
  H        4.3924350     0.7485930     0.7071400
  H        3.0997810     1.7802300     1.3402560
  H       -3.0432920    -0.9285740    -0.9804800
  H       -2.9504610    -0.8515990     0.7760110
  H       -4.1584820     1.3575060     0.7479640
  H       -4.2413300     1.2926870    -1.0190020
  H       -5.1195520     0.1037900    -0.0468840
units angstrom
no_reorient  #important for SAPT in psi4, default
symmetry c1  #important for SAPT in psi4, default
}

set PROPERTIES_ORIGIN ["COM"]
properties('MP2/aug-cc-pvtz', properties = ['dipole'])
--------------------------------------------------------------------------

    Molecular point group: c1
  Charge       = 0
  Multiplicity = 1
  Basis Set: AUG-CC-PVTZ
    Blend: AUG-CC-PVTZ
  Basis Set: (AUG-CC-PVTZ AUX)
    Blend: AUG-CC-PVTZ-JKFIT

    Orbital Energies [Eh]
    ---------------------

    Doubly Occupied:

       1A    -92.055683     2A    -20.497340     3A    -11.257796
       4A    -11.255927     5A    -11.236986     6A    -11.232634
       7A    -11.223018     8A    -11.220360     9A    -11.217142
      10A     -9.043527    11A     -6.725200    12A     -6.725062
      13A     -6.723687    14A     -1.346372    15A     -1.108247
      16A     -1.083636    17A     -1.005081    18A     -0.940620
      19A     -0.936519    20A     -0.843495    21A     -0.797904
      22A     -0.771121    23A     -0.663843    24A     -0.650112
      25A     -0.630829    26A     -0.611385    27A     -0.594655
      28A     -0.588541    29A     -0.568875    30A     -0.557778
      31A     -0.544810    32A     -0.533440    33A     -0.518067
      34A     -0.512603    35A     -0.499090    36A     -0.485957
      37A     -0.481431    38A     -0.476138    39A     -0.472463
      40A     -0.404768    41A     -0.355948

  @DF-RHF Final Energy:  -746.89320421193020

   => Energetics <=

    Nuclear Repulsion Energy =            577.4062448632555515
    One-Electron Energy =               -2169.8027149436466061
    Two-Electron Energy =                 845.5032658684608577
    Total Energy =                       -746.8932042119301968
  Basis Set: (AUG-CC-PVTZ AUX)
    Blend: AUG-CC-PVTZ-RI
    Molecular point group: c1

    Geometry (in Angstrom), charge = 0, multiplicity = 1:

       Center              X                  Y                   Z               Mass
    ------------   -----------------  -----------------  -----------------  -----------------
         S           -0.252454429632    -0.550612479242    -0.153886543115    31.972071174400
         O           -0.277315829632    -1.185885979242     1.169743856885    15.994914619570
         C            2.406631570368     0.114104520758     0.173023456885    12.000000000000
         C            1.035060570368     0.732991520758    -0.089621543115    12.000000000000
         C           -1.665412429632     0.589025520758    -0.225052543115    12.000000000000
         C            2.874210570368    -0.754801479242    -0.993163543115    12.000000000000
         C            3.419334570368     1.218583520758     0.470758456885    12.000000000000
         C           -2.968252429632    -0.196573479242    -0.142082543115    12.000000000000
         C           -4.184832429632     0.724559520758    -0.123473543115    12.000000000000
         H            2.303624570368    -0.516396479242     1.065101456885     1.007825032230
         H            0.764110570368     1.417005520758     0.723963456885     1.007825032230
         H            1.020011570368     1.280529520758    -1.041569543115     1.007825032230
         H           -1.577445429632     1.277975520758     0.623685456885     1.007825032230
         H           -1.592946429632     1.158908520758    -1.159740543115     1.007825032230
         H            2.962042570368    -0.155419479242    -1.906709543115     1.007825032230
         H            3.856639570368    -1.185964479242    -0.778476543115     1.007825032230
         H            2.185189570368    -1.580306479242    -1.193112543115     1.007825032230
         H            3.531880570368     1.884131520758    -0.392378543115     1.007825032230
         H            4.401342570368     0.790999520758     0.695732456885     1.007825032230
         H            3.108688570368     1.822636520758     1.328848456885     1.007825032230
         H           -3.034384429632    -0.886167479242    -0.991887543115     1.007825032230
         H           -2.941553429632    -0.809192479242     0.764603456885     1.007825032230
         H           -4.149574429632     1.399912520758     0.736556456885     1.007825032230
         H           -4.232422429632     1.335093520758    -1.030409543115     1.007825032230
         H           -5.110644429632     0.146196520758    -0.058291543115     1.007825032230

  Basis Set: AUG-CC-PVTZ
    Blend: AUG-CC-PVTZ
  Basis Set: (AUG-CC-PVTZ AUX)
    Blend: AUG-CC-PVTZ-JKFIT
	 Reference Energy          =    -746.8932042119301968 [Eh]
	 Singles Energy            =      -0.0000000000000000 [Eh]
	 Same-Spin Energy          =      -0.4265873822826031 [Eh]
	 Opposite-Spin Energy      =      -1.4562253881036091 [Eh]
	 Correlation Energy        =      -1.8828127703862121 [Eh]
	 Total Energy              =    -748.7760169823163778 [Eh]

	 ================> DF-SCS-MP2 Energies <==================
	-----------------------------------------------------------
	 SCS Same-Spin Scale       =       0.3333333333333333 [-]
	 SCS Opposite-Spin Scale   =       1.2000000000000000 [-]
	 SCS Same-Spin Energy      =      -0.1421957940942010 [Eh]
	 SCS Opposite-Spin Energy  =      -1.7474704657243310 [Eh]
	 SCS Correlation Energy    =      -1.8896662598185319 [Eh]
	 SCS Total Energy          =    -748.7828704717487653 [Eh]
	-----------------------------------------------------------

  Dipole Moment: [D]
     X:    -0.0554      Y:     2.7055      Z:    -2.0679     Total:     3.4057

*** Psi4 exiting successfully. Buy a developer a beer!
