                               Psi4 1.4a3.dev225

  ==> Input File <==

--------------------------------------------------------------------------
#psi4
#
memory 32 gb

molecule  {
0 1
  S       -0.2613620    -0.5930190    -0.1424790
  O       -0.2870700    -1.2499240     1.2262220
  C        2.3977240     0.0716980     0.1844310
  C        1.0261530     0.6905850    -0.0782140
  C       -1.5187653     0.4211545    -0.2058102
  C        2.8653030    -0.7972080    -0.9817560
  C        3.4104270     1.1761770     0.4821660
  C       -2.9771600    -0.2389800    -0.1306750
  C       -4.1937400     0.6821530    -0.1120660
  H        2.2947170    -0.5588030     1.0765090
  H        0.7552030     1.3745990     0.7353710
  H        1.0111040     1.2381230    -1.0301620
  H       -1.5863530     1.2355690     0.6350930
  H       -1.6018540     1.1165020    -1.1483330
  H        2.9531350    -0.1978260    -1.8953020
  H        3.8477320    -1.2283710    -0.7670690
  H        2.1762820    -1.6227130    -1.1817050
  H        3.5229730     1.8417250    -0.3809710
  H        4.3924350     0.7485930     0.7071400
  H        3.0997810     1.7802300     1.3402560
  H       -3.0432920    -0.9285740    -0.9804800
  H       -2.9504610    -0.8515990     0.7760110
  H       -4.1584820     1.3575060     0.7479640
  H       -4.2413300     1.2926870    -1.0190020
  H       -5.1195520     0.1037900    -0.0468840
units angstrom
no_reorient  #important for SAPT in psi4, default
symmetry c1  #important for SAPT in psi4, default
}

set PROPERTIES_ORIGIN ["COM"]
properties('MP2/aug-cc-pvtz', properties = ['dipole'])
--------------------------------------------------------------------------

    Molecular point group: c1
  Charge       = 0
  Multiplicity = 1
  Basis Set: AUG-CC-PVTZ
    Blend: AUG-CC-PVTZ
  Basis Set: (AUG-CC-PVTZ AUX)
    Blend: AUG-CC-PVTZ-JKFIT

    Orbital Energies [Eh]
    ---------------------

    Doubly Occupied:

       1A    -92.055828     2A    -20.496077     3A    -11.266580
       4A    -11.259545     5A    -11.241059     6A    -11.237324
       7A    -11.228398     8A    -11.220975     9A    -11.217690
      10A     -9.046622    11A     -6.729004    12A     -6.727911
      13A     -6.726695    14A     -1.324201    15A     -1.115533
      16A     -1.086132    17A     -1.021206    18A     -0.945938
      19A     -0.937105    20A     -0.853005    21A     -0.785588
      22A     -0.774883    23A     -0.662170    24A     -0.654550
      25A     -0.633194    26A     -0.613060    27A     -0.595334
      28A     -0.586072    29A     -0.565401    30A     -0.552981
      31A     -0.545281    32A     -0.535900    33A     -0.519802
      34A     -0.503903    35A     -0.492976    36A     -0.480112
      37A     -0.473446    38A     -0.470165    39A     -0.460308
      40A     -0.416761    41A     -0.361293

  @DF-RHF Final Energy:  -746.85405059295329

   => Energetics <=

    Nuclear Repulsion Energy =            578.7763940343514832
    One-Electron Energy =               -2172.4208742316905045
    Two-Electron Energy =                 846.7904296043856220
    Total Energy =                       -746.8540505929532856
  Basis Set: (AUG-CC-PVTZ AUX)
    Blend: AUG-CC-PVTZ-RI
    Molecular point group: c1

    Geometry (in Angstrom), charge = 0, multiplicity = 1:

       Center              X                  Y                   Z               Mass
    ------------   -----------------  -----------------  -----------------  -----------------
         S           -0.264967683379    -0.538109672432    -0.159389318238    31.972071174400
         O           -0.290675683379    -1.195014672432     1.209311681762    15.994914619570
         C            2.394118316621     0.126607327568     0.167520681762    12.000000000000
         C            1.022547316621     0.745494327568    -0.095124318238    12.000000000000
         C           -1.522370983379     0.476063827568    -0.222720518238    12.000000000000
         C            2.861697316621    -0.742298672432    -0.998666318238    12.000000000000
         C            3.406821316621     1.231086327568     0.465255681762    12.000000000000
         C           -2.980765683379    -0.184070672432    -0.147585318238    12.000000000000
         C           -4.197345683379     0.737062327568    -0.128976318238    12.000000000000
         H            2.291111316621    -0.503893672432     1.059598681762     1.007825032230
         H            0.751597316621     1.429508327568     0.718460681762     1.007825032230
         H            1.007498316621     1.293032327568    -1.047072318238     1.007825032230
         H           -1.589958683379     1.290478327568     0.618182681762     1.007825032230
         H           -1.605459683379     1.171411327568    -1.165243318238     1.007825032230
         H            2.949529316621    -0.142916672432    -1.912212318238     1.007825032230
         H            3.844126316621    -1.173461672432    -0.783979318238     1.007825032230
         H            2.172676316621    -1.567803672432    -1.198615318238     1.007825032230
         H            3.519367316621     1.896634327568    -0.397881318238     1.007825032230
         H            4.388829316621     0.803502327568     0.690229681762     1.007825032230
         H            3.096175316621     1.835139327568     1.323345681762     1.007825032230
         H           -3.046897683379    -0.873664672432    -0.997390318238     1.007825032230
         H           -2.954066683379    -0.796689672432     0.759100681762     1.007825032230
         H           -4.162087683379     1.412415327568     0.731053681762     1.007825032230
         H           -4.244935683379     1.347596327568    -1.035912318238     1.007825032230
         H           -5.123157683379     0.158699327568    -0.063794318238     1.007825032230

  Basis Set: AUG-CC-PVTZ
    Blend: AUG-CC-PVTZ
  Basis Set: (AUG-CC-PVTZ AUX)
    Blend: AUG-CC-PVTZ-JKFIT
	 Reference Energy          =    -746.8540505929532856 [Eh]
	 Singles Energy            =      -0.0000000000000000 [Eh]
	 Same-Spin Energy          =      -0.4292572203655960 [Eh]
	 Opposite-Spin Energy      =      -1.4602990873672193 [Eh]
	 Correlation Energy        =      -1.8895563077328152 [Eh]
	 Total Energy              =    -748.7436069006861317 [Eh]

	 ================> DF-SCS-MP2 Energies <==================
	-----------------------------------------------------------
	 SCS Same-Spin Scale       =       0.3333333333333333 [-]
	 SCS Opposite-Spin Scale   =       1.2000000000000000 [-]
	 SCS Same-Spin Energy      =      -0.1430857401218653 [Eh]
	 SCS Opposite-Spin Energy  =      -1.7523589048406631 [Eh]
	 SCS Correlation Energy    =      -1.8954446449625284 [Eh]
	 SCS Total Energy          =    -748.7494952379157667 [Eh]
	-----------------------------------------------------------

  Dipole Moment: [D]
     X:    -0.2674      Y:     2.9897      Z:    -2.3421     Total:     3.8072

*** Psi4 exiting successfully. Buy a developer a beer!
