                               Psi4 1.4a3.dev225

  ==> Input File <==

--------------------------------------------------------------------------
#psi4
#
memory 32 gb

molecule  {
0 1
  S       -0.2613620    -0.5930190    -0.1424790
  O       -0.2870700    -1.2499240     1.2262220
  C        2.3977240     0.0716980     0.1844310
  C        1.0261530     0.6905850    -0.0782140
  C       -1.6743200     0.5466190    -0.2136450
  C        2.8653030    -0.7972080    -0.9817560
  C        3.4104270     1.1761770     0.4821660
  C       -2.9771600    -0.2389800    -0.1306750
  C       -4.1937400     0.6821530    -0.1120660
  H        2.2947170    -0.5588030     1.0765090
  H        0.7552030     1.3745990     0.7353710
  H        1.0111040     1.2381230    -1.0301620
  H       -1.5863530     1.2355690     0.6350930
  H       -1.6018540     1.1165020    -1.1483330
  H        2.9571414    -0.1704856    -1.9369728
  H        3.8477320    -1.2283710    -0.7670690
  H        2.1762820    -1.6227130    -1.1817050
  H        3.5229730     1.8417250    -0.3809710
  H        4.3924350     0.7485930     0.7071400
  H        3.0997810     1.7802300     1.3402560
  H       -3.0432920    -0.9285740    -0.9804800
  H       -2.9504610    -0.8515990     0.7760110
  H       -4.1584820     1.3575060     0.7479640
  H       -4.2413300     1.2926870    -1.0190020
  H       -5.1195520     0.1037900    -0.0468840
units angstrom
no_reorient  #important for SAPT in psi4, default
symmetry c1  #important for SAPT in psi4, default
}

set PROPERTIES_ORIGIN ["COM"]
properties('MP2/aug-cc-pvtz', properties = ['dipole'])
--------------------------------------------------------------------------

    Molecular point group: c1
  Charge       = 0
  Multiplicity = 1
  Basis Set: AUG-CC-PVTZ
    Blend: AUG-CC-PVTZ
  Basis Set: (AUG-CC-PVTZ AUX)
    Blend: AUG-CC-PVTZ-JKFIT

    Orbital Energies [Eh]
    ---------------------

    Doubly Occupied:

       1A    -92.057682     2A    -20.497575     3A    -11.261814
       4A    -11.259916     5A    -11.238431     6A    -11.233526
       7A    -11.224047     8A    -11.223787     9A    -11.221156
      10A     -9.045144    11A     -6.726741    12A     -6.726554
      13A     -6.725268    14A     -1.317240    15A     -1.109484
      16A     -1.085030    17A     -1.007468    18A     -0.941756
      19A     -0.934641    20A     -0.845490    21A     -0.800173
      22A     -0.771573    23A     -0.664606    24A     -0.649324
      25A     -0.629908    26A     -0.610712    27A     -0.593136
      28A     -0.587291    29A     -0.566276    30A     -0.554059
      31A     -0.540273    32A     -0.532386    33A     -0.514345
      34A     -0.506365    35A     -0.499475    36A     -0.486173
      37A     -0.480443    38A     -0.475566    39A     -0.471388
      40A     -0.403586    41A     -0.359479

  @DF-RHF Final Energy:  -746.88965187532176

   => Energetics <=

    Nuclear Repulsion Energy =            575.0554732091088681
    One-Electron Energy =               -2165.1316856750695479
    Two-Electron Energy =                 843.1865605906389192
    Total Energy =                       -746.8896518753217606
  Basis Set: (AUG-CC-PVTZ AUX)
    Blend: AUG-CC-PVTZ-RI
    Molecular point group: c1

    Geometry (in Angstrom), charge = 0, multiplicity = 1:

       Center              X                  Y                   Z               Mass
    ------------   -----------------  -----------------  -----------------  -----------------
         S           -0.252390256466    -0.548462199312    -0.158470873594    31.972071174400
         O           -0.278098256466    -1.205367199312     1.210230126406    15.994914619570
         C            2.406695743534     0.116254800688     0.168439126406    12.000000000000
         C            1.035124743534     0.735141800688    -0.094205873594    12.000000000000
         C           -1.665348256466     0.591175800688    -0.229636873594    12.000000000000
         C            2.874274743534    -0.752651199312    -0.997747873594    12.000000000000
         C            3.419398743534     1.220733800688     0.466174126406    12.000000000000
         C           -2.968188256466    -0.194423199312    -0.146666873594    12.000000000000
         C           -4.184768256466     0.726709800688    -0.128057873594    12.000000000000
         H            2.303688743534    -0.514246199312     1.060517126406     1.007825032230
         H            0.764174743534     1.419155800688     0.719379126406     1.007825032230
         H            1.020075743534     1.282679800688    -1.046153873594     1.007825032230
         H           -1.577381256466     1.280125800688     0.619101126406     1.007825032230
         H           -1.592882256466     1.161058800688    -1.164324873594     1.007825032230
         H            2.966113143534    -0.125928799312    -1.952964673594     1.007825032230
         H            3.856703743534    -1.183814199312    -0.783060873594     1.007825032230
         H            2.185253743534    -1.578156199312    -1.197696873594     1.007825032230
         H            3.531944743534     1.886281800688    -0.396962873594     1.007825032230
         H            4.401406743534     0.793149800688     0.691148126406     1.007825032230
         H            3.108752743534     1.824786800688     1.324264126406     1.007825032230
         H           -3.034320256466    -0.884017199312    -0.996471873594     1.007825032230
         H           -2.941489256466    -0.807042199312     0.760019126406     1.007825032230
         H           -4.149510256466     1.402062800688     0.731972126406     1.007825032230
         H           -4.232358256466     1.337243800688    -1.034993873594     1.007825032230
         H           -5.110580256466     0.148346800688    -0.062875873594     1.007825032230

  Basis Set: AUG-CC-PVTZ
    Blend: AUG-CC-PVTZ
  Basis Set: (AUG-CC-PVTZ AUX)
    Blend: AUG-CC-PVTZ-JKFIT
	 Reference Energy          =    -746.8896518753217606 [Eh]
	 Singles Energy            =      -0.0000000000000000 [Eh]
	 Same-Spin Energy          =      -0.4272543338838362 [Eh]
	 Opposite-Spin Energy      =      -1.4585506704744144 [Eh]
	 Correlation Energy        =      -1.8858050043582506 [Eh]
	 Total Energy              =    -748.7754568796800640 [Eh]

	 ================> DF-SCS-MP2 Energies <==================
	-----------------------------------------------------------
	 SCS Same-Spin Scale       =       0.3333333333333333 [-]
	 SCS Opposite-Spin Scale   =       1.2000000000000000 [-]
	 SCS Same-Spin Energy      =      -0.1424181112946121 [Eh]
	 SCS Opposite-Spin Energy  =      -1.7502608045692973 [Eh]
	 SCS Correlation Energy    =      -1.8926789158639095 [Eh]
	 SCS Total Energy          =    -748.7823307911857000 [Eh]
	-----------------------------------------------------------

  Dipole Moment: [D]
     X:    -0.0605      Y:     2.8748      Z:    -2.2467     Total:     3.6491

*** Psi4 exiting successfully. Buy a developer a beer!
