                               Psi4 1.4a3.dev225

  ==> Input File <==

--------------------------------------------------------------------------
#psi4
#
memory 32 gb

molecule  {
0 1
  S       -0.2613620    -0.5930190    -0.1424790
  O       -0.2870700    -1.2499240     1.2262220
  C        2.3977240     0.0716980     0.1844310
  C        1.0261530     0.6905850    -0.0782140
  C       -1.6743200     0.5466190    -0.2136450
  C        2.8653030    -0.7972080    -0.9817560
  C        3.4104270     1.1761770     0.4821660
  C       -2.9771600    -0.2389800    -0.1306750
  C       -4.1937400     0.6821530    -0.1120660
  H        2.2947170    -0.5588030     1.0765090
  H        0.7552030     1.3745990     0.7353710
  H        1.0111040     1.2381230    -1.0301620
  H       -1.5863530     1.2355690     0.6350930
  H       -1.6018540     1.1165020    -1.1483330
  H        2.9531350    -0.1978260    -1.8953020
  H        3.8477320    -1.2283710    -0.7670690
  H        2.1762820    -1.6227130    -1.1817050
  H        3.5229730     1.8417250    -0.3809710
  H        4.3924350     0.7485930     0.7071400
  H        3.0997810     1.7802300     1.3402560
  H       -3.0432920    -0.9285740    -0.9804800
  H       -2.9504610    -0.8515990     0.7760110
  H       -4.1584820     1.3575060     0.7479640
  H       -4.2326324     1.1811053    -0.8532496
  H       -5.1195520     0.1037900    -0.0468840
units angstrom
no_reorient  #important for SAPT in psi4, default
symmetry c1  #important for SAPT in psi4, default
}

set PROPERTIES_ORIGIN ["COM"]
properties('MP2/aug-cc-pvtz', properties = ['dipole'])
--------------------------------------------------------------------------

    Molecular point group: c1
  Charge       = 0
  Multiplicity = 1
  Basis Set: AUG-CC-PVTZ
    Blend: AUG-CC-PVTZ
  Basis Set: (AUG-CC-PVTZ AUX)
    Blend: AUG-CC-PVTZ-JKFIT

    Orbital Energies [Eh]
    ---------------------

    Doubly Occupied:

       1A    -92.057358     2A    -20.497199     3A    -11.261464
       4A    -11.259641     5A    -11.237600     6A    -11.231541
       7A    -11.220952     8A    -11.217686     9A    -11.198203
      10A     -9.044807    11A     -6.726406    12A     -6.726215
      13A     -6.724931    14A     -1.316808    15A     -1.109712
      16A     -1.088311    17A     -1.013947    18A     -0.951254
      19A     -0.937119    20A     -0.855137    21A     -0.802812
      22A     -0.772853    23A     -0.667585    24A     -0.650188
      25A     -0.630712    26A     -0.615367    27A     -0.599000
      28A     -0.587493    29A     -0.578732    30A     -0.553587
      31A     -0.545278    32A     -0.533546    33A     -0.514045
      34A     -0.509008    35A     -0.500463    36A     -0.489361
      37A     -0.479943    38A     -0.475313    39A     -0.472333
      40A     -0.403191    41A     -0.359076

  @DF-RHF Final Energy:  -746.85747026004003

   => Energetics <=

    Nuclear Repulsion Energy =            576.2162569962181351
    One-Electron Energy =               -2167.3151072856212522
    Two-Electron Energy =                 844.2413800293630857
    Total Energy =                       -746.8574702600400315
  Basis Set: (AUG-CC-PVTZ AUX)
    Blend: AUG-CC-PVTZ-RI
    Molecular point group: c1

    Geometry (in Angstrom), charge = 0, multiplicity = 1:

       Center              X                  Y                   Z               Mass
    ------------   -----------------  -----------------  -----------------  -----------------
         S           -0.252422181910    -0.547516780290    -0.159882469293    31.972071174400
         O           -0.278130181910    -1.204421780290     1.208818530707    15.994914619570
         C            2.406663818090     0.117200219710     0.167027530707    12.000000000000
         C            1.035092818090     0.736087219710    -0.095617469293    12.000000000000
         C           -1.665380181910     0.592121219710    -0.231048469293    12.000000000000
         C            2.874242818090    -0.751705780290    -0.999159469293    12.000000000000
         C            3.419366818090     1.221679219710     0.464762530707    12.000000000000
         C           -2.968220181910    -0.193477780290    -0.148078469293    12.000000000000
         C           -4.184800181910     0.727655219710    -0.129469469293    12.000000000000
         H            2.303656818090    -0.513300780290     1.059105530707     1.007825032230
         H            0.764142818090     1.420101219710     0.717967530707     1.007825032230
         H            1.020043818090     1.283625219710    -1.047565469293     1.007825032230
         H           -1.577413181910     1.281071219710     0.617689530707     1.007825032230
         H           -1.592914181910     1.162004219710    -1.165736469293     1.007825032230
         H            2.962074818090    -0.152323780290    -1.912705469293     1.007825032230
         H            3.856671818090    -1.182868780290    -0.784472469293     1.007825032230
         H            2.185221818090    -1.577210780290    -1.199108469293     1.007825032230
         H            3.531912818090     1.887227219710    -0.398374469293     1.007825032230
         H            4.401374818090     0.794095219710     0.689736530707     1.007825032230
         H            3.108720818090     1.825732219710     1.322852530707     1.007825032230
         H           -3.034352181910    -0.883071780290    -0.997883469293     1.007825032230
         H           -2.941521181910    -0.806096780290     0.758607530707     1.007825032230
         H           -4.149542181910     1.403008219710     0.730560530707     1.007825032230
         H           -4.223692581910     1.226607519710    -0.870653069293     1.007825032230
         H           -5.110612181910     0.149292219710    -0.064287469293     1.007825032230

  Basis Set: AUG-CC-PVTZ
    Blend: AUG-CC-PVTZ
  Basis Set: (AUG-CC-PVTZ AUX)
    Blend: AUG-CC-PVTZ-JKFIT
	 Reference Energy          =    -746.8574702600400315 [Eh]
	 Singles Energy            =      -0.0000000000000000 [Eh]
	 Same-Spin Energy          =      -0.4274892754823839 [Eh]
	 Opposite-Spin Energy      =      -1.4577802249160197 [Eh]
	 Correlation Energy        =      -1.8852695003984037 [Eh]
	 Total Energy              =    -748.7427397604384396 [Eh]

	 ================> DF-SCS-MP2 Energies <==================
	-----------------------------------------------------------
	 SCS Same-Spin Scale       =       0.3333333333333333 [-]
	 SCS Opposite-Spin Scale   =       1.2000000000000000 [-]
	 SCS Same-Spin Energy      =      -0.1424964251607946 [Eh]
	 SCS Opposite-Spin Energy  =      -1.7493362698992236 [Eh]
	 SCS Correlation Energy    =      -1.8918326950600182 [Eh]
	 SCS Total Energy          =    -748.7493029551000063 [Eh]
	-----------------------------------------------------------

  Dipole Moment: [D]
     X:    -0.0832      Y:     2.9500      Z:    -2.3486     Total:     3.7717

*** Psi4 exiting successfully. Buy a developer a beer!
