                               Psi4 1.4a3.dev225

  ==> Input File <==

--------------------------------------------------------------------------
#psi4
#
memory 32 gb

molecule  {
0 1
  S       -0.2613620    -0.5930190    -0.1424790
  O       -0.2887631    -1.2931871     1.3163632
  C        2.3977240     0.0716980     0.1844310
  C        1.0261530     0.6905850    -0.0782140
  C       -1.6743200     0.5466190    -0.2136450
  C        2.8653030    -0.7972080    -0.9817560
  C        3.4104270     1.1761770     0.4821660
  C       -2.9771600    -0.2389800    -0.1306750
  C       -4.1937400     0.6821530    -0.1120660
  H        2.2947170    -0.5588030     1.0765090
  H        0.7552030     1.3745990     0.7353710
  H        1.0111040     1.2381230    -1.0301620
  H       -1.5863530     1.2355690     0.6350930
  H       -1.6018540     1.1165020    -1.1483330
  H        2.9531350    -0.1978260    -1.8953020
  H        3.8477320    -1.2283710    -0.7670690
  H        2.1762820    -1.6227130    -1.1817050
  H        3.5229730     1.8417250    -0.3809710
  H        4.3924350     0.7485930     0.7071400
  H        3.0997810     1.7802300     1.3402560
  H       -3.0432920    -0.9285740    -0.9804800
  H       -2.9504610    -0.8515990     0.7760110
  H       -4.1584820     1.3575060     0.7479640
  H       -4.2413300     1.2926870    -1.0190020
  H       -5.1195520     0.1037900    -0.0468840
units angstrom
no_reorient  #important for SAPT in psi4, default
symmetry c1  #important for SAPT in psi4, default
}

set PROPERTIES_ORIGIN ["COM"]
properties('MP2/aug-cc-pvtz', properties = ['dipole'])
--------------------------------------------------------------------------

    Molecular point group: c1
  Charge       = 0
  Multiplicity = 1
  Basis Set: AUG-CC-PVTZ
    Blend: AUG-CC-PVTZ
  Basis Set: (AUG-CC-PVTZ AUX)
    Blend: AUG-CC-PVTZ-JKFIT

    Orbital Energies [Eh]
    ---------------------

    Doubly Occupied:

       1A    -92.057847     2A    -20.499733     3A    -11.268351
       4A    -11.266384     5A    -11.239063     6A    -11.234929
       7A    -11.224977     8A    -11.222224     9A    -11.218915
      10A     -9.045638    11A     -6.727191    12A     -6.726701
      13A     -6.725568    14A     -1.267608    15A     -1.111840
      16A     -1.087458    17A     -1.012287    18A     -0.944116
      19A     -0.938407    20A     -0.849619    21A     -0.804255
      22A     -0.775972    23A     -0.666169    24A     -0.649330
      25A     -0.628227    26A     -0.611507    27A     -0.592160
      28A     -0.587337    29A     -0.565550    30A     -0.549602
      31A     -0.543418    32A     -0.529349    33A     -0.513505
      34A     -0.499376    35A     -0.493996    36A     -0.484087
      37A     -0.477228    38A     -0.472513    39A     -0.470588
      40A     -0.401154    41A     -0.365731

  @DF-RHF Final Energy:  -746.87877737128736

   => Energetics <=

    Nuclear Repulsion Energy =            571.2934918599165712
    One-Electron Energy =               -2157.6447260421418832
    Two-Electron Energy =                 839.4724568109378424
    Total Energy =                       -746.8787773712873559
  Basis Set: (AUG-CC-PVTZ AUX)
    Blend: AUG-CC-PVTZ-RI
    Molecular point group: c1

    Geometry (in Angstrom), charge = 0, multiplicity = 1:

       Center              X                  Y                   Z               Mass
    ------------   -----------------  -----------------  -----------------  -----------------
         S           -0.252180125594    -0.543603442425    -0.168490292647    31.972071174400
         O           -0.279581225594    -1.243771542425     1.290351907353    15.994914619570
         C            2.406905874406     0.121113557575     0.158419707353    12.000000000000
         C            1.035334874406     0.740000557575    -0.104225292647    12.000000000000
         C           -1.665138125594     0.596034557575    -0.239656292647    12.000000000000
         C            2.874484874406    -0.747792442425    -1.007767292647    12.000000000000
         C            3.419608874406     1.225592557575     0.456154707353    12.000000000000
         C           -2.967978125594    -0.189564442425    -0.156686292647    12.000000000000
         C           -4.184558125594     0.731568557575    -0.138077292647    12.000000000000
         H            2.303898874406    -0.509387442425     1.050497707353     1.007825032230
         H            0.764384874406     1.424014557575     0.709359707353     1.007825032230
         H            1.020285874406     1.287538557575    -1.056173292647     1.007825032230
         H           -1.577171125594     1.284984557575     0.609081707353     1.007825032230
         H           -1.592672125594     1.165917557575    -1.174344292647     1.007825032230
         H            2.962316874406    -0.148410442425    -1.921313292647     1.007825032230
         H            3.856913874406    -1.178955442425    -0.793080292647     1.007825032230
         H            2.185463874406    -1.573297442425    -1.207716292647     1.007825032230
         H            3.532154874406     1.891140557575    -0.406982292647     1.007825032230
         H            4.401616874406     0.798008557575     0.681128707353     1.007825032230
         H            3.108962874406     1.829645557575     1.314244707353     1.007825032230
         H           -3.034110125594    -0.879158442425    -1.006491292647     1.007825032230
         H           -2.941279125594    -0.802183442425     0.749999707353     1.007825032230
         H           -4.149300125594     1.406921557575     0.721952707353     1.007825032230
         H           -4.232148125594     1.342102557575    -1.045013292647     1.007825032230
         H           -5.110370125594     0.153205557575    -0.072895292647     1.007825032230

  Basis Set: AUG-CC-PVTZ
    Blend: AUG-CC-PVTZ
  Basis Set: (AUG-CC-PVTZ AUX)
    Blend: AUG-CC-PVTZ-JKFIT
	 Reference Energy          =    -746.8787773712873559 [Eh]
	 Singles Energy            =      -0.0000000000000000 [Eh]
	 Same-Spin Energy          =      -0.4279726049327777 [Eh]
	 Opposite-Spin Energy      =      -1.4614825824278395 [Eh]
	 Correlation Energy        =      -1.8894551873606171 [Eh]
	 Total Energy              =    -748.7682325586479237 [Eh]

	 ================> DF-SCS-MP2 Energies <==================
	-----------------------------------------------------------
	 SCS Same-Spin Scale       =       0.3333333333333333 [-]
	 SCS Opposite-Spin Scale   =       1.2000000000000000 [-]
	 SCS Same-Spin Energy      =      -0.1426575349775926 [Eh]
	 SCS Opposite-Spin Energy  =      -1.7537790989134072 [Eh]
	 SCS Correlation Energy    =      -1.8964366338909997 [Eh]
	 SCS Total Energy          =    -748.7752140051783272 [Eh]
	-----------------------------------------------------------

  Dipole Moment: [D]
     X:    -0.0470      Y:     3.2349      Z:    -2.6926     Total:     4.2091

*** Psi4 exiting successfully. Buy a developer a beer!
