                               Psi4 1.4a3.dev225

  ==> Input File <==

--------------------------------------------------------------------------
#psi4
#
memory 32 gb

molecule  {
0 1
  S       -0.2613620    -0.5930190    -0.1424790
  O       -0.2870700    -1.2499240     1.2262220
  C        2.3977240     0.0716980     0.1844310
  C        1.0261530     0.6905850    -0.0782140
  C       -1.5965426     0.4838867    -0.2097276
  C        2.8653030    -0.7972080    -0.9817560
  C        3.4104270     1.1761770     0.4821660
  C       -2.9771600    -0.2389800    -0.1306750
  C       -4.1937400     0.6821530    -0.1120660
  H        2.2947170    -0.5588030     1.0765090
  H        0.7552030     1.3745990     0.7353710
  H        1.0111040     1.2381230    -1.0301620
  H       -1.5863530     1.2355690     0.6350930
  H       -1.6018540     1.1165020    -1.1483330
  H        2.9531350    -0.1978260    -1.8953020
  H        3.8477320    -1.2283710    -0.7670690
  H        2.1762820    -1.6227130    -1.1817050
  H        3.5229730     1.8417250    -0.3809710
  H        4.3924350     0.7485930     0.7071400
  H        3.0997810     1.7802300     1.3402560
  H       -3.0432920    -0.9285740    -0.9804800
  H       -2.9504610    -0.8515990     0.7760110
  H       -4.1584820     1.3575060     0.7479640
  H       -4.2413300     1.2926870    -1.0190020
  H       -5.1195520     0.1037900    -0.0468840
units angstrom
no_reorient  #important for SAPT in psi4, default
symmetry c1  #important for SAPT in psi4, default
}

set PROPERTIES_ORIGIN ["COM"]
properties('MP2/aug-cc-pvtz', properties = ['dipole'])
--------------------------------------------------------------------------

    Molecular point group: c1
  Charge       = 0
  Multiplicity = 1
  Basis Set: AUG-CC-PVTZ
    Blend: AUG-CC-PVTZ
  Basis Set: (AUG-CC-PVTZ AUX)
    Blend: AUG-CC-PVTZ-JKFIT

    Orbital Energies [Eh]
    ---------------------

    Doubly Occupied:

       1A    -92.058177     2A    -20.497165     3A    -11.263252
       4A    -11.260022     5A    -11.237849     6A    -11.236335
       7A    -11.225570     8A    -11.221227     9A    -11.217987
      10A     -9.046825    11A     -6.728730    12A     -6.728254
      13A     -6.726980    14A     -1.320425    15A     -1.111808
      16A     -1.084011    17A     -1.014261    18A     -0.943896
      19A     -0.937394    20A     -0.849313    21A     -0.793121
      22A     -0.774320    23A     -0.662277    24A     -0.650165
      25A     -0.632950    26A     -0.612174    27A     -0.593898
      28A     -0.586243    29A     -0.565807    30A     -0.552976
      31A     -0.545427    32A     -0.534369    33A     -0.517257
      34A     -0.505236    35A     -0.494555    36A     -0.480897
      37A     -0.478970    38A     -0.473731    39A     -0.470123
      40A     -0.411569    41A     -0.361950

  @DF-RHF Final Energy:  -746.88309664413350

   => Energetics <=

    Nuclear Repulsion Energy =            576.9302173014125401
    One-Electron Energy =               -2168.8116341779209506
    Two-Electron Energy =                 844.9983202323749083
    Total Energy =                       -746.8830966441335022
  Basis Set: (AUG-CC-PVTZ AUX)
    Blend: AUG-CC-PVTZ-RI
    Molecular point group: c1

    Geometry (in Angstrom), charge = 0, multiplicity = 1:

       Center              X                  Y                   Z               Mass
    ------------   -----------------  -----------------  -----------------  -----------------
         S           -0.258665341418    -0.543192900783    -0.159071888932    31.972071174400
         O           -0.284373341418    -1.200097900783     1.209629111068    15.994914619570
         C            2.400420658582     0.121524099217     0.167838111068    12.000000000000
         C            1.028849658582     0.740411099217    -0.094806888932    12.000000000000
         C           -1.593845941418     0.533712799217    -0.226320488932    12.000000000000
         C            2.867999658582    -0.747381900783    -0.998348888932    12.000000000000
         C            3.413123658582     1.226003099217     0.465573111068    12.000000000000
         C           -2.974463341418    -0.189153900783    -0.147267888932    12.000000000000
         C           -4.191043341418     0.731979099217    -0.128658888932    12.000000000000
         H            2.297413658582    -0.508976900783     1.059916111068     1.007825032230
         H            0.757899658582     1.424425099217     0.718778111068     1.007825032230
         H            1.013800658582     1.287949099217    -1.046754888932     1.007825032230
         H           -1.583656341418     1.285395099217     0.618500111068     1.007825032230
         H           -1.599157341418     1.166328099217    -1.164925888932     1.007825032230
         H            2.955831658582    -0.147999900783    -1.911894888932     1.007825032230
         H            3.850428658582    -1.178544900783    -0.783661888932     1.007825032230
         H            2.178978658582    -1.572886900783    -1.198297888932     1.007825032230
         H            3.525669658582     1.891551099217    -0.397563888932     1.007825032230
         H            4.395131658582     0.798419099217     0.690547111068     1.007825032230
         H            3.102477658582     1.830056099217     1.323663111068     1.007825032230
         H           -3.040595341418    -0.878747900783    -0.997072888932     1.007825032230
         H           -2.947764341418    -0.801772900783     0.759418111068     1.007825032230
         H           -4.155785341418     1.407332099217     0.731371111068     1.007825032230
         H           -4.238633341418     1.342513099217    -1.035594888932     1.007825032230
         H           -5.116855341418     0.153616099217    -0.063476888932     1.007825032230

  Basis Set: AUG-CC-PVTZ
    Blend: AUG-CC-PVTZ
  Basis Set: (AUG-CC-PVTZ AUX)
    Blend: AUG-CC-PVTZ-JKFIT
	 Reference Energy          =    -746.8830966441335022 [Eh]
	 Singles Energy            =      -0.0000000000000000 [Eh]
	 Same-Spin Energy          =      -0.4277376088115235 [Eh]
	 Opposite-Spin Energy      =      -1.4584674452032744 [Eh]
	 Correlation Energy        =      -1.8862050540147979 [Eh]
	 Total Energy              =    -748.7693016981482970 [Eh]

	 ================> DF-SCS-MP2 Energies <==================
	-----------------------------------------------------------
	 SCS Same-Spin Scale       =       0.3333333333333333 [-]
	 SCS Opposite-Spin Scale   =       1.2000000000000000 [-]
	 SCS Same-Spin Energy      =      -0.1425792029371745 [Eh]
	 SCS Opposite-Spin Energy  =      -1.7501609342439293 [Eh]
	 SCS Correlation Energy    =      -1.8927401371811037 [Eh]
	 SCS Total Energy          =    -748.7758367813146378 [Eh]
	-----------------------------------------------------------

  Dipole Moment: [D]
     X:    -0.1292      Y:     2.9354      Z:    -2.3047     Total:     3.7343

*** Psi4 exiting successfully. Buy a developer a beer!
