                               Psi4 1.4a3.dev225

  ==> Input File <==

--------------------------------------------------------------------------
#psi4
#
memory 32 gb

molecule  {
0 1
  S       -0.2613620    -0.5930190    -0.1424790
  O       -0.2870700    -1.2499240     1.2262220
  C        2.3977240     0.0716980     0.1844310
  C        1.0261530     0.6905850    -0.0782140
  C       -1.6743200     0.5466190    -0.2136450
  C        2.8653030    -0.7972080    -0.9817560
  C        3.4104270     1.1761770     0.4821660
  C       -2.9771600    -0.2389800    -0.1306750
  C       -4.1937400     0.6821530    -0.1120660
  H        2.2947170    -0.5588030     1.0765090
  H        0.7552030     1.3745990     0.7353710
  H        1.0111040     1.2381230    -1.0301620
  H       -1.5863530     1.2355690     0.6350930
  H       -1.6018540     1.1165020    -1.1483330
  H        2.9531350    -0.1978260    -1.8953020
  H        3.8477320    -1.2283710    -0.7670690
  H        2.0502843    -1.7736689    -1.2182686
  H        3.5229730     1.8417250    -0.3809710
  H        4.3924350     0.7485930     0.7071400
  H        3.0997810     1.7802300     1.3402560
  H       -3.0432920    -0.9285740    -0.9804800
  H       -2.9504610    -0.8515990     0.7760110
  H       -4.1584820     1.3575060     0.7479640
  H       -4.2413300     1.2926870    -1.0190020
  H       -5.1195520     0.1037900    -0.0468840
units angstrom
no_reorient  #important for SAPT in psi4, default
symmetry c1  #important for SAPT in psi4, default
}

set PROPERTIES_ORIGIN ["COM"]
properties('MP2/aug-cc-pvtz', properties = ['dipole'])
--------------------------------------------------------------------------

    Molecular point group: c1
  Charge       = 0
  Multiplicity = 1
  Basis Set: AUG-CC-PVTZ
    Blend: AUG-CC-PVTZ
  Basis Set: (AUG-CC-PVTZ AUX)
    Blend: AUG-CC-PVTZ-JKFIT

    Orbital Energies [Eh]
    ---------------------

    Doubly Occupied:

       1A    -92.056849     2A    -20.496960     3A    -11.261044
       4A    -11.260257     5A    -11.240589     6A    -11.239965
       7A    -11.233065     8A    -11.223438     9A    -11.223411
      10A     -9.044310    11A     -6.725889    12A     -6.725702
      13A     -6.724406    14A     -1.316565    15A     -1.109607
      16A     -1.084654    17A     -1.007285    18A     -0.941980
      19A     -0.927753    20A     -0.845007    21A     -0.799604
      22A     -0.771742    23A     -0.664158    24A     -0.647991
      25A     -0.628468    26A     -0.609782    27A     -0.588862
      28A     -0.585118    29A     -0.563725    30A     -0.553918
      31A     -0.544550    32A     -0.532927    33A     -0.508732
      34A     -0.505568    35A     -0.499138    36A     -0.485599
      37A     -0.476802    38A     -0.475320    39A     -0.463950
      40A     -0.403217    41A     -0.357959

  @DF-RHF Final Energy:  -746.87132436381103

   => Energetics <=

    Nuclear Repulsion Energy =            574.6288420622419153
    One-Electron Energy =               -2164.2885964425345264
    Two-Electron Energy =                 842.7884300164816977
    Total Energy =                       -746.8713243638110271
  Basis Set: (AUG-CC-PVTZ AUX)
    Blend: AUG-CC-PVTZ-RI
    Molecular point group: c1

    Geometry (in Angstrom), charge = 0, multiplicity = 1:

       Center              X                  Y                   Z               Mass
    ------------   -----------------  -----------------  -----------------  -----------------
         S           -0.251505527909    -0.547248823517    -0.158505630080    31.972071174400
         O           -0.277213527909    -1.204153823517     1.210195369920    15.994914619570
         C            2.407580472091     0.117468176483     0.168404369920    12.000000000000
         C            1.036009472091     0.736355176483    -0.094240630080    12.000000000000
         C           -1.664463527909     0.592389176483    -0.229671630080    12.000000000000
         C            2.875159472091    -0.751437823517    -0.997782630080    12.000000000000
         C            3.420283472091     1.221947176483     0.466139369920    12.000000000000
         C           -2.967303527909    -0.193209823517    -0.146701630080    12.000000000000
         C           -4.183883527909     0.727923176483    -0.128092630080    12.000000000000
         H            2.304573472091    -0.513032823517     1.060482369920     1.007825032230
         H            0.765059472091     1.420369176483     0.719344369920     1.007825032230
         H            1.020960472091     1.283893176483    -1.046188630080     1.007825032230
         H           -1.576496527909     1.281339176483     0.619066369920     1.007825032230
         H           -1.591997527909     1.162272176483    -1.164359630080     1.007825032230
         H            2.962991472091    -0.152055823517    -1.911328630080     1.007825032230
         H            3.857588472091    -1.182600823517    -0.783095630080     1.007825032230
         H            2.060140772091    -1.727898723517    -1.234295230080     1.007825032230
         H            3.532829472091     1.887495176483    -0.396997630080     1.007825032230
         H            4.402291472091     0.794363176483     0.691113369920     1.007825032230
         H            3.109637472091     1.826000176483     1.324229369920     1.007825032230
         H           -3.033435527909    -0.882803823517    -0.996506630080     1.007825032230
         H           -2.940604527909    -0.805828823517     0.759984369920     1.007825032230
         H           -4.148625527909     1.403276176483     0.731937369920     1.007825032230
         H           -4.231473527909     1.338457176483    -1.035028630080     1.007825032230
         H           -5.109695527909     0.149560176483    -0.062910630080     1.007825032230

  Basis Set: AUG-CC-PVTZ
    Blend: AUG-CC-PVTZ
  Basis Set: (AUG-CC-PVTZ AUX)
    Blend: AUG-CC-PVTZ-JKFIT
	 Reference Energy          =    -746.8713243638110271 [Eh]
	 Singles Energy            =      -0.0000000000000000 [Eh]
	 Same-Spin Energy          =      -0.4274582548194168 [Eh]
	 Opposite-Spin Energy      =      -1.4600423386149024 [Eh]
	 Correlation Energy        =      -1.8875005934343192 [Eh]
	 Total Energy              =    -748.7588249572453378 [Eh]

	 ================> DF-SCS-MP2 Energies <==================
	-----------------------------------------------------------
	 SCS Same-Spin Scale       =       0.3333333333333333 [-]
	 SCS Opposite-Spin Scale   =       1.2000000000000000 [-]
	 SCS Same-Spin Energy      =      -0.1424860849398056 [Eh]
	 SCS Opposite-Spin Energy  =      -1.7520508063378828 [Eh]
	 SCS Correlation Energy    =      -1.8945368912776883 [Eh]
	 SCS Total Energy          =    -748.7658612550886801 [Eh]
	-----------------------------------------------------------

  Dipole Moment: [D]
     X:     0.0255      Y:     2.9897      Z:    -2.2310     Total:     3.7304

*** Psi4 exiting successfully. Buy a developer a beer!
