                               Psi4 1.4a3.dev225

  ==> Input File <==

--------------------------------------------------------------------------
#psi4
#
memory 32 gb

molecule  {
0 1
  S       -0.2613620    -0.5930190    -0.1424790
  O       -0.2870700    -1.2499240     1.2262220
  C        2.3977240     0.0716980     0.1844310
  C        1.0261530     0.6905850    -0.0782140
  C       -1.6743200     0.5466190    -0.2136450
  C        2.8653030    -0.7972080    -0.9817560
  C        3.4104270     1.1761770     0.4821660
  C       -2.9771600    -0.2389800    -0.1306750
  C       -4.1937400     0.6821530    -0.1120660
  H        2.2947170    -0.5588030     1.0765090
  H        0.7552030     1.3745990     0.7353710
  H        1.0111040     1.2381230    -1.0301620
  H       -1.5863530     1.2355690     0.6350930
  H       -1.6018540     1.1165020    -1.1483330
  H        2.9531350    -0.1978260    -1.8953020
  H        3.8477320    -1.2283710    -0.7670690
  H        2.1762820    -1.6227130    -1.1817050
  H        3.5229730     1.8417250    -0.3809710
  H        4.3921559     0.7573178     0.7241299
  H        3.0997810     1.7802300     1.3402560
  H       -3.0432920    -0.9285740    -0.9804800
  H       -2.9504610    -0.8515990     0.7760110
  H       -4.1584820     1.3575060     0.7479640
  H       -4.2413300     1.2926870    -1.0190020
  H       -5.1195520     0.1037900    -0.0468840
units angstrom
no_reorient  #important for SAPT in psi4, default
symmetry c1  #important for SAPT in psi4, default
}

set PROPERTIES_ORIGIN ["COM"]
properties('MP2/aug-cc-pvtz', properties = ['dipole'])
--------------------------------------------------------------------------

    Molecular point group: c1
  Charge       = 0
  Multiplicity = 1
  Basis Set: AUG-CC-PVTZ
    Blend: AUG-CC-PVTZ
  Basis Set: (AUG-CC-PVTZ AUX)
    Blend: AUG-CC-PVTZ-JKFIT

    Orbital Energies [Eh]
    ---------------------

    Doubly Occupied:

       1A    -92.057625     2A    -20.497476     3A    -11.261756
       4A    -11.259871     5A    -11.237836     6A    -11.233488
       7A    -11.223759     8A    -11.221014     9A    -11.217744
      10A     -9.045080    11A     -6.726678    12A     -6.726490
      13A     -6.725204    14A     -1.317129    15A     -1.109607
      16A     -1.085056    17A     -1.007626    18A     -0.941911
      19A     -0.937282    20A     -0.845670    21A     -0.800221
      22A     -0.772979    23A     -0.664559    24A     -0.649578
      25A     -0.629731    26A     -0.610577    27A     -0.592850
      28A     -0.588076    29A     -0.566484    30A     -0.554256
      31A     -0.545395    32A     -0.532908    33A     -0.514045
      34A     -0.506383    35A     -0.499409    36A     -0.486143
      37A     -0.479924    38A     -0.475782    39A     -0.472458
      40A     -0.403563    41A     -0.359377

  @DF-RHF Final Energy:  -746.89162846830527

   => Energetics <=

    Nuclear Repulsion Energy =            575.2557763232399566
    One-Electron Energy =               -2165.5288064138280788
    Two-Electron Energy =                 843.3814016222829650
    Total Energy =                       -746.8916284683052709
  Basis Set: (AUG-CC-PVTZ AUX)
    Blend: AUG-CC-PVTZ-RI
    Molecular point group: c1

    Geometry (in Angstrom), charge = 0, multiplicity = 1:

       Center              X                  Y                   Z               Mass
    ------------   -----------------  -----------------  -----------------  -----------------
         S           -0.252361091968    -0.548335512900    -0.158870082515    31.972071174400
         O           -0.278069091968    -1.205240512900     1.209830917485    15.994914619570
         C            2.406724908032     0.116381487100     0.168039917485    12.000000000000
         C            1.035153908032     0.735268487100    -0.094605082515    12.000000000000
         C           -1.665319091968     0.591302487100    -0.230036082515    12.000000000000
         C            2.874303908032    -0.752524512900    -0.998147082515    12.000000000000
         C            3.419427908032     1.220860487100     0.465774917485    12.000000000000
         C           -2.968159091968    -0.194296512900    -0.147066082515    12.000000000000
         C           -4.184739091968     0.726836487100    -0.128457082515    12.000000000000
         H            2.303717908032    -0.514119512900     1.060117917485     1.007825032230
         H            0.764203908032     1.419282487100     0.718979917485     1.007825032230
         H            1.020104908032     1.282806487100    -1.046553082515     1.007825032230
         H           -1.577352091968     1.280252487100     0.618701917485     1.007825032230
         H           -1.592853091968     1.161185487100    -1.164724082515     1.007825032230
         H            2.962135908032    -0.153142512900    -1.911693082515     1.007825032230
         H            3.856732908032    -1.183687512900    -0.783460082515     1.007825032230
         H            2.185282908032    -1.578029512900    -1.198096082515     1.007825032230
         H            3.531973908032     1.886408487100    -0.397362082515     1.007825032230
         H            4.401156808032     0.802001287100     0.707738817485     1.007825032230
         H            3.108781908032     1.824913487100     1.323864917485     1.007825032230
         H           -3.034291091968    -0.883890512900    -0.996871082515     1.007825032230
         H           -2.941460091968    -0.806915512900     0.759619917485     1.007825032230
         H           -4.149481091968     1.402189487100     0.731572917485     1.007825032230
         H           -4.232329091968     1.337370487100    -1.035393082515     1.007825032230
         H           -5.110551091968     0.148473487100    -0.063275082515     1.007825032230

  Basis Set: AUG-CC-PVTZ
    Blend: AUG-CC-PVTZ
  Basis Set: (AUG-CC-PVTZ AUX)
    Blend: AUG-CC-PVTZ-JKFIT
	 Reference Energy          =    -746.8916284683052709 [Eh]
	 Singles Energy            =      -0.0000000000000000 [Eh]
	 Same-Spin Energy          =      -0.4272552880677901 [Eh]
	 Opposite-Spin Energy      =      -1.4582251743421120 [Eh]
	 Correlation Energy        =      -1.8854804624099022 [Eh]
	 Total Energy              =    -748.7771089307151442 [Eh]

	 ================> DF-SCS-MP2 Energies <==================
	-----------------------------------------------------------
	 SCS Same-Spin Scale       =       0.3333333333333333 [-]
	 SCS Opposite-Spin Scale   =       1.2000000000000000 [-]
	 SCS Same-Spin Energy      =      -0.1424184293559300 [Eh]
	 SCS Opposite-Spin Energy  =      -1.7498702092105343 [Eh]
	 SCS Correlation Energy    =      -1.8922886385664643 [Eh]
	 SCS Total Energy          =    -748.7839171068717405 [Eh]
	-----------------------------------------------------------

  Dipole Moment: [D]
     X:    -0.0538      Y:     2.8876      Z:    -2.2718     Total:     3.6746

*** Psi4 exiting successfully. Buy a developer a beer!
