                               Psi4 1.4a3.dev225

  ==> Input File <==

--------------------------------------------------------------------------
#psi4
#
memory 32 gb

molecule  {
0 1
  S       -0.2613620    -0.5930190    -0.1424790
  O       -0.2870700    -1.2499240     1.2262220
  C        2.3977240     0.0716980     0.1844310
  C        1.0261530     0.6905850    -0.0782140
  C       -1.6743200     0.5466190    -0.2136450
  C        2.8653030    -0.7972080    -0.9817560
  C        3.4104270     1.1761770     0.4821660
  C       -2.9344055    -0.2131995    -0.1333978
  C       -4.1937400     0.6821530    -0.1120660
  H        2.2947170    -0.5588030     1.0765090
  H        0.7552030     1.3745990     0.7353710
  H        1.0111040     1.2381230    -1.0301620
  H       -1.5863530     1.2355690     0.6350930
  H       -1.6018540     1.1165020    -1.1483330
  H        2.9531350    -0.1978260    -1.8953020
  H        3.8477320    -1.2283710    -0.7670690
  H        2.1762820    -1.6227130    -1.1817050
  H        3.5229730     1.8417250    -0.3809710
  H        4.3924350     0.7485930     0.7071400
  H        3.0997810     1.7802300     1.3402560
  H       -3.0432920    -0.9285740    -0.9804800
  H       -2.9504610    -0.8515990     0.7760110
  H       -4.1584820     1.3575060     0.7479640
  H       -4.2413300     1.2926870    -1.0190020
  H       -5.1195520     0.1037900    -0.0468840
units angstrom
no_reorient  #important for SAPT in psi4, default
symmetry c1  #important for SAPT in psi4, default
}

set PROPERTIES_ORIGIN ["COM"]
properties('MP2/aug-cc-pvtz', properties = ['dipole'])
--------------------------------------------------------------------------

    Molecular point group: c1
  Charge       = 0
  Multiplicity = 1
  Basis Set: AUG-CC-PVTZ
    Blend: AUG-CC-PVTZ
  Basis Set: (AUG-CC-PVTZ AUX)
    Blend: AUG-CC-PVTZ-JKFIT

    Orbital Energies [Eh]
    ---------------------

    Doubly Occupied:

       1A    -92.058103     2A    -20.498012     3A    -11.260497
       4A    -11.260224     5A    -11.238036     6A    -11.233972
       7A    -11.224609     8A    -11.221272     9A    -11.218032
      10A     -9.045619    11A     -6.727214    12A     -6.727008
      13A     -6.725721    14A     -1.317738    15A     -1.110972
      16A     -1.090142    17A     -1.006066    18A     -0.943176
      19A     -0.937454    20A     -0.846596    21A     -0.798177
      22A     -0.773378    23A     -0.665618    24A     -0.649799
      25A     -0.631540    26A     -0.612089    27A     -0.593737
      28A     -0.588699    29A     -0.565995    30A     -0.554543
      31A     -0.545465    32A     -0.534058    33A     -0.518847
      34A     -0.507084    35A     -0.494134    36A     -0.481661
      37A     -0.479682    38A     -0.475866    39A     -0.472301
      40A     -0.404106    41A     -0.359844

  @DF-RHF Final Energy:  -746.88864725641122

   => Energetics <=

    Nuclear Repulsion Energy =            575.9789726491734427
    One-Electron Energy =               -2166.9410675728436217
    Two-Electron Energy =                 844.0734476672588471
    Total Energy =                       -746.8886472564112182
  Basis Set: (AUG-CC-PVTZ AUX)
    Blend: AUG-CC-PVTZ-RI
    Molecular point group: c1

    Geometry (in Angstrom), charge = 0, multiplicity = 1:

       Center              X                  Y                   Z               Mass
    ------------   -----------------  -----------------  -----------------  -----------------
         S           -0.255827414512    -0.550365146844    -0.158533829484    31.972071174400
         O           -0.281535414512    -1.207270146844     1.210167170516    15.994914619570
         C            2.403258585488     0.114351853156     0.168376170516    12.000000000000
         C            1.031687585488     0.733238853156    -0.094268829484    12.000000000000
         C           -1.668785414512     0.589272853156    -0.229699829484    12.000000000000
         C            2.870837585488    -0.754554146844    -0.997810829484    12.000000000000
         C            3.415961585488     1.218830853156     0.466111170516    12.000000000000
         C           -2.928870914512    -0.170545646844    -0.149452629484    12.000000000000
         C           -4.188205414512     0.724806853156    -0.128120829484    12.000000000000
         H            2.300251585488    -0.516149146844     1.060454170516     1.007825032230
         H            0.760737585488     1.417252853156     0.719316170516     1.007825032230
         H            1.016638585488     1.280776853156    -1.046216829484     1.007825032230
         H           -1.580818414512     1.278222853156     0.619038170516     1.007825032230
         H           -1.596319414512     1.159155853156    -1.164387829484     1.007825032230
         H            2.958669585488    -0.155172146844    -1.911356829484     1.007825032230
         H            3.853266585488    -1.185717146844    -0.783123829484     1.007825032230
         H            2.181816585488    -1.580059146844    -1.197759829484     1.007825032230
         H            3.528507585488     1.884378853156    -0.397025829484     1.007825032230
         H            4.397969585488     0.791246853156     0.691085170516     1.007825032230
         H            3.105315585488     1.822883853156     1.324201170516     1.007825032230
         H           -3.037757414512    -0.885920146844    -0.996534829484     1.007825032230
         H           -2.944926414512    -0.808945146844     0.759956170516     1.007825032230
         H           -4.152947414512     1.400159853156     0.731909170516     1.007825032230
         H           -4.235795414512     1.335340853156    -1.035056829484     1.007825032230
         H           -5.114017414512     0.146443853156    -0.062938829484     1.007825032230

  Basis Set: AUG-CC-PVTZ
    Blend: AUG-CC-PVTZ
  Basis Set: (AUG-CC-PVTZ AUX)
    Blend: AUG-CC-PVTZ-JKFIT
	 Reference Energy          =    -746.8886472564112182 [Eh]
	 Singles Energy            =      -0.0000000000000000 [Eh]
	 Same-Spin Energy          =      -0.4276230958285303 [Eh]
	 Opposite-Spin Energy      =      -1.4586884840455576 [Eh]
	 Correlation Energy        =      -1.8863115798740879 [Eh]
	 Total Energy              =    -748.7749588362853501 [Eh]

	 ================> DF-SCS-MP2 Energies <==================
	-----------------------------------------------------------
	 SCS Same-Spin Scale       =       0.3333333333333333 [-]
	 SCS Opposite-Spin Scale   =       1.2000000000000000 [-]
	 SCS Same-Spin Energy      =      -0.1425410319428434 [Eh]
	 SCS Opposite-Spin Energy  =      -1.7504261808546691 [Eh]
	 SCS Correlation Energy    =      -1.8929672127975126 [Eh]
	 SCS Total Energy          =    -748.7816144692087619 [Eh]
	-----------------------------------------------------------

  Dipole Moment: [D]
     X:    -0.0120      Y:     2.8858      Z:    -2.2685     Total:     3.6707

*** Psi4 exiting successfully. Buy a developer a beer!
