                               Psi4 1.4a3.dev225

  ==> Input File <==

--------------------------------------------------------------------------
#psi4
#
memory 32 gb

molecule  {
0 1
  S       -0.2613620    -0.5930190    -0.1424790
  O       -0.2870700    -1.2499240     1.2262220
  C        2.3977240     0.0716980     0.1844310
  C        1.0261530     0.6905850    -0.0782140
  C       -1.6743200     0.5466190    -0.2136450
  C        2.8653030    -0.7972080    -0.9817560
  C        3.4104270     1.1761770     0.4821660
  C       -2.9942618    -0.2492922    -0.1295859
  C       -4.1937400     0.6821530    -0.1120660
  H        2.2947170    -0.5588030     1.0765090
  H        0.7552030     1.3745990     0.7353710
  H        1.0111040     1.2381230    -1.0301620
  H       -1.5863530     1.2355690     0.6350930
  H       -1.6018540     1.1165020    -1.1483330
  H        2.9531350    -0.1978260    -1.8953020
  H        3.8477320    -1.2283710    -0.7670690
  H        2.1762820    -1.6227130    -1.1817050
  H        3.5229730     1.8417250    -0.3809710
  H        4.3924350     0.7485930     0.7071400
  H        3.0997810     1.7802300     1.3402560
  H       -3.0432920    -0.9285740    -0.9804800
  H       -2.9504610    -0.8515990     0.7760110
  H       -4.1584820     1.3575060     0.7479640
  H       -4.2413300     1.2926870    -1.0190020
  H       -5.1195520     0.1037900    -0.0468840
units angstrom
no_reorient  #important for SAPT in psi4, default
symmetry c1  #important for SAPT in psi4, default
}

set PROPERTIES_ORIGIN ["COM"]
properties('MP2/aug-cc-pvtz', properties = ['dipole'])
--------------------------------------------------------------------------

    Molecular point group: c1
  Charge       = 0
  Multiplicity = 1
  Basis Set: AUG-CC-PVTZ
    Blend: AUG-CC-PVTZ
  Basis Set: (AUG-CC-PVTZ AUX)
    Blend: AUG-CC-PVTZ-JKFIT

    Orbital Energies [Eh]
    ---------------------

    Doubly Occupied:

       1A    -92.057364     2A    -20.497229     3A    -11.262096
       4A    -11.259648     5A    -11.237607     6A    -11.233466
       7A    -11.223503     8A    -11.220956     9A    -11.217690
      10A     -9.044799    11A     -6.726399    12A     -6.726216
      13A     -6.724932    14A     -1.316852    15A     -1.109229
      16A     -1.083288    17A     -1.008291    18A     -0.941409
      19A     -0.937111    20A     -0.845388    21A     -0.800856
      22A     -0.772751    23A     -0.664154    24A     -0.649274
      25A     -0.629028    26A     -0.610783    27A     -0.592854
      28A     -0.587641    29A     -0.566673    30A     -0.554183
      31A     -0.545057    32A     -0.533002    33A     -0.514126
      34A     -0.506327    35A     -0.499738    36A     -0.488408
      37A     -0.479972    38A     -0.474527    39A     -0.471975
      40A     -0.403083    41A     -0.359137

  @DF-RHF Final Energy:  -746.89146870960747

   => Energetics <=

    Nuclear Repulsion Energy =            574.9952345870851786
    One-Electron Energy =               -2165.0193548764100342
    Two-Electron Energy =                 843.1326515797173897
    Total Energy =                       -746.8914687096074658
  Basis Set: (AUG-CC-PVTZ AUX)
    Blend: AUG-CC-PVTZ-RI
    Molecular point group: c1

    Geometry (in Angstrom), charge = 0, multiplicity = 1:

       Center              X                  Y                   Z               Mass
    ------------   -----------------  -----------------  -----------------  -----------------
         S           -0.250977222089    -0.547440533394    -0.158842710061    31.972071174400
         O           -0.276685222089    -1.204345533394     1.209858289939    15.994914619570
         C            2.408108777911     0.117276466606     0.168067289939    12.000000000000
         C            1.036537777911     0.736163466606    -0.094577710061    12.000000000000
         C           -1.663935222089     0.592197466606    -0.230008710061    12.000000000000
         C            2.875687777911    -0.751629533394    -0.998119710061    12.000000000000
         C            3.420811777911     1.221755466606     0.465802289939    12.000000000000
         C           -2.983877022089    -0.203713733394    -0.145949610061    12.000000000000
         C           -4.183355222089     0.727731466606    -0.128429710061    12.000000000000
         H            2.305101777911    -0.513224533394     1.060145289939     1.007825032230
         H            0.765587777911     1.420177466606     0.719007289939     1.007825032230
         H            1.021488777911     1.283701466606    -1.046525710061     1.007825032230
         H           -1.575968222089     1.281147466606     0.618729289939     1.007825032230
         H           -1.591469222089     1.162080466606    -1.164696710061     1.007825032230
         H            2.963519777911    -0.152247533394    -1.911665710061     1.007825032230
         H            3.858116777911    -1.182792533394    -0.783432710061     1.007825032230
         H            2.186666777911    -1.577134533394    -1.198068710061     1.007825032230
         H            3.533357777911     1.887303466606    -0.397334710061     1.007825032230
         H            4.402819777911     0.794171466606     0.690776289939     1.007825032230
         H            3.110165777911     1.825808466606     1.323892289939     1.007825032230
         H           -3.032907222089    -0.882995533394    -0.996843710061     1.007825032230
         H           -2.940076222089    -0.806020533394     0.759647289939     1.007825032230
         H           -4.148097222089     1.403084466606     0.731600289939     1.007825032230
         H           -4.230945222089     1.338265466606    -1.035365710061     1.007825032230
         H           -5.109167222089     0.149368466606    -0.063247710061     1.007825032230

  Basis Set: AUG-CC-PVTZ
    Blend: AUG-CC-PVTZ
  Basis Set: (AUG-CC-PVTZ AUX)
    Blend: AUG-CC-PVTZ-JKFIT
	 Reference Energy          =    -746.8914687096074658 [Eh]
	 Singles Energy            =      -0.0000000000000000 [Eh]
	 Same-Spin Energy          =      -0.4271781372498028 [Eh]
	 Opposite-Spin Energy      =      -1.4581622177681581 [Eh]
	 Correlation Energy        =      -1.8853403550179610 [Eh]
	 Total Energy              =    -748.7768090646254677 [Eh]

	 ================> DF-SCS-MP2 Energies <==================
	-----------------------------------------------------------
	 SCS Same-Spin Scale       =       0.3333333333333333 [-]
	 SCS Opposite-Spin Scale   =       1.2000000000000000 [-]
	 SCS Same-Spin Energy      =      -0.1423927124166009 [Eh]
	 SCS Opposite-Spin Energy  =      -1.7497946613217896 [Eh]
	 SCS Correlation Energy    =      -1.8921873737383905 [Eh]
	 SCS Total Energy          =    -748.7836560833458179 [Eh]
	-----------------------------------------------------------

  Dipole Moment: [D]
     X:    -0.0712      Y:     2.8870      Z:    -2.2813     Total:     3.6802

*** Psi4 exiting successfully. Buy a developer a beer!
