                               Psi4 1.4a3.dev225

  ==> Input File <==

--------------------------------------------------------------------------
#psi4
#
memory 32 gb

molecule  {
0 1
  S       -0.2613620    -0.5930190    -0.1424790
  O       -0.2870700    -1.2499240     1.2262220
  C        2.3977240     0.0716980     0.1844310
  C        1.0261530     0.6905850    -0.0782140
  C       -1.6743200     0.5466190    -0.2136450
  C        2.8653030    -0.7972080    -0.9817560
  C        3.4104270     1.1761770     0.4821660
  C       -2.9771600    -0.2389800    -0.1306750
  C       -4.1937400     0.6821530    -0.1120660
  H        2.2947170    -0.5588030     1.0765090
  H        0.7552030     1.3745990     0.7353710
  H        1.0111040     1.2381230    -1.0301620
  H       -1.5863530     1.2355690     0.6350930
  H       -1.6018540     1.1165020    -1.1483330
  H        2.9531350    -0.1978260    -1.8953020
  H        3.8477320    -1.2283710    -0.7670690
  H        2.1762820    -1.6227130    -1.1817050
  H        3.5229730     1.8417250    -0.3809710
  H        4.3915777     0.7661703     0.7410460
  H        3.0997810     1.7802300     1.3402560
  H       -3.0432920    -0.9285740    -0.9804800
  H       -2.9504610    -0.8515990     0.7760110
  H       -4.1584820     1.3575060     0.7479640
  H       -4.2413300     1.2926870    -1.0190020
  H       -5.1195520     0.1037900    -0.0468840
units angstrom
no_reorient  #important for SAPT in psi4, default
symmetry c1  #important for SAPT in psi4, default
}

set PROPERTIES_ORIGIN ["COM"]
properties('MP2/aug-cc-pvtz', properties = ['dipole'])
--------------------------------------------------------------------------

    Molecular point group: c1
  Charge       = 0
  Multiplicity = 1
  Basis Set: AUG-CC-PVTZ
    Blend: AUG-CC-PVTZ
  Basis Set: (AUG-CC-PVTZ AUX)
    Blend: AUG-CC-PVTZ-JKFIT

    Orbital Energies [Eh]
    ---------------------

    Doubly Occupied:

       1A    -92.057663     2A    -20.497496     3A    -11.261779
       4A    -11.259914     5A    -11.237935     6A    -11.233504
       7A    -11.223771     8A    -11.220975     9A    -11.217695
      10A     -9.045116    11A     -6.726714    12A     -6.726526
      13A     -6.725240    14A     -1.317151    15A     -1.109583
      16A     -1.085055    17A     -1.007600    18A     -0.941890
      19A     -0.937355    20A     -0.845697    21A     -0.800256
      22A     -0.773021    23A     -0.664621    24A     -0.649809
      25A     -0.629776    26A     -0.610079    27A     -0.592701
      28A     -0.588201    29A     -0.566543    30A     -0.554287
      31A     -0.545658    32A     -0.532540    33A     -0.514051
      34A     -0.506337    35A     -0.499409    36A     -0.486182
      37A     -0.479858    38A     -0.475841    39A     -0.472394
      40A     -0.403647    41A     -0.359400

  @DF-RHF Final Energy:  -746.89153377386867

   => Energetics <=

    Nuclear Repulsion Energy =            575.2398984442812662
    One-Electron Energy =               -2165.4963219346345795
    Two-Electron Energy =                 843.3648897164847540
    Total Energy =                       -746.8915337738686731
  Basis Set: (AUG-CC-PVTZ AUX)
    Blend: AUG-CC-PVTZ-RI
    Molecular point group: c1

    Geometry (in Angstrom), charge = 0, multiplicity = 1:

       Center              X                  Y                   Z               Mass
    ------------   -----------------  -----------------  -----------------  -----------------
         S           -0.252357157092    -0.548395757612    -0.158985203167    31.972071174400
         O           -0.278065157092    -1.205300757612     1.209715796833    15.994914619570
         C            2.406728842908     0.116321242388     0.167924796833    12.000000000000
         C            1.035157842908     0.735208242388    -0.094720203167    12.000000000000
         C           -1.665315157092     0.591242242388    -0.230151203167    12.000000000000
         C            2.874307842908    -0.752584757612    -0.998262203167    12.000000000000
         C            3.419431842908     1.220800242388     0.465659796833    12.000000000000
         C           -2.968155157092    -0.194356757612    -0.147181203167    12.000000000000
         C           -4.184735157092     0.726776242388    -0.128572203167    12.000000000000
         H            2.303721842908    -0.514179757612     1.060002796833     1.007825032230
         H            0.764207842908     1.419222242388     0.718864796833     1.007825032230
         H            1.020108842908     1.282746242388    -1.046668203167     1.007825032230
         H           -1.577348157092     1.280192242388     0.618586796833     1.007825032230
         H           -1.592849157092     1.161125242388    -1.164839203167     1.007825032230
         H            2.962139842908    -0.153202757612    -1.911808203167     1.007825032230
         H            3.856736842908    -1.183747757612    -0.783575203167     1.007825032230
         H            2.185286842908    -1.578089757612    -1.198211203167     1.007825032230
         H            3.531977842908     1.886348242388    -0.397477203167     1.007825032230
         H            4.400582542908     0.810793542388     0.724539796833     1.007825032230
         H            3.108785842908     1.824853242388     1.323749796833     1.007825032230
         H           -3.034287157092    -0.883950757612    -0.996986203167     1.007825032230
         H           -2.941456157092    -0.806975757612     0.759504796833     1.007825032230
         H           -4.149477157092     1.402129242388     0.731457796833     1.007825032230
         H           -4.232325157092     1.337310242388    -1.035508203167     1.007825032230
         H           -5.110547157092     0.148413242388    -0.063390203167     1.007825032230

  Basis Set: AUG-CC-PVTZ
    Blend: AUG-CC-PVTZ
  Basis Set: (AUG-CC-PVTZ AUX)
    Blend: AUG-CC-PVTZ-JKFIT
	 Reference Energy          =    -746.8915337738686731 [Eh]
	 Singles Energy            =      -0.0000000000000000 [Eh]
	 Same-Spin Energy          =      -0.4272512097726079 [Eh]
	 Opposite-Spin Energy      =      -1.4582153123284827 [Eh]
	 Correlation Energy        =      -1.8854665221010904 [Eh]
	 Total Energy              =    -748.7770002959697422 [Eh]

	 ================> DF-SCS-MP2 Energies <==================
	-----------------------------------------------------------
	 SCS Same-Spin Scale       =       0.3333333333333333 [-]
	 SCS Opposite-Spin Scale   =       1.2000000000000000 [-]
	 SCS Same-Spin Energy      =      -0.1424170699242026 [Eh]
	 SCS Opposite-Spin Energy  =      -1.7498583747941792 [Eh]
	 SCS Correlation Energy    =      -1.8922754447183818 [Eh]
	 SCS Total Energy          =    -748.7838092185870664 [Eh]
	-----------------------------------------------------------

  Dipole Moment: [D]
     X:    -0.0546      Y:     2.8887      Z:    -2.2657     Total:     3.6717

*** Psi4 exiting successfully. Buy a developer a beer!
