                               Psi4 1.4a3.dev225

  ==> Input File <==

--------------------------------------------------------------------------
#psi4
#
memory 32 gb

molecule  {
0 1
  S       -0.2613620    -0.5930190    -0.1424790
  O       -0.2870700    -1.2499240     1.2262220
  C        2.3977240     0.0716980     0.1844310
  C        1.0261530     0.6905850    -0.0782140
  C       -1.6743200     0.5466190    -0.2136450
  C        2.8653030    -0.7972080    -0.9817560
  C        3.4104270     1.1761770     0.4821660
  C       -2.9771600    -0.2389800    -0.1306750
  C       -4.1937400     0.6821530    -0.1120660
  H        2.2947170    -0.5588030     1.0765090
  H        0.7552030     1.3745990     0.7353710
  H        1.0111040     1.2381230    -1.0301620
  H       -1.5863530     1.2355690     0.6350930
  H       -1.6018540     1.1165020    -1.1483330
  H        2.9531350    -0.1978260    -1.8953020
  H        3.8477320    -1.2283710    -0.7670690
  H        2.1888818    -1.6076174    -1.1780486
  H        3.5229730     1.8417250    -0.3809710
  H        4.3924350     0.7485930     0.7071400
  H        3.0997810     1.7802300     1.3402560
  H       -3.0432920    -0.9285740    -0.9804800
  H       -2.9504610    -0.8515990     0.7760110
  H       -4.1584820     1.3575060     0.7479640
  H       -4.2413300     1.2926870    -1.0190020
  H       -5.1195520     0.1037900    -0.0468840
units angstrom
no_reorient  #important for SAPT in psi4, default
symmetry c1  #important for SAPT in psi4, default
}

set PROPERTIES_ORIGIN ["COM"]
properties('MP2/aug-cc-pvtz', properties = ['dipole'])
--------------------------------------------------------------------------

    Molecular point group: c1
  Charge       = 0
  Multiplicity = 1
  Basis Set: AUG-CC-PVTZ
    Blend: AUG-CC-PVTZ
  Basis Set: (AUG-CC-PVTZ AUX)
    Blend: AUG-CC-PVTZ-JKFIT

    Orbital Energies [Eh]
    ---------------------

    Doubly Occupied:

       1A    -92.057652     2A    -20.497498     3A    -11.261793
       4A    -11.259801     5A    -11.237543     6A    -11.233506
       7A    -11.223774     8A    -11.220867     9A    -11.215375
      10A     -9.045109    11A     -6.726709    12A     -6.726520
      13A     -6.725236    14A     -1.317154    15A     -1.109726
      16A     -1.085122    17A     -1.007751    18A     -0.942134
      19A     -0.938498    20A     -0.845732    21A     -0.800253
      22A     -0.773188    23A     -0.664584    24A     -0.649667
      25A     -0.629876    26A     -0.611480    27A     -0.593971
      28A     -0.587939    29A     -0.566711    30A     -0.554284
      31A     -0.545356    32A     -0.533206    33A     -0.514685
      34A     -0.506440    35A     -0.499432    36A     -0.486169
      37A     -0.480846    38A     -0.475593    39A     -0.472387
      40A     -0.403500    41A     -0.359461

  @DF-RHF Final Energy:  -746.89169973060780

   => Energetics <=

    Nuclear Repulsion Energy =            575.3457153055147728
    One-Electron Energy =               -2165.7017753068585080
    Two-Electron Energy =                 843.4643602707360515
    Total Energy =                       -746.8916997306077974
  Basis Set: (AUG-CC-PVTZ AUX)
    Blend: AUG-CC-PVTZ-RI
    Molecular point group: c1

    Geometry (in Angstrom), charge = 0, multiplicity = 1:

       Center              X                  Y                   Z               Mass
    ------------   -----------------  -----------------  -----------------  -----------------
         S           -0.252448737901    -0.548378868677    -0.158779342852    31.972071174400
         O           -0.278156737901    -1.205283868677     1.209921657148    15.994914619570
         C            2.406637262099     0.116338131323     0.168130657148    12.000000000000
         C            1.035066262099     0.735225131323    -0.094514342852    12.000000000000
         C           -1.665406737901     0.591259131323    -0.229945342852    12.000000000000
         C            2.874216262099    -0.752567868677    -0.998056342852    12.000000000000
         C            3.419340262099     1.220817131323     0.465865657148    12.000000000000
         C           -2.968246737901    -0.194339868677    -0.146975342852    12.000000000000
         C           -4.184826737901     0.726793131323    -0.128366342852    12.000000000000
         H            2.303630262099    -0.514162868677     1.060208657148     1.007825032230
         H            0.764116262099     1.419239131323     0.719070657148     1.007825032230
         H            1.020017262099     1.282763131323    -1.046462342852     1.007825032230
         H           -1.577439737901     1.280209131323     0.618792657148     1.007825032230
         H           -1.592940737901     1.161142131323    -1.164633342852     1.007825032230
         H            2.962048262099    -0.153185868677    -1.911602342852     1.007825032230
         H            3.856645262099    -1.183730868677    -0.783369342852     1.007825032230
         H            2.197795062099    -1.562977268677    -1.194348942852     1.007825032230
         H            3.531886262099     1.886365131323    -0.397271342852     1.007825032230
         H            4.401348262099     0.793233131323     0.690839657148     1.007825032230
         H            3.108694262099     1.824870131323     1.323955657148     1.007825032230
         H           -3.034378737901    -0.883933868677    -0.996780342852     1.007825032230
         H           -2.941547737901    -0.806958868677     0.759710657148     1.007825032230
         H           -4.149568737901     1.402146131323     0.731663657148     1.007825032230
         H           -4.232416737901     1.337327131323    -1.035302342852     1.007825032230
         H           -5.110638737901     0.148430131323    -0.063184342852     1.007825032230

  Basis Set: AUG-CC-PVTZ
    Blend: AUG-CC-PVTZ
  Basis Set: (AUG-CC-PVTZ AUX)
    Blend: AUG-CC-PVTZ-JKFIT
	 Reference Energy          =    -746.8916997306077974 [Eh]
	 Singles Energy            =      -0.0000000000000000 [Eh]
	 Same-Spin Energy          =      -0.4272472045300278 [Eh]
	 Opposite-Spin Energy      =      -1.4581022105801256 [Eh]
	 Correlation Energy        =      -1.8853494151101533 [Eh]
	 Total Energy              =    -748.7770491457179105 [Eh]

	 ================> DF-SCS-MP2 Energies <==================
	-----------------------------------------------------------
	 SCS Same-Spin Scale       =       0.3333333333333333 [-]
	 SCS Opposite-Spin Scale   =       1.2000000000000000 [-]
	 SCS Same-Spin Energy      =      -0.1424157348433426 [Eh]
	 SCS Opposite-Spin Energy  =      -1.7497226526961507 [Eh]
	 SCS Correlation Energy    =      -1.8921383875394933 [Eh]
	 SCS Total Energy          =    -748.7838381181472869 [Eh]
	-----------------------------------------------------------

  Dipole Moment: [D]
     X:    -0.0595      Y:     2.8785      Z:    -2.2817     Total:     3.6736

*** Psi4 exiting successfully. Buy a developer a beer!
