                               Psi4 1.4a3.dev225

  ==> Input File <==

--------------------------------------------------------------------------
#psi4
#
memory 32 gb

molecule  {
0 1
  S       -0.2613620    -0.5930190    -0.1424790
  O       -0.2870700    -1.2499240     1.2262220
  C        2.3977240     0.0716980     0.1844310
  C        1.0261530     0.6905850    -0.0782140
  C       -1.6743200     0.5466190    -0.2136450
  C        2.8653030    -0.7972080    -0.9817560
  C        3.4104270     1.1761770     0.4821660
  C       -2.9771600    -0.2389800    -0.1306750
  C       -4.1937400     0.6821530    -0.1120660
  H        2.3134926    -0.4438786     0.9139057
  H        0.7552030     1.3745990     0.7353710
  H        1.0111040     1.2381230    -1.0301620
  H       -1.5863530     1.2355690     0.6350930
  H       -1.6018540     1.1165020    -1.1483330
  H        2.9531350    -0.1978260    -1.8953020
  H        3.8477320    -1.2283710    -0.7670690
  H        2.1762820    -1.6227130    -1.1817050
  H        3.5229730     1.8417250    -0.3809710
  H        4.3924350     0.7485930     0.7071400
  H        3.0997810     1.7802300     1.3402560
  H       -3.0432920    -0.9285740    -0.9804800
  H       -2.9504610    -0.8515990     0.7760110
  H       -4.1584820     1.3575060     0.7479640
  H       -4.2413300     1.2926870    -1.0190020
  H       -5.1195520     0.1037900    -0.0468840
units angstrom
no_reorient  #important for SAPT in psi4, default
symmetry c1  #important for SAPT in psi4, default
}

set PROPERTIES_ORIGIN ["COM"]
properties('MP2/aug-cc-pvtz', properties = ['dipole'])
--------------------------------------------------------------------------

    Molecular point group: c1
  Charge       = 0
  Multiplicity = 1
  Basis Set: AUG-CC-PVTZ
    Blend: AUG-CC-PVTZ
  Basis Set: (AUG-CC-PVTZ AUX)
    Blend: AUG-CC-PVTZ-JKFIT

    Orbital Energies [Eh]
    ---------------------

    Doubly Occupied:

       1A    -92.057568     2A    -20.497737     3A    -11.261659
       4A    -11.258812     5A    -11.233443     6A    -11.223727
       7A    -11.220286     8A    -11.216881     9A    -11.214050
      10A     -9.045032    11A     -6.726630    12A     -6.726445
      13A     -6.725163    14A     -1.317372    15A     -1.118050
      16A     -1.086701    17A     -1.008742    18A     -0.941643
      19A     -0.936667    20A     -0.850028    21A     -0.810305
      22A     -0.793397    23A     -0.666795    24A     -0.652391
      25A     -0.629928    26A     -0.611302    27A     -0.594222
      28A     -0.588977    29A     -0.566439    30A     -0.554216
      31A     -0.545015    32A     -0.532999    33A     -0.513932
      34A     -0.506800    35A     -0.499438    36A     -0.497238
      37A     -0.485923    38A     -0.478932    39A     -0.474213
      40A     -0.403494    41A     -0.359412

  @DF-RHF Final Energy:  -746.85916603708790

   => Energetics <=

    Nuclear Repulsion Energy =            576.3362679592297582
    One-Electron Energy =               -2167.5268651696997040
    Two-Electron Energy =                 844.3314311733821569
    Total Energy =                       -746.8591660370879026
  Basis Set: (AUG-CC-PVTZ AUX)
    Blend: AUG-CC-PVTZ-RI
    Molecular point group: c1

    Geometry (in Angstrom), charge = 0, multiplicity = 1:

       Center              X                  Y                   Z               Mass
    ------------   -----------------  -----------------  -----------------  -----------------
         S           -0.252490766627    -0.549058242559    -0.157647880810    31.972071174400
         O           -0.278198766627    -1.205963242559     1.211053119190    15.994914619570
         C            2.406595233373     0.115658757441     0.169262119190    12.000000000000
         C            1.035024233373     0.734545757441    -0.093382880810    12.000000000000
         C           -1.665448766627     0.590579757441    -0.228813880810    12.000000000000
         C            2.874174233373    -0.753247242559    -0.996924880810    12.000000000000
         C            3.419298233373     1.220137757441     0.466997119190    12.000000000000
         C           -2.968288766627    -0.195019242559    -0.145843880810    12.000000000000
         C           -4.184868766627     0.726113757441    -0.127234880810    12.000000000000
         H            2.322363833373    -0.399917842559     0.898736819190     1.007825032230
         H            0.764074233373     1.418559757441     0.720202119190     1.007825032230
         H            1.019975233373     1.282083757441    -1.045330880810     1.007825032230
         H           -1.577481766627     1.279529757441     0.619924119190     1.007825032230
         H           -1.592982766627     1.160462757441    -1.163501880810     1.007825032230
         H            2.962006233373    -0.153865242559    -1.910470880810     1.007825032230
         H            3.856603233373    -1.184410242559    -0.782237880810     1.007825032230
         H            2.185153233373    -1.578752242559    -1.196873880810     1.007825032230
         H            3.531844233373     1.885685757441    -0.396139880810     1.007825032230
         H            4.401306233373     0.792553757441     0.691971119190     1.007825032230
         H            3.108652233373     1.824190757441     1.325087119190     1.007825032230
         H           -3.034420766627    -0.884613242559    -0.995648880810     1.007825032230
         H           -2.941589766627    -0.807638242559     0.760842119190     1.007825032230
         H           -4.149610766627     1.401466757441     0.732795119190     1.007825032230
         H           -4.232458766627     1.336647757441    -1.034170880810     1.007825032230
         H           -5.110680766627     0.147750757441    -0.062052880810     1.007825032230

  Basis Set: AUG-CC-PVTZ
    Blend: AUG-CC-PVTZ
  Basis Set: (AUG-CC-PVTZ AUX)
    Blend: AUG-CC-PVTZ-JKFIT
	 Reference Energy          =    -746.8591660370879026 [Eh]
	 Singles Energy            =      -0.0000000000000000 [Eh]
	 Same-Spin Energy          =      -0.4270153102738526 [Eh]
	 Opposite-Spin Energy      =      -1.4573650960546227 [Eh]
	 Correlation Energy        =      -1.8843804063284755 [Eh]
	 Total Energy              =    -748.7435464434163350 [Eh]

	 ================> DF-SCS-MP2 Energies <==================
	-----------------------------------------------------------
	 SCS Same-Spin Scale       =       0.3333333333333333 [-]
	 SCS Opposite-Spin Scale   =       1.2000000000000000 [-]
	 SCS Same-Spin Energy      =      -0.1423384367579509 [Eh]
	 SCS Opposite-Spin Energy  =      -1.7488381152655472 [Eh]
	 SCS Correlation Energy    =      -1.8911765520234980 [Eh]
	 SCS Total Energy          =    -748.7503425891113693 [Eh]
	-----------------------------------------------------------

  Dipole Moment: [D]
     X:    -0.0411      Y:     2.8803      Z:    -2.2541     Total:     3.6578

*** Psi4 exiting successfully. Buy a developer a beer!
