                               Psi4 1.4a3.dev225

  ==> Input File <==

--------------------------------------------------------------------------
#psi4
#
memory 32 gb

molecule  {
0 1
  S       -0.2613620    -0.5930190    -0.1424790
  O       -0.2870700    -1.2499240     1.2262220
  C        2.3977240     0.0716980     0.1844310
  C        0.9902392     0.6381340     0.0073796
  C       -1.6743200     0.5466190    -0.2136450
  C        2.8653030    -0.7972080    -0.9817560
  C        3.4104270     1.1761770     0.4821660
  C       -2.9771600    -0.2389800    -0.1306750
  C       -4.1937400     0.6821530    -0.1120660
  H        2.2947170    -0.5588030     1.0765090
  H        0.7552030     1.3745990     0.7353710
  H        1.0111040     1.2381230    -1.0301620
  H       -1.5863530     1.2355690     0.6350930
  H       -1.6018540     1.1165020    -1.1483330
  H        2.9531350    -0.1978260    -1.8953020
  H        3.8477320    -1.2283710    -0.7670690
  H        2.1762820    -1.6227130    -1.1817050
  H        3.5229730     1.8417250    -0.3809710
  H        4.3924350     0.7485930     0.7071400
  H        3.0997810     1.7802300     1.3402560
  H       -3.0432920    -0.9285740    -0.9804800
  H       -2.9504610    -0.8515990     0.7760110
  H       -4.1584820     1.3575060     0.7479640
  H       -4.2413300     1.2926870    -1.0190020
  H       -5.1195520     0.1037900    -0.0468840
units angstrom
no_reorient  #important for SAPT in psi4, default
symmetry c1  #important for SAPT in psi4, default
}

set PROPERTIES_ORIGIN ["COM"]
properties('MP2/aug-cc-pvtz', properties = ['dipole'])
--------------------------------------------------------------------------

    Molecular point group: c1
  Charge       = 0
  Multiplicity = 1
  Basis Set: AUG-CC-PVTZ
    Blend: AUG-CC-PVTZ
  Basis Set: (AUG-CC-PVTZ AUX)
    Blend: AUG-CC-PVTZ-JKFIT

    Orbital Energies [Eh]
    ---------------------

    Doubly Occupied:

       1A    -92.059325     2A    -20.494806     3A    -11.262425
       4A    -11.261902     5A    -11.238232     6A    -11.234390
       7A    -11.224388     8A    -11.221828     9A    -11.218501
      10A     -9.047315    11A     -6.729000    12A     -6.728739
      13A     -6.727383    14A     -1.318761    15A     -1.110495
      16A     -1.085707    17A     -1.012201    18A     -0.943271
      19A     -0.937385    20A     -0.847727    21A     -0.802751
      22A     -0.768994    23A     -0.664314    24A     -0.647838
      25A     -0.637258    26A     -0.611631    27A     -0.594656
      28A     -0.582155    29A     -0.566595    30A     -0.548739
      31A     -0.545470    32A     -0.535336    33A     -0.517324
      34A     -0.503656    35A     -0.500131    36A     -0.486910
      37A     -0.481010    38A     -0.478913    39A     -0.458954
      40A     -0.406002    41A     -0.363241

  @DF-RHF Final Energy:  -746.88169730253912

   => Energetics <=

    Nuclear Repulsion Energy =            576.3953929739667501
    One-Electron Energy =               -2167.7428578719632242
    Two-Electron Energy =                 844.4657675954572369
    Total Energy =                       -746.8816973025391235
  Basis Set: (AUG-CC-PVTZ AUX)
    Blend: AUG-CC-PVTZ-RI
    Molecular point group: c1

    Geometry (in Angstrom), charge = 0, multiplicity = 1:

       Center              X                  Y                   Z               Mass
    ------------   -----------------  -----------------  -----------------  -----------------
         S           -0.249452874278    -0.544026000780    -0.165690161134    31.972071174400
         O           -0.275160874278    -1.200931000780     1.203010838866    15.994914619570
         C            2.409633125722     0.120690999220     0.161219838866    12.000000000000
         C            1.002148325722     0.687126999220    -0.015831561134    12.000000000000
         C           -1.662410874278     0.595611999220    -0.236856161134    12.000000000000
         C            2.877212125722    -0.748215000780    -1.004967161134    12.000000000000
         C            3.422336125722     1.225169999220     0.458954838866    12.000000000000
         C           -2.965250874278    -0.189987000780    -0.153886161134    12.000000000000
         C           -4.181830874278     0.731145999220    -0.135277161134    12.000000000000
         H            2.306626125722    -0.509810000780     1.053297838866     1.007825032230
         H            0.767112125722     1.423591999220     0.712159838866     1.007825032230
         H            1.023013125722     1.287115999220    -1.053373161134     1.007825032230
         H           -1.574443874278     1.284561999220     0.611881838866     1.007825032230
         H           -1.589944874278     1.165494999220    -1.171544161134     1.007825032230
         H            2.965044125722    -0.148833000780    -1.918513161134     1.007825032230
         H            3.859641125722    -1.179378000780    -0.790280161134     1.007825032230
         H            2.188191125722    -1.573720000780    -1.204916161134     1.007825032230
         H            3.534882125722     1.890717999220    -0.404182161134     1.007825032230
         H            4.404344125722     0.797585999220     0.683928838866     1.007825032230
         H            3.111690125722     1.829222999220     1.317044838866     1.007825032230
         H           -3.031382874278    -0.879581000780    -1.003691161134     1.007825032230
         H           -2.938551874278    -0.802606000780     0.752799838866     1.007825032230
         H           -4.146572874278     1.406498999220     0.724752838866     1.007825032230
         H           -4.229420874278     1.341679999220    -1.042213161134     1.007825032230
         H           -5.107642874278     0.152782999220    -0.070095161134     1.007825032230

  Basis Set: AUG-CC-PVTZ
    Blend: AUG-CC-PVTZ
  Basis Set: (AUG-CC-PVTZ AUX)
    Blend: AUG-CC-PVTZ-JKFIT
	 Reference Energy          =    -746.8816973025391235 [Eh]
	 Singles Energy            =      -0.0000000000000000 [Eh]
	 Same-Spin Energy          =      -0.4275908294270786 [Eh]
	 Opposite-Spin Energy      =      -1.4586244113258799 [Eh]
	 Correlation Energy        =      -1.8862152407529584 [Eh]
	 Total Energy              =    -748.7679125432920273 [Eh]

	 ================> DF-SCS-MP2 Energies <==================
	-----------------------------------------------------------
	 SCS Same-Spin Scale       =       0.3333333333333333 [-]
	 SCS Opposite-Spin Scale   =       1.2000000000000000 [-]
	 SCS Same-Spin Energy      =      -0.1425302764756929 [Eh]
	 SCS Opposite-Spin Energy  =      -1.7503492935910558 [Eh]
	 SCS Correlation Energy    =      -1.8928795700667487 [Eh]
	 SCS Total Energy          =    -748.7745768726058486 [Eh]
	-----------------------------------------------------------

  Dipole Moment: [D]
     X:    -0.0451      Y:     2.8930      Z:    -2.2541     Total:     3.6678

*** Psi4 exiting successfully. Buy a developer a beer!
