                               Psi4 1.4a3.dev225

  ==> Input File <==

--------------------------------------------------------------------------
#psi4
#
memory 32 gb

molecule  {
0 1
  S       -0.2613620    -0.5930190    -0.1424790
  O       -0.2870700    -1.2499240     1.2262220
  C        2.3977240     0.0716980     0.1844310
  C        1.0261530     0.6905850    -0.0782140
  C       -1.6743200     0.5466190    -0.2136450
  C        2.8714247    -0.8085840    -0.9970240
  C        3.4104270     1.1761770     0.4821660
  C       -2.9771600    -0.2389800    -0.1306750
  C       -4.1937400     0.6821530    -0.1120660
  H        2.2947170    -0.5588030     1.0765090
  H        0.7552030     1.3745990     0.7353710
  H        1.0111040     1.2381230    -1.0301620
  H       -1.5863530     1.2355690     0.6350930
  H       -1.6018540     1.1165020    -1.1483330
  H        2.9531350    -0.1978260    -1.8953020
  H        3.8477320    -1.2283710    -0.7670690
  H        2.1762820    -1.6227130    -1.1817050
  H        3.5229730     1.8417250    -0.3809710
  H        4.3924350     0.7485930     0.7071400
  H        3.0997810     1.7802300     1.3402560
  H       -3.0432920    -0.9285740    -0.9804800
  H       -2.9504610    -0.8515990     0.7760110
  H       -4.1584820     1.3575060     0.7479640
  H       -4.2413300     1.2926870    -1.0190020
  H       -5.1195520     0.1037900    -0.0468840
units angstrom
no_reorient  #important for SAPT in psi4, default
symmetry c1  #important for SAPT in psi4, default
}

set PROPERTIES_ORIGIN ["COM"]
properties('MP2/aug-cc-pvtz', properties = ['dipole'])
--------------------------------------------------------------------------

    Molecular point group: c1
  Charge       = 0
  Multiplicity = 1
  Basis Set: AUG-CC-PVTZ
    Blend: AUG-CC-PVTZ
  Basis Set: (AUG-CC-PVTZ AUX)
    Blend: AUG-CC-PVTZ-JKFIT

    Orbital Energies [Eh]
    ---------------------

    Doubly Occupied:

       1A    -92.057583     2A    -20.497440     3A    -11.261732
       4A    -11.259787     5A    -11.238546     6A    -11.233468
       7A    -11.223745     8A    -11.221018     9A    -11.216925
      10A     -9.045040    11A     -6.726639    12A     -6.726450
      13A     -6.725167    14A     -1.317086    15A     -1.108009
      16A     -1.084553    17A     -1.007202    18A     -0.941867
      19A     -0.937436    20A     -0.845712    21A     -0.800160
      22A     -0.772682    23A     -0.664236    24A     -0.648774
      25A     -0.629567    26A     -0.610491    27A     -0.593233
      28A     -0.588011    29A     -0.566407    30A     -0.554381
      31A     -0.546658    32A     -0.534053    33A     -0.515249
      34A     -0.506298    35A     -0.499400    36A     -0.486163
      37A     -0.479410    38A     -0.476534    39A     -0.469882
      40A     -0.403453    41A     -0.359384

  @DF-RHF Final Energy:  -746.89154428409404

   => Energetics <=

    Nuclear Repulsion Energy =            574.9356393350316239
    One-Electron Energy =               -2164.8947043913781272
    Two-Electron Energy =                 843.0675207722523510
    Total Energy =                       -746.8915442840940386
  Basis Set: (AUG-CC-PVTZ AUX)
    Blend: AUG-CC-PVTZ-RI
    Molecular point group: c1

    Geometry (in Angstrom), charge = 0, multiplicity = 1:

       Center              X                  Y                   Z               Mass
    ------------   -----------------  -----------------  -----------------  -----------------
         S           -0.252859036430    -0.547354333032    -0.157517284292    31.972071174400
         O           -0.278567036430    -1.204259333032     1.211183715708    15.994914619570
         C            2.406226963570     0.117362666968     0.169392715708    12.000000000000
         C            1.034655963570     0.736249666968    -0.093252284292    12.000000000000
         C           -1.665817036430     0.592283666968    -0.228683284292    12.000000000000
         C            2.879927663570    -0.762919333032    -1.012062284292    12.000000000000
         C            3.418929963570     1.221841666968     0.467127715708    12.000000000000
         C           -2.968657036430    -0.193315333032    -0.145713284292    12.000000000000
         C           -4.185237036430     0.727817666968    -0.127104284292    12.000000000000
         H            2.303219963570    -0.513138333032     1.061470715708     1.007825032230
         H            0.763705963570     1.420263666968     0.720332715708     1.007825032230
         H            1.019606963570     1.283787666968    -1.045200284292     1.007825032230
         H           -1.577850036430     1.281233666968     0.620054715708     1.007825032230
         H           -1.593351036430     1.162166666968    -1.163371284292     1.007825032230
         H            2.961637963570    -0.152161333032    -1.910340284292     1.007825032230
         H            3.856234963570    -1.182706333032    -0.782107284292     1.007825032230
         H            2.184784963570    -1.577048333032    -1.196743284292     1.007825032230
         H            3.531475963570     1.887389666968    -0.396009284292     1.007825032230
         H            4.400937963570     0.794257666968     0.692101715708     1.007825032230
         H            3.108283963570     1.825894666968     1.325217715708     1.007825032230
         H           -3.034789036430    -0.882909333032    -0.995518284292     1.007825032230
         H           -2.941958036430    -0.805934333032     0.760972715708     1.007825032230
         H           -4.149979036430     1.403170666968     0.732925715708     1.007825032230
         H           -4.232827036430     1.338351666968    -1.034040284292     1.007825032230
         H           -5.111049036430     0.149454666968    -0.061922284292     1.007825032230

  Basis Set: AUG-CC-PVTZ
    Blend: AUG-CC-PVTZ
  Basis Set: (AUG-CC-PVTZ AUX)
    Blend: AUG-CC-PVTZ-JKFIT
	 Reference Energy          =    -746.8915442840940386 [Eh]
	 Singles Energy            =      -0.0000000000000000 [Eh]
	 Same-Spin Energy          =      -0.4271241865971379 [Eh]
	 Opposite-Spin Energy      =      -1.4581312200101466 [Eh]
	 Correlation Energy        =      -1.8852554066072846 [Eh]
	 Total Energy              =    -748.7767996907012957 [Eh]

	 ================> DF-SCS-MP2 Energies <==================
	-----------------------------------------------------------
	 SCS Same-Spin Scale       =       0.3333333333333333 [-]
	 SCS Opposite-Spin Scale   =       1.2000000000000000 [-]
	 SCS Same-Spin Energy      =      -0.1423747288657126 [Eh]
	 SCS Opposite-Spin Energy  =      -1.7497574640121758 [Eh]
	 SCS Correlation Energy    =      -1.8921321928778885 [Eh]
	 SCS Total Energy          =    -748.7836764769718911 [Eh]
	-----------------------------------------------------------

  Dipole Moment: [D]
     X:    -0.0535      Y:     2.8907      Z:    -2.2762     Total:     3.6797

*** Psi4 exiting successfully. Buy a developer a beer!
