                               Psi4 1.4a3.dev225

  ==> Input File <==

--------------------------------------------------------------------------
#psi4
#
memory 32 gb

molecule  {
0 1
  S       -0.2613620    -0.5930190    -0.1424790
  O       -0.2870700    -1.2499240     1.2262220
  C        2.3885721     0.0617394     0.2074046
  C        1.0261530     0.6905850    -0.0782140
  C       -1.6743200     0.5466190    -0.2136450
  C        2.8653030    -0.7972080    -0.9817560
  C        3.4104270     1.1761770     0.4821660
  C       -2.9771600    -0.2389800    -0.1306750
  C       -4.1937400     0.6821530    -0.1120660
  H        2.2947170    -0.5588030     1.0765090
  H        0.7552030     1.3745990     0.7353710
  H        1.0111040     1.2381230    -1.0301620
  H       -1.5863530     1.2355690     0.6350930
  H       -1.6018540     1.1165020    -1.1483330
  H        2.9531350    -0.1978260    -1.8953020
  H        3.8477320    -1.2283710    -0.7670690
  H        2.1762820    -1.6227130    -1.1817050
  H        3.5229730     1.8417250    -0.3809710
  H        4.3924350     0.7485930     0.7071400
  H        3.0997810     1.7802300     1.3402560
  H       -3.0432920    -0.9285740    -0.9804800
  H       -2.9504610    -0.8515990     0.7760110
  H       -4.1584820     1.3575060     0.7479640
  H       -4.2413300     1.2926870    -1.0190020
  H       -5.1195520     0.1037900    -0.0468840
units angstrom
no_reorient  #important for SAPT in psi4, default
symmetry c1  #important for SAPT in psi4, default
}

set PROPERTIES_ORIGIN ["COM"]
properties('MP2/aug-cc-pvtz', properties = ['dipole'])
--------------------------------------------------------------------------

    Molecular point group: c1
  Charge       = 0
  Multiplicity = 1
  Basis Set: AUG-CC-PVTZ
    Blend: AUG-CC-PVTZ
  Basis Set: (AUG-CC-PVTZ AUX)
    Blend: AUG-CC-PVTZ-JKFIT

    Orbital Energies [Eh]
    ---------------------

    Doubly Occupied:

       1A    -92.057345     2A    -20.497506     3A    -11.261587
       4A    -11.259885     5A    -11.237049     6A    -11.233366
       7A    -11.223675     8A    -11.221264     9A    -11.218045
      10A     -9.044836    11A     -6.726437    12A     -6.726238
      13A     -6.724957    14A     -1.317176    15A     -1.108484
      16A     -1.084570    17A     -1.006914    18A     -0.941481
      19A     -0.935091    20A     -0.845810    21A     -0.800466
      22A     -0.776644    23A     -0.664150    24A     -0.648551
      25A     -0.629368    26A     -0.610603    27A     -0.591973
      28A     -0.588017    29A     -0.565948    30A     -0.554415
      31A     -0.545254    32A     -0.532687    33A     -0.513803
      34A     -0.506055    35A     -0.499319    36A     -0.485960
      37A     -0.483003    38A     -0.475800    39A     -0.471881
      40A     -0.403172    41A     -0.359283

  @DF-RHF Final Energy:  -746.89118001032955

   => Energetics <=

    Nuclear Repulsion Energy =            575.2262591596339689
    One-Electron Energy =               -2165.4787356386837018
    Two-Electron Energy =                 843.3612964687200702
    Total Energy =                       -746.8911800103295491
  Basis Set: (AUG-CC-PVTZ AUX)
    Blend: AUG-CC-PVTZ-RI
    Molecular point group: c1

    Geometry (in Angstrom), charge = 0, multiplicity = 1:

       Center              X                  Y                   Z               Mass
    ------------   -----------------  -----------------  -----------------  -----------------
         S           -0.251621407325    -0.547469185817    -0.160616024417    31.972071174400
         O           -0.277329407325    -1.204374185817     1.208084975583    15.994914619570
         C            2.398312692675     0.107289214183     0.189267575583    12.000000000000
         C            1.035893592675     0.736134814183    -0.096351024417    12.000000000000
         C           -1.664579407325     0.592168814183    -0.231782024417    12.000000000000
         C            2.875043592675    -0.751658185817    -0.999893024417    12.000000000000
         C            3.420167592675     1.221726814183     0.464028975583    12.000000000000
         C           -2.967419407325    -0.193430185817    -0.148812024417    12.000000000000
         C           -4.183999407325     0.727702814183    -0.130203024417    12.000000000000
         H            2.304457592675    -0.513253185817     1.058371975583     1.007825032230
         H            0.764943592675     1.420148814183     0.717233975583     1.007825032230
         H            1.020844592675     1.283672814183    -1.048299024417     1.007825032230
         H           -1.576612407325     1.281118814183     0.616955975583     1.007825032230
         H           -1.592113407325     1.162051814183    -1.166470024417     1.007825032230
         H            2.962875592675    -0.152276185817    -1.913439024417     1.007825032230
         H            3.857472592675    -1.182821185817    -0.785206024417     1.007825032230
         H            2.186022592675    -1.577163185817    -1.199842024417     1.007825032230
         H            3.532713592675     1.887274814183    -0.399108024417     1.007825032230
         H            4.402175592675     0.794142814183     0.689002975583     1.007825032230
         H            3.109521592675     1.825779814183     1.322118975583     1.007825032230
         H           -3.033551407325    -0.883024185817    -0.998617024417     1.007825032230
         H           -2.940720407325    -0.806049185817     0.757873975583     1.007825032230
         H           -4.148741407325     1.403055814183     0.729826975583     1.007825032230
         H           -4.231589407325     1.338236814183    -1.037139024417     1.007825032230
         H           -5.109811407325     0.149339814183    -0.065021024417     1.007825032230

  Basis Set: AUG-CC-PVTZ
    Blend: AUG-CC-PVTZ
  Basis Set: (AUG-CC-PVTZ AUX)
    Blend: AUG-CC-PVTZ-JKFIT
	 Reference Energy          =    -746.8911800103295491 [Eh]
	 Singles Energy            =      -0.0000000000000000 [Eh]
	 Same-Spin Energy          =      -0.4271186160734670 [Eh]
	 Opposite-Spin Energy      =      -1.4581183147702539 [Eh]
	 Correlation Energy        =      -1.8852369308437209 [Eh]
	 Total Energy              =    -748.7764169411732382 [Eh]

	 ================> DF-SCS-MP2 Energies <==================
	-----------------------------------------------------------
	 SCS Same-Spin Scale       =       0.3333333333333333 [-]
	 SCS Opposite-Spin Scale   =       1.2000000000000000 [-]
	 SCS Same-Spin Energy      =      -0.1423728720244890 [Eh]
	 SCS Opposite-Spin Energy  =      -1.7497419777243046 [Eh]
	 SCS Correlation Energy    =      -1.8921148497487936 [Eh]
	 SCS Total Energy          =    -748.7832948600783993 [Eh]
	-----------------------------------------------------------

  Dipole Moment: [D]
     X:    -0.0491      Y:     2.8915      Z:    -2.2756     Total:     3.6798

*** Psi4 exiting successfully. Buy a developer a beer!
