                               Psi4 1.4a3.dev225

  ==> Input File <==

--------------------------------------------------------------------------
#psi4
#
memory 32 gb

molecule  {
0 1
  S       -0.2613620    -0.5930190    -0.1424790
  O       -0.2870700    -1.2499240     1.2262220
  C        2.3977240     0.0716980     0.1844310
  C        1.0261530     0.6905850    -0.0782140
  C       -1.6743200     0.5466190    -0.2136450
  C        2.8653030    -0.7972080    -0.9817560
  C        3.4104270     1.1761770     0.4821660
  C       -2.9771600    -0.2389800    -0.1306750
  C       -4.1937400     0.6821530    -0.1120660
  H        2.2947170    -0.5588030     1.0765090
  H        0.7552030     1.3745990     0.7353710
  H        1.0111040     1.2381230    -1.0301620
  H       -1.5863530     1.2355690     0.6350930
  H       -1.6031750     1.1061132    -1.1312940
  H        2.9531350    -0.1978260    -1.8953020
  H        3.8477320    -1.2283710    -0.7670690
  H        2.1762820    -1.6227130    -1.1817050
  H        3.5229730     1.8417250    -0.3809710
  H        4.3924350     0.7485930     0.7071400
  H        3.0997810     1.7802300     1.3402560
  H       -3.0432920    -0.9285740    -0.9804800
  H       -2.9504610    -0.8515990     0.7760110
  H       -4.1584820     1.3575060     0.7479640
  H       -4.2413300     1.2926870    -1.0190020
  H       -5.1195520     0.1037900    -0.0468840
units angstrom
no_reorient  #important for SAPT in psi4, default
symmetry c1  #important for SAPT in psi4, default
}

set PROPERTIES_ORIGIN ["COM"]
properties('MP2/aug-cc-pvtz', properties = ['dipole'])
--------------------------------------------------------------------------

    Molecular point group: c1
  Charge       = 0
  Multiplicity = 1
  Basis Set: AUG-CC-PVTZ
    Blend: AUG-CC-PVTZ
  Basis Set: (AUG-CC-PVTZ AUX)
    Blend: AUG-CC-PVTZ-JKFIT

    Orbital Energies [Eh]
    ---------------------

    Doubly Occupied:

       1A    -92.057456     2A    -20.497307     3A    -11.259844
       4A    -11.259401     5A    -11.237748     6A    -11.233297
       7A    -11.223734     8A    -11.221057     9A    -11.217796
      10A     -9.044927    11A     -6.726527    12A     -6.726340
      13A     -6.725053    14A     -1.316987    15A     -1.109762
      16A     -1.085598    17A     -1.007750    18A     -0.942540
      19A     -0.937221    20A     -0.845580    21A     -0.801554
      22A     -0.772974    23A     -0.665516    24A     -0.649981
      25A     -0.629622    26A     -0.611132    27A     -0.593132
      28A     -0.587946    29A     -0.567639    30A     -0.554180
      31A     -0.545219    32A     -0.533293    33A     -0.513986
      34A     -0.506457    35A     -0.499382    36A     -0.486662
      37A     -0.480027    38A     -0.475634    39A     -0.472497
      40A     -0.403409    41A     -0.359255

  @DF-RHF Final Energy:  -746.89174443174863

   => Energetics <=

    Nuclear Repulsion Energy =            575.3770607856384913
    One-Electron Energy =               -2165.7667673081728026
    Two-Electron Energy =                 843.4979620907855633
    Total Energy =                       -746.8917444317486343
  Basis Set: (AUG-CC-PVTZ AUX)
    Blend: AUG-CC-PVTZ-RI
    Molecular point group: c1

    Geometry (in Angstrom), charge = 0, multiplicity = 1:

       Center              X                  Y                   Z               Mass
    ------------   -----------------  -----------------  -----------------  -----------------
         S           -0.252354001433    -0.548205437405    -0.158870416660    31.972071174400
         O           -0.278062001433    -1.205110437405     1.209830583340    15.994914619570
         C            2.406731998567     0.116511562595     0.168039583340    12.000000000000
         C            1.035160998567     0.735398562595    -0.094605416660    12.000000000000
         C           -1.665312001433     0.591432562595    -0.230036416660    12.000000000000
         C            2.874310998567    -0.752394437405    -0.998147416660    12.000000000000
         C            3.419434998567     1.220990562595     0.465774583340    12.000000000000
         C           -2.968152001433    -0.194166437405    -0.147066416660    12.000000000000
         C           -4.184732001433     0.726966562595    -0.128457416660    12.000000000000
         H            2.303724998567    -0.513989437405     1.060117583340     1.007825032230
         H            0.764210998567     1.419412562595     0.718979583340     1.007825032230
         H            1.020111998567     1.282936562595    -1.046553416660     1.007825032230
         H           -1.577345001433     1.280382562595     0.618701583340     1.007825032230
         H           -1.594167001433     1.150926762595    -1.147685416660     1.007825032230
         H            2.962142998567    -0.153012437405    -1.911693416660     1.007825032230
         H            3.856739998567    -1.183557437405    -0.783460416660     1.007825032230
         H            2.185289998567    -1.577899437405    -1.198096416660     1.007825032230
         H            3.531980998567     1.886538562595    -0.397362416660     1.007825032230
         H            4.401442998567     0.793406562595     0.690748583340     1.007825032230
         H            3.108788998567     1.825043562595     1.323864583340     1.007825032230
         H           -3.034284001433    -0.883760437405    -0.996871416660     1.007825032230
         H           -2.941453001433    -0.806785437405     0.759619583340     1.007825032230
         H           -4.149474001433     1.402319562595     0.731572583340     1.007825032230
         H           -4.232322001433     1.337500562595    -1.035393416660     1.007825032230
         H           -5.110544001433     0.148603562595    -0.063275416660     1.007825032230

  Basis Set: AUG-CC-PVTZ
    Blend: AUG-CC-PVTZ
  Basis Set: (AUG-CC-PVTZ AUX)
    Blend: AUG-CC-PVTZ-JKFIT
	 Reference Energy          =    -746.8917444317486343 [Eh]
	 Singles Energy            =      -0.0000000000000000 [Eh]
	 Same-Spin Energy          =      -0.4272328964436689 [Eh]
	 Opposite-Spin Energy      =      -1.4580976185600738 [Eh]
	 Correlation Energy        =      -1.8853305150037427 [Eh]
	 Total Energy              =    -748.7770749467523501 [Eh]

	 ================> DF-SCS-MP2 Energies <==================
	-----------------------------------------------------------
	 SCS Same-Spin Scale       =       0.3333333333333333 [-]
	 SCS Opposite-Spin Scale   =       1.2000000000000000 [-]
	 SCS Same-Spin Energy      =      -0.1424109654812230 [Eh]
	 SCS Opposite-Spin Energy  =      -1.7497171422720885 [Eh]
	 SCS Correlation Energy    =      -1.8921281077533114 [Eh]
	 SCS Total Energy          =    -748.7838725395019992 [Eh]
	-----------------------------------------------------------

  Dipole Moment: [D]
     X:    -0.0509      Y:     2.8924      Z:    -2.2838     Total:     3.6857

*** Psi4 exiting successfully. Buy a developer a beer!
