                               Psi4 1.4a3.dev225

  ==> Input File <==

--------------------------------------------------------------------------
#psi4
#
memory 32 gb

molecule  {
0 1
  S       -0.2613620    -0.5930190    -0.1424790
  O       -0.2870700    -1.2499240     1.2262220
  C        2.3977240     0.0716980     0.1844310
  C        1.0261530     0.6905850    -0.0782140
  C       -1.6743200     0.5466190    -0.2136450
  C        2.8653030    -0.7972080    -0.9817560
  C        3.4069610     1.1856834     0.4574961
  C       -2.9771600    -0.2389800    -0.1306750
  C       -4.1937400     0.6821530    -0.1120660
  H        2.2947170    -0.5588030     1.0765090
  H        0.7552030     1.3745990     0.7353710
  H        1.0111040     1.2381230    -1.0301620
  H       -1.5863530     1.2355690     0.6350930
  H       -1.6018540     1.1165020    -1.1483330
  H        2.9531350    -0.1978260    -1.8953020
  H        3.8477320    -1.2283710    -0.7670690
  H        2.1762820    -1.6227130    -1.1817050
  H        3.5229730     1.8417250    -0.3809710
  H        4.3924350     0.7485930     0.7071400
  H        3.0997810     1.7802300     1.3402560
  H       -3.0432920    -0.9285740    -0.9804800
  H       -2.9504610    -0.8515990     0.7760110
  H       -4.1584820     1.3575060     0.7479640
  H       -4.2413300     1.2926870    -1.0190020
  H       -5.1195520     0.1037900    -0.0468840
units angstrom
no_reorient  #important for SAPT in psi4, default
symmetry c1  #important for SAPT in psi4, default
}

set PROPERTIES_ORIGIN ["COM"]
properties('MP2/aug-cc-pvtz', properties = ['dipole'])
--------------------------------------------------------------------------

    Molecular point group: c1
  Charge       = 0
  Multiplicity = 1
  Basis Set: AUG-CC-PVTZ
    Blend: AUG-CC-PVTZ
  Basis Set: (AUG-CC-PVTZ AUX)
    Blend: AUG-CC-PVTZ-JKFIT

    Orbital Energies [Eh]
    ---------------------

    Doubly Occupied:

       1A    -92.057454     2A    -20.497454     3A    -11.261663
       4A    -11.259690     5A    -11.237902     6A    -11.233420
       7A    -11.223711     8A    -11.221109     9A    -11.217618
      10A     -9.044922    11A     -6.726521    12A     -6.726331
      13A     -6.725047    14A     -1.317099    15A     -1.109860
      16A     -1.085074    17A     -1.007624    18A     -0.941884
      19A     -0.936952    20A     -0.845646    21A     -0.800196
      22A     -0.773409    23A     -0.664642    24A     -0.649450
      25A     -0.629923    26A     -0.609487    27A     -0.592192
      28A     -0.588836    29A     -0.566253    30A     -0.555326
      31A     -0.548806    32A     -0.530053    33A     -0.513935
      34A     -0.505898    35A     -0.499241    36A     -0.486049
      37A     -0.479577    38A     -0.475751    39A     -0.473321
      40A     -0.403164    41A     -0.359296

  @DF-RHF Final Energy:  -746.89083139096101

   => Energetics <=

    Nuclear Repulsion Energy =            575.3333320018570021
    One-Electron Energy =               -2165.6847602469483718
    Two-Electron Energy =                 843.4605968541304719
    Total Energy =                       -746.8908313909610115
  Basis Set: (AUG-CC-PVTZ AUX)
    Blend: AUG-CC-PVTZ-RI
    Molecular point group: c1

    Geometry (in Angstrom), charge = 0, multiplicity = 1:

       Center              X                  Y                   Z               Mass
    ------------   -----------------  -----------------  -----------------  -----------------
         S           -0.252082139263    -0.549046446615    -0.156755442612    31.972071174400
         O           -0.277790139263    -1.205951446615     1.211945557388    15.994914619570
         C            2.407003860737     0.115670553385     0.170154557388    12.000000000000
         C            1.035432860737     0.734557553385    -0.092490442612    12.000000000000
         C           -1.665040139263     0.590591553385    -0.227921442612    12.000000000000
         C            2.874582860737    -0.753235446615    -0.996032442612    12.000000000000
         C            3.416240860737     1.229655953385     0.443219657388    12.000000000000
         C           -2.967880139263    -0.195007446615    -0.144951442612    12.000000000000
         C           -4.184460139263     0.726125553385    -0.126342442612    12.000000000000
         H            2.303996860737    -0.514830446615     1.062232557388     1.007825032230
         H            0.764482860737     1.418571553385     0.721094557388     1.007825032230
         H            1.020383860737     1.282095553385    -1.044438442612     1.007825032230
         H           -1.577073139263     1.279541553385     0.620816557388     1.007825032230
         H           -1.592574139263     1.160474553385    -1.162609442612     1.007825032230
         H            2.962414860737    -0.153853446615    -1.909578442612     1.007825032230
         H            3.857011860737    -1.184398446615    -0.781345442612     1.007825032230
         H            2.185561860737    -1.578740446615    -1.195981442612     1.007825032230
         H            3.532252860737     1.885697553385    -0.395247442612     1.007825032230
         H            4.401714860737     0.792565553385     0.692863557388     1.007825032230
         H            3.109060860737     1.824202553385     1.325979557388     1.007825032230
         H           -3.034012139263    -0.884601446615    -0.994756442612     1.007825032230
         H           -2.941181139263    -0.807626446615     0.761734557388     1.007825032230
         H           -4.149202139263     1.401478553385     0.733687557388     1.007825032230
         H           -4.232050139263     1.336659553385    -1.033278442612     1.007825032230
         H           -5.110272139263     0.147762553385    -0.061160442612     1.007825032230

  Basis Set: AUG-CC-PVTZ
    Blend: AUG-CC-PVTZ
  Basis Set: (AUG-CC-PVTZ AUX)
    Blend: AUG-CC-PVTZ-JKFIT
	 Reference Energy          =    -746.8908313909610115 [Eh]
	 Singles Energy            =      -0.0000000000000000 [Eh]
	 Same-Spin Energy          =      -0.4272942077934711 [Eh]
	 Opposite-Spin Energy      =      -1.4583042989289106 [Eh]
	 Correlation Energy        =      -1.8855985067223817 [Eh]
	 Total Energy              =    -748.7764298976834425 [Eh]

	 ================> DF-SCS-MP2 Energies <==================
	-----------------------------------------------------------
	 SCS Same-Spin Scale       =       0.3333333333333333 [-]
	 SCS Opposite-Spin Scale   =       1.2000000000000000 [-]
	 SCS Same-Spin Energy      =      -0.1424314025978237 [Eh]
	 SCS Opposite-Spin Energy  =      -1.7499651587146927 [Eh]
	 SCS Correlation Energy    =      -1.8923965613125164 [Eh]
	 SCS Total Energy          =    -748.7832279522734780 [Eh]
	-----------------------------------------------------------

  Dipole Moment: [D]
     X:    -0.0481      Y:     2.8955      Z:    -2.2903     Total:     3.6921

*** Psi4 exiting successfully. Buy a developer a beer!
