                               Psi4 1.4a3.dev225

  ==> Input File <==

--------------------------------------------------------------------------
#psi4
#
memory 32 gb

molecule  {
0 1
  S       -0.2613620    -0.5930190    -0.1424790
  O       -0.2870700    -1.2499240     1.2262220
  C        2.4430132     0.0600488     0.2100502
  C        1.0261530     0.6905850    -0.0782140
  C       -1.6743200     0.5466190    -0.2136450
  C        2.8653030    -0.7972080    -0.9817560
  C        3.4104270     1.1761770     0.4821660
  C       -2.9771600    -0.2389800    -0.1306750
  C       -4.1937400     0.6821530    -0.1120660
  H        2.2947170    -0.5588030     1.0765090
  H        0.7552030     1.3745990     0.7353710
  H        1.0111040     1.2381230    -1.0301620
  H       -1.5863530     1.2355690     0.6350930
  H       -1.6018540     1.1165020    -1.1483330
  H        2.9531350    -0.1978260    -1.8953020
  H        3.8477320    -1.2283710    -0.7670690
  H        2.1762820    -1.6227130    -1.1817050
  H        3.5229730     1.8417250    -0.3809710
  H        4.3924350     0.7485930     0.7071400
  H        3.0997810     1.7802300     1.3402560
  H       -3.0432920    -0.9285740    -0.9804800
  H       -2.9504610    -0.8515990     0.7760110
  H       -4.1584820     1.3575060     0.7479640
  H       -4.2413300     1.2926870    -1.0190020
  H       -5.1195520     0.1037900    -0.0468840
units angstrom
no_reorient  #important for SAPT in psi4, default
symmetry c1  #important for SAPT in psi4, default
}

set PROPERTIES_ORIGIN ["COM"]
properties('MP2/aug-cc-pvtz', properties = ['dipole'])
--------------------------------------------------------------------------

    Molecular point group: c1
  Charge       = 0
  Multiplicity = 1
  Basis Set: AUG-CC-PVTZ
    Blend: AUG-CC-PVTZ
  Basis Set: (AUG-CC-PVTZ AUX)
    Blend: AUG-CC-PVTZ-JKFIT

    Orbital Energies [Eh]
    ---------------------

    Doubly Occupied:

       1A    -92.057012     2A    -20.496843     3A    -11.261137
       4A    -11.259889     5A    -11.238397     6A    -11.233056
       7A    -11.223444     8A    -11.220606     9A    -11.218041
      10A     -9.044396    11A     -6.725993    12A     -6.725823
      13A     -6.724536    14A     -1.316419    15A     -1.106679
      16A     -1.084810    17A     -1.008260    18A     -0.940552
      19A     -0.938566    20A     -0.843056    21A     -0.799619
      22A     -0.776068    23A     -0.662861    24A     -0.648326
      25A     -0.627924    26A     -0.610782    27A     -0.594222
      28A     -0.588068    29A     -0.566035    30A     -0.553800
      31A     -0.547729    32A     -0.532819    33A     -0.512196
      34A     -0.506222    35A     -0.498544    36A     -0.489076
      37A     -0.484270    38A     -0.480178    39A     -0.462706
      40A     -0.402188    41A     -0.358883

  @DF-RHF Final Energy:  -746.88941762651109

   => Energetics <=

    Nuclear Repulsion Energy =            574.6535945846781033
    One-Electron Energy =               -2164.3459623738185655
    Two-Electron Energy =                 842.8029501626293722
    Total Energy =                       -746.8894176265110900
  Basis Set: (AUG-CC-PVTZ AUX)
    Blend: AUG-CC-PVTZ-RI
    Molecular point group: c1

    Geometry (in Angstrom), charge = 0, multiplicity = 1:

       Center              X                  Y                   Z               Mass
    ------------   -----------------  -----------------  -----------------  -----------------
         S           -0.256032802796    -0.547332195470    -0.160830398996    31.972071174400
         O           -0.281740802796    -1.204237195470     1.207870601004    15.994914619570
         C            2.448342397204     0.105735604530     0.191698801004    12.000000000000
         C            1.031482197204     0.736271804530    -0.096565398996    12.000000000000
         C           -1.668990802796     0.592305804530    -0.231996398996    12.000000000000
         C            2.870632197204    -0.751521195470    -1.000107398996    12.000000000000
         C            3.415756197204     1.221863804530     0.463814601004    12.000000000000
         C           -2.971830802796    -0.193293195470    -0.149026398996    12.000000000000
         C           -4.188410802796     0.727839804530    -0.130417398996    12.000000000000
         H            2.300046197204    -0.513116195470     1.058157601004     1.007825032230
         H            0.760532197204     1.420285804530     0.717019601004     1.007825032230
         H            1.016433197204     1.283809804530    -1.048513398996     1.007825032230
         H           -1.581023802796     1.281255804530     0.616741601004     1.007825032230
         H           -1.596524802796     1.162188804530    -1.166684398996     1.007825032230
         H            2.958464197204    -0.152139195470    -1.913653398996     1.007825032230
         H            3.853061197204    -1.182684195470    -0.785420398996     1.007825032230
         H            2.181611197204    -1.577026195470    -1.200056398996     1.007825032230
         H            3.528302197204     1.887411804530    -0.399322398996     1.007825032230
         H            4.397764197204     0.794279804530     0.688788601004     1.007825032230
         H            3.105110197204     1.825916804530     1.321904601004     1.007825032230
         H           -3.037962802796    -0.882887195470    -0.998831398996     1.007825032230
         H           -2.945131802796    -0.805912195470     0.757659601004     1.007825032230
         H           -4.153152802796     1.403192804530     0.729612601004     1.007825032230
         H           -4.236000802796     1.338373804530    -1.037353398996     1.007825032230
         H           -5.114222802796     0.149476804530    -0.065235398996     1.007825032230

  Basis Set: AUG-CC-PVTZ
    Blend: AUG-CC-PVTZ
  Basis Set: (AUG-CC-PVTZ AUX)
    Blend: AUG-CC-PVTZ-JKFIT
	 Reference Energy          =    -746.8894176265110900 [Eh]
	 Singles Energy            =      -0.0000000000000000 [Eh]
	 Same-Spin Energy          =      -0.4271517005198531 [Eh]
	 Opposite-Spin Energy      =      -1.4581665347192883 [Eh]
	 Correlation Energy        =      -1.8853182352391413 [Eh]
	 Total Energy              =    -748.7747358617502869 [Eh]

	 ================> DF-SCS-MP2 Energies <==================
	-----------------------------------------------------------
	 SCS Same-Spin Scale       =       0.3333333333333333 [-]
	 SCS Opposite-Spin Scale   =       1.2000000000000000 [-]
	 SCS Same-Spin Energy      =      -0.1423839001732843 [Eh]
	 SCS Opposite-Spin Energy  =      -1.7497998416631459 [Eh]
	 SCS Correlation Energy    =      -1.8921837418364302 [Eh]
	 SCS Total Energy          =    -748.7816013683475376 [Eh]
	-----------------------------------------------------------

  Dipole Moment: [D]
     X:    -0.0002      Y:     2.8988      Z:    -2.2762     Total:     3.6856

*** Psi4 exiting successfully. Buy a developer a beer!
