                               Psi4 1.4a3.dev225

  ==> Input File <==

--------------------------------------------------------------------------
#psi4
#
memory 32 gb

molecule  {
0 1
  S       -0.2613620    -0.5930190    -0.1424790
  O       -0.2870700    -1.2499240     1.2262220
  C        2.3977240     0.0716980     0.1844310
  C        1.0261530     0.6905850    -0.0782140
  C       -1.6743200     0.5466190    -0.2136450
  C        2.7760739    -0.8543944    -0.9700490
  C        3.4104270     1.1761770     0.4821660
  C       -2.9771600    -0.2389800    -0.1306750
  C       -4.1937400     0.6821530    -0.1120660
  H        2.2947170    -0.5588030     1.0765090
  H        0.7552030     1.3745990     0.7353710
  H        1.0111040     1.2381230    -1.0301620
  H       -1.5863530     1.2355690     0.6350930
  H       -1.6018540     1.1165020    -1.1483330
  H        2.9531350    -0.1978260    -1.8953020
  H        3.8477320    -1.2283710    -0.7670690
  H        2.1762820    -1.6227130    -1.1817050
  H        3.5229730     1.8417250    -0.3809710
  H        4.3924350     0.7485930     0.7071400
  H        3.0997810     1.7802300     1.3402560
  H       -3.0432920    -0.9285740    -0.9804800
  H       -2.9504610    -0.8515990     0.7760110
  H       -4.1584820     1.3575060     0.7479640
  H       -4.2413300     1.2926870    -1.0190020
  H       -5.1195520     0.1037900    -0.0468840
units angstrom
no_reorient  #important for SAPT in psi4, default
symmetry c1  #important for SAPT in psi4, default
}

set PROPERTIES_ORIGIN ["COM"]
properties('MP2/aug-cc-pvtz', properties = ['dipole'])
--------------------------------------------------------------------------

    Molecular point group: c1
  Charge       = 0
  Multiplicity = 1
  Basis Set: AUG-CC-PVTZ
    Blend: AUG-CC-PVTZ
  Basis Set: (AUG-CC-PVTZ AUX)
    Blend: AUG-CC-PVTZ-JKFIT

    Orbital Energies [Eh]
    ---------------------

    Doubly Occupied:

       1A    -92.057741     2A    -20.497620     3A    -11.261860
       4A    -11.258763     5A    -11.238943     6A    -11.233562
       7A    -11.223816     8A    -11.223561     9A    -11.220232
      10A     -9.045225    11A     -6.726826    12A     -6.726639
      13A     -6.725356    14A     -1.317313    15A     -1.110179
      16A     -1.085142    17A     -1.006874    18A     -0.942574
      19A     -0.940659    20A     -0.845771    21A     -0.800610
      22A     -0.773064    23A     -0.664747    24A     -0.652683
      25A     -0.630334    26A     -0.615350    27A     -0.597809
      28A     -0.585981    29A     -0.566821    30A     -0.554346
      31A     -0.543840    32A     -0.526975    33A     -0.514742
      34A     -0.507416    35A     -0.499144    36A     -0.492665
      37A     -0.485468    38A     -0.467216    39A     -0.464532
      40A     -0.403619    41A     -0.359917

  @DF-RHF Final Energy:  -746.87789378333810

   => Energetics <=

    Nuclear Repulsion Energy =            575.9028618875920529
    One-Electron Energy =               -2166.7696360653039847
    Two-Electron Energy =                 843.9888803943738367
    Total Energy =                       -746.8778937833380951
  Basis Set: (AUG-CC-PVTZ AUX)
    Blend: AUG-CC-PVTZ-RI
    Molecular point group: c1

    Geometry (in Angstrom), charge = 0, multiplicity = 1:

       Center              X                  Y                   Z               Mass
    ------------   -----------------  -----------------  -----------------  -----------------
         S           -0.245132703066    -0.543642288435    -0.159703084961    31.972071174400
         O           -0.270840703066    -1.200547288435     1.208997915039    15.994914619570
         C            2.413953296934     0.121074711565     0.167206915039    12.000000000000
         C            1.042382296934     0.739961711565    -0.095438084961    12.000000000000
         C           -1.658090703066     0.595995711565    -0.230869084961    12.000000000000
         C            2.792303196934    -0.805017688435    -0.987273084961    12.000000000000
         C            3.426656296934     1.225553711565     0.464941915039    12.000000000000
         C           -2.960930703066    -0.189603288435    -0.147899084961    12.000000000000
         C           -4.177510703066     0.731529711565    -0.129290084961    12.000000000000
         H            2.310946296934    -0.509426288435     1.059284915039     1.007825032230
         H            0.771432296934     1.423975711565     0.718146915039     1.007825032230
         H            1.027333296934     1.287499711565    -1.047386084961     1.007825032230
         H           -1.570123703066     1.284945711565     0.617868915039     1.007825032230
         H           -1.585624703066     1.165878711565    -1.165557084961     1.007825032230
         H            2.969364296934    -0.148449288435    -1.912526084961     1.007825032230
         H            3.863961296934    -1.178994288435    -0.784293084961     1.007825032230
         H            2.192511296934    -1.573336288435    -1.198929084961     1.007825032230
         H            3.539202296934     1.891101711565    -0.398195084961     1.007825032230
         H            4.408664296934     0.797969711565     0.689915915039     1.007825032230
         H            3.116010296934     1.829606711565     1.323031915039     1.007825032230
         H           -3.027062703066    -0.879197288435    -0.997704084961     1.007825032230
         H           -2.934231703066    -0.802222288435     0.758786915039     1.007825032230
         H           -4.142252703066     1.406882711565     0.730739915039     1.007825032230
         H           -4.225100703066     1.342063711565    -1.036226084961     1.007825032230
         H           -5.103322703066     0.153166711565    -0.064108084961     1.007825032230

  Basis Set: AUG-CC-PVTZ
    Blend: AUG-CC-PVTZ
  Basis Set: (AUG-CC-PVTZ AUX)
    Blend: AUG-CC-PVTZ-JKFIT
	 Reference Energy          =    -746.8778937833380951 [Eh]
	 Singles Energy            =      -0.0000000000000000 [Eh]
	 Same-Spin Energy          =      -0.4275210882567169 [Eh]
	 Opposite-Spin Energy      =      -1.4589284984956010 [Eh]
	 Correlation Energy        =      -1.8864495867523179 [Eh]
	 Total Energy              =    -748.7643433700903870 [Eh]

	 ================> DF-SCS-MP2 Energies <==================
	-----------------------------------------------------------
	 SCS Same-Spin Scale       =       0.3333333333333333 [-]
	 SCS Opposite-Spin Scale   =       1.2000000000000000 [-]
	 SCS Same-Spin Energy      =      -0.1425070294189056 [Eh]
	 SCS Opposite-Spin Energy  =      -1.7507141981947212 [Eh]
	 SCS Correlation Energy    =      -1.8932212276136269 [Eh]
	 SCS Total Energy          =    -748.7711150109516893 [Eh]
	-----------------------------------------------------------

  Dipole Moment: [D]
     X:    -0.0609      Y:     2.9058      Z:    -2.2337     Total:     3.6656

*** Psi4 exiting successfully. Buy a developer a beer!
