                               Psi4 1.4a3.dev225

  ==> Input File <==

--------------------------------------------------------------------------
#psi4
#
memory 32 gb

molecule  {
0 1
  S       -0.2613620    -0.5930190    -0.1424790
  O       -0.2870700    -1.2499240     1.2262220
  C        2.3977240     0.0716980     0.1844310
  C        1.0261530     0.6905850    -0.0782140
  C       -1.6743200     0.5466190    -0.2136450
  C        2.8653030    -0.7972080    -0.9817560
  C        3.4104270     1.1761770     0.4821660
  C       -2.9771600    -0.2389800    -0.1306750
  C       -4.1937400     0.6821530    -0.1120660
  H        2.2947170    -0.5588030     1.0765090
  H        0.7552030     1.3745990     0.7353710
  H        1.0111040     1.2381230    -1.0301620
  H       -1.5863530     1.2355690     0.6350930
  H       -1.6084591     1.0645582    -1.0631379
  H        2.9531350    -0.1978260    -1.8953020
  H        3.8477320    -1.2283710    -0.7670690
  H        2.1762820    -1.6227130    -1.1817050
  H        3.5229730     1.8417250    -0.3809710
  H        4.3924350     0.7485930     0.7071400
  H        3.0997810     1.7802300     1.3402560
  H       -3.0432920    -0.9285740    -0.9804800
  H       -2.9504610    -0.8515990     0.7760110
  H       -4.1584820     1.3575060     0.7479640
  H       -4.2413300     1.2926870    -1.0190020
  H       -5.1195520     0.1037900    -0.0468840
units angstrom
no_reorient  #important for SAPT in psi4, default
symmetry c1  #important for SAPT in psi4, default
}

set PROPERTIES_ORIGIN ["COM"]
properties('MP2/aug-cc-pvtz', properties = ['dipole'])
--------------------------------------------------------------------------

    Molecular point group: c1
  Charge       = 0
  Multiplicity = 1
  Basis Set: AUG-CC-PVTZ
    Blend: AUG-CC-PVTZ
  Basis Set: (AUG-CC-PVTZ AUX)
    Blend: AUG-CC-PVTZ-JKFIT

    Orbital Energies [Eh]
    ---------------------

    Doubly Occupied:

       1A    -92.057023     2A    -20.496807     3A    -11.259924
       4A    -11.249840     5A    -11.237794     6A    -11.232685
       7A    -11.223692     8A    -11.221080     9A    -11.217813
      10A     -9.044543    11A     -6.726150    12A     -6.725968
      13A     -6.724677    14A     -1.316597    15A     -1.110505
      16A     -1.088270    17A     -1.008257    18A     -0.945480
      19A     -0.937249    20A     -0.845363    21A     -0.807970
      22A     -0.773121    23A     -0.670641    24A     -0.651897
      25A     -0.629410    26A     -0.611267    27A     -0.593780
      28A     -0.588038    29A     -0.572058    30A     -0.553987
      31A     -0.545368    32A     -0.533614    33A     -0.513794
      34A     -0.506647    35A     -0.499320    36A     -0.488479
      37A     -0.480034    38A     -0.475520    39A     -0.472456
      40A     -0.403205    41A     -0.358930

  @DF-RHF Final Energy:  -746.88604399624739

   => Energetics <=

    Nuclear Repulsion Energy =            575.8196507003592615
    One-Electron Energy =               -2166.6128915310537195
    Two-Electron Energy =                 843.9071968344470633
    Total Energy =                       -746.8860439962473947
  Basis Set: (AUG-CC-PVTZ AUX)
    Blend: AUG-CC-PVTZ-RI
    Molecular point group: c1

    Geometry (in Angstrom), charge = 0, multiplicity = 1:

       Center              X                  Y                   Z               Mass
    ------------   -----------------  -----------------  -----------------  -----------------
         S           -0.252318041074    -0.547922639438    -0.159334245477    31.972071174400
         O           -0.278026041074    -1.204827639438     1.209366754523    15.994914619570
         C            2.406767958926     0.116794360562     0.167575754523    12.000000000000
         C            1.035196958926     0.735681360562    -0.095069245477    12.000000000000
         C           -1.665276041074     0.591715360562    -0.230500245477    12.000000000000
         C            2.874346958926    -0.752111639438    -0.998611245477    12.000000000000
         C            3.419470958926     1.221273360562     0.465310754523    12.000000000000
         C           -2.968116041074    -0.193883639438    -0.147530245477    12.000000000000
         C           -4.184696041074     0.727249360562    -0.128921245477    12.000000000000
         H            2.303760958926    -0.513706639438     1.059653754523     1.007825032230
         H            0.764246958926     1.419695360562     0.718515754523     1.007825032230
         H            1.020147958926     1.283219360562    -1.047017245477     1.007825032230
         H           -1.577309041074     1.280665360562     0.618237754523     1.007825032230
         H           -1.599415141074     1.109654560562    -1.079993145477     1.007825032230
         H            2.962178958926    -0.152729639438    -1.912157245477     1.007825032230
         H            3.856775958926    -1.183274639438    -0.783924245477     1.007825032230
         H            2.185325958926    -1.577616639438    -1.198560245477     1.007825032230
         H            3.532016958926     1.886821360562    -0.397826245477     1.007825032230
         H            4.401478958926     0.793689360562     0.690284754523     1.007825032230
         H            3.108824958926     1.825326360562     1.323400754523     1.007825032230
         H           -3.034248041074    -0.883477639438    -0.997335245477     1.007825032230
         H           -2.941417041074    -0.806502639438     0.759155754523     1.007825032230
         H           -4.149438041074     1.402602360562     0.731108754523     1.007825032230
         H           -4.232286041074     1.337783360562    -1.035857245477     1.007825032230
         H           -5.110508041074     0.148886360562    -0.063739245477     1.007825032230

  Basis Set: AUG-CC-PVTZ
    Blend: AUG-CC-PVTZ
  Basis Set: (AUG-CC-PVTZ AUX)
    Blend: AUG-CC-PVTZ-JKFIT
	 Reference Energy          =    -746.8860439962473947 [Eh]
	 Singles Energy            =      -0.0000000000000000 [Eh]
	 Same-Spin Energy          =      -0.4271333012268786 [Eh]
	 Opposite-Spin Energy      =      -1.4576619215838309 [Eh]
	 Correlation Energy        =      -1.8847952228107094 [Eh]
	 Total Energy              =    -748.7708392190580753 [Eh]

	 ================> DF-SCS-MP2 Energies <==================
	-----------------------------------------------------------
	 SCS Same-Spin Scale       =       0.3333333333333333 [-]
	 SCS Opposite-Spin Scale   =       1.2000000000000000 [-]
	 SCS Same-Spin Energy      =      -0.1423777670756262 [Eh]
	 SCS Opposite-Spin Energy  =      -1.7491943059005970 [Eh]
	 SCS Correlation Energy    =      -1.8915720729762231 [Eh]
	 SCS Total Energy          =    -748.7776160692236544 [Eh]
	-----------------------------------------------------------

  Dipole Moment: [D]
     X:    -0.0416      Y:     2.9121      Z:    -2.3026     Total:     3.7127

*** Psi4 exiting successfully. Buy a developer a beer!
