                               Psi4 1.4a3.dev225

  ==> Input File <==

--------------------------------------------------------------------------
#psi4
#
memory 32 gb

molecule  {
0 1
  S       -0.2613620    -0.5930190    -0.1424790
  O       -0.2870700    -1.2499240     1.2262220
  C        2.3977240     0.0716980     0.1844310
  C        1.0261530     0.6905850    -0.0782140
  C       -1.6607773     0.5237352    -0.2134028
  C        2.8653030    -0.7972080    -0.9817560
  C        3.4104270     1.1761770     0.4821660
  C       -2.9771600    -0.2389800    -0.1306750
  C       -4.1937400     0.6821530    -0.1120660
  H        2.2947170    -0.5588030     1.0765090
  H        0.7552030     1.3745990     0.7353710
  H        1.0111040     1.2381230    -1.0301620
  H       -1.5863530     1.2355690     0.6350930
  H       -1.6018540     1.1165020    -1.1483330
  H        2.9531350    -0.1978260    -1.8953020
  H        3.8477320    -1.2283710    -0.7670690
  H        2.1762820    -1.6227130    -1.1817050
  H        3.5229730     1.8417250    -0.3809710
  H        4.3924350     0.7485930     0.7071400
  H        3.0997810     1.7802300     1.3402560
  H       -3.0432920    -0.9285740    -0.9804800
  H       -2.9504610    -0.8515990     0.7760110
  H       -4.1584820     1.3575060     0.7479640
  H       -4.2413300     1.2926870    -1.0190020
  H       -5.1195520     0.1037900    -0.0468840
units angstrom
no_reorient  #important for SAPT in psi4, default
symmetry c1  #important for SAPT in psi4, default
}

set PROPERTIES_ORIGIN ["COM"]
properties('MP2/aug-cc-pvtz', properties = ['dipole'])
--------------------------------------------------------------------------

    Molecular point group: c1
  Charge       = 0
  Multiplicity = 1
  Basis Set: AUG-CC-PVTZ
    Blend: AUG-CC-PVTZ
  Basis Set: (AUG-CC-PVTZ AUX)
    Blend: AUG-CC-PVTZ-JKFIT

    Orbital Energies [Eh]
    ---------------------

    Doubly Occupied:

       1A    -92.057918     2A    -20.497279     3A    -11.262408
       4A    -11.260127     5A    -11.237977     6A    -11.233604
       7A    -11.224226     8A    -11.221224     9A    -11.217914
      10A     -9.045612    11A     -6.727269    12A     -6.727053
      13A     -6.725753    14A     -1.317826    15A     -1.110241
      16A     -1.085538    17A     -1.009206    18A     -0.942563
      19A     -0.937357    20A     -0.847145    21A     -0.797775
      22A     -0.773364    23A     -0.663472    24A     -0.649443
      25A     -0.630967    26A     -0.611577    27A     -0.593206
      28A     -0.587716    29A     -0.565963    30A     -0.553419
      31A     -0.545302    32A     -0.533529    33A     -0.515348
      34A     -0.506166    35A     -0.498043    36A     -0.484061
      37A     -0.480089    38A     -0.475708    39A     -0.472729
      40A     -0.405912    41A     -0.359917

  @DF-RHF Final Energy:  -746.89100608355147

   => Energetics <=

    Nuclear Repulsion Energy =            575.7138160865745249
    One-Electron Energy =               -2166.4257545508103249
    Two-Electron Energy =                 843.8209323806843258
    Total Energy =                       -746.8910060835514741
  Basis Set: (AUG-CC-PVTZ AUX)
    Blend: AUG-CC-PVTZ-RI
    Molecular point group: c1

    Geometry (in Angstrom), charge = 0, multiplicity = 1:

       Center              X                  Y                   Z               Mass
    ------------   -----------------  -----------------  -----------------  -----------------
         S           -0.253460364577    -0.546421848993    -0.158774085239    31.972071174400
         O           -0.279168364577    -1.203326848993     1.209926914761    15.994914619570
         C            2.405625635423     0.118295151007     0.168135914761    12.000000000000
         C            1.034054635423     0.737182151007    -0.094509085239    12.000000000000
         C           -1.652875664577     0.570332351007    -0.229697885239    12.000000000000
         C            2.873204635423    -0.750610848993    -0.998051085239    12.000000000000
         C            3.418328635423     1.222774151007     0.465870914761    12.000000000000
         C           -2.969258364577    -0.192382848993    -0.146970085239    12.000000000000
         C           -4.185838364577     0.728750151007    -0.128361085239    12.000000000000
         H            2.302618635423    -0.512205848993     1.060213914761     1.007825032230
         H            0.763104635423     1.421196151007     0.719075914761     1.007825032230
         H            1.019005635423     1.284720151007    -1.046457085239     1.007825032230
         H           -1.578451364577     1.282166151007     0.618797914761     1.007825032230
         H           -1.593952364577     1.163099151007    -1.164628085239     1.007825032230
         H            2.961036635423    -0.151228848993    -1.911597085239     1.007825032230
         H            3.855633635423    -1.181773848993    -0.783364085239     1.007825032230
         H            2.184183635423    -1.576115848993    -1.198000085239     1.007825032230
         H            3.530874635423     1.888322151007    -0.397266085239     1.007825032230
         H            4.400336635423     0.795190151007     0.690844914761     1.007825032230
         H            3.107682635423     1.826827151007     1.323960914761     1.007825032230
         H           -3.035390364577    -0.881976848993    -0.996775085239     1.007825032230
         H           -2.942559364577    -0.805001848993     0.759715914761     1.007825032230
         H           -4.150580364577     1.404103151007     0.731668914761     1.007825032230
         H           -4.233428364577     1.339284151007    -1.035297085239     1.007825032230
         H           -5.111650364577     0.150387151007    -0.063179085239     1.007825032230

  Basis Set: AUG-CC-PVTZ
    Blend: AUG-CC-PVTZ
  Basis Set: (AUG-CC-PVTZ AUX)
    Blend: AUG-CC-PVTZ-JKFIT
	 Reference Energy          =    -746.8910060835514741 [Eh]
	 Singles Energy            =      -0.0000000000000000 [Eh]
	 Same-Spin Energy          =      -0.4273341182550511 [Eh]
	 Opposite-Spin Energy      =      -1.4581639445706942 [Eh]
	 Correlation Energy        =      -1.8854980628257452 [Eh]
	 Total Energy              =    -748.7765041463771922 [Eh]

	 ================> DF-SCS-MP2 Energies <==================
	-----------------------------------------------------------
	 SCS Same-Spin Scale       =       0.3333333333333333 [-]
	 SCS Opposite-Spin Scale   =       1.2000000000000000 [-]
	 SCS Same-Spin Energy      =      -0.1424447060850170 [Eh]
	 SCS Opposite-Spin Energy  =      -1.7497967334848330 [Eh]
	 SCS Correlation Energy    =      -1.8922414395698499 [Eh]
	 SCS Total Energy          =    -748.7832475231213039 [Eh]
	-----------------------------------------------------------

  Dipole Moment: [D]
     X:    -0.0658      Y:     2.9015      Z:    -2.2851     Total:     3.6938

*** Psi4 exiting successfully. Buy a developer a beer!
