                               Psi4 1.4a3.dev225

  ==> Input File <==

--------------------------------------------------------------------------
#psi4
#
memory 32 gb

molecule  {
0 1
  S       -0.2613620    -0.5930190    -0.1424790
  O       -0.2870700    -1.2499240     1.2262220
  C        2.3977240     0.0716980     0.1844310
  C        1.0261530     0.6905850    -0.0782140
  C       -1.6743200     0.5466190    -0.2136450
  C        2.8653030    -0.7972080    -0.9817560
  C        3.4031876     1.1948504     0.4327431
  C       -2.9771600    -0.2389800    -0.1306750
  C       -4.1937400     0.6821530    -0.1120660
  H        2.2947170    -0.5588030     1.0765090
  H        0.7552030     1.3745990     0.7353710
  H        1.0111040     1.2381230    -1.0301620
  H       -1.5863530     1.2355690     0.6350930
  H       -1.6018540     1.1165020    -1.1483330
  H        2.9531350    -0.1978260    -1.8953020
  H        3.8477320    -1.2283710    -0.7670690
  H        2.1762820    -1.6227130    -1.1817050
  H        3.5229730     1.8417250    -0.3809710
  H        4.3924350     0.7485930     0.7071400
  H        3.0997810     1.7802300     1.3402560
  H       -3.0432920    -0.9285740    -0.9804800
  H       -2.9504610    -0.8515990     0.7760110
  H       -4.1584820     1.3575060     0.7479640
  H       -4.2413300     1.2926870    -1.0190020
  H       -5.1195520     0.1037900    -0.0468840
units angstrom
no_reorient  #important for SAPT in psi4, default
symmetry c1  #important for SAPT in psi4, default
}

set PROPERTIES_ORIGIN ["COM"]
properties('MP2/aug-cc-pvtz', properties = ['dipole'])
--------------------------------------------------------------------------

    Molecular point group: c1
  Charge       = 0
  Multiplicity = 1
  Basis Set: AUG-CC-PVTZ
    Blend: AUG-CC-PVTZ
  Basis Set: (AUG-CC-PVTZ AUX)
    Blend: AUG-CC-PVTZ-JKFIT

    Orbital Energies [Eh]
    ---------------------

    Doubly Occupied:

       1A    -92.057335     2A    -20.497469     3A    -11.261605
       4A    -11.259581     5A    -11.238188     6A    -11.233378
       7A    -11.223681     8A    -11.221409     9A    -11.217474
      10A     -9.044815    11A     -6.726415    12A     -6.726223
      13A     -6.724941    14A     -1.317108    15A     -1.110151
      16A     -1.085114    17A     -1.007632    18A     -0.941877
      19A     -0.936843    20A     -0.845723    21A     -0.800263
      22A     -0.774054    23A     -0.664797    24A     -0.649519
      25A     -0.630377    26A     -0.608199    27A     -0.591372
      28A     -0.589929    29A     -0.566353    30A     -0.557684
      31A     -0.550961    32A     -0.526795    33A     -0.513855
      34A     -0.505389    35A     -0.499060    36A     -0.486101
      37A     -0.481422    38A     -0.474661    39A     -0.472173
      40A     -0.402841    41A     -0.359252

  @DF-RHF Final Energy:  -746.88835937548015

   => Energetics <=

    Nuclear Repulsion Energy =            575.3983081862545532
    One-Electron Energy =               -2165.8093016940883899
    Two-Electron Energy =                 843.5226341323536872
    Total Energy =                       -746.8883593754801495
  Basis Set: (AUG-CC-PVTZ AUX)
    Blend: AUG-CC-PVTZ-RI
    Molecular point group: c1

    Geometry (in Angstrom), charge = 0, multiplicity = 1:

       Center              X                  Y                   Z               Mass
    ------------   -----------------  -----------------  -----------------  -----------------
         S           -0.251776378364    -0.549789254205    -0.154749691955    31.972071174400
         O           -0.277484378364    -1.206694254205     1.213951308045    15.994914619570
         C            2.407309621636     0.114927745795     0.172160308045    12.000000000000
         C            1.035738621636     0.733814745795    -0.090484691955    12.000000000000
         C           -1.664734378364     0.589848745795    -0.225915691955    12.000000000000
         C            2.874888621636    -0.753978254205    -0.994026691955    12.000000000000
         C            3.412773221636     1.238080145795     0.420472408045    12.000000000000
         C           -2.967574378364    -0.195750254205    -0.142945691955    12.000000000000
         C           -4.184154378364     0.725382745795    -0.124336691955    12.000000000000
         H            2.304302621636    -0.515573254205     1.064238308045     1.007825032230
         H            0.764788621636     1.417828745795     0.723100308045     1.007825032230
         H            1.020689621636     1.281352745795    -1.042432691955     1.007825032230
         H           -1.576767378364     1.278798745795     0.622822308045     1.007825032230
         H           -1.592268378364     1.159731745795    -1.160603691955     1.007825032230
         H            2.962720621636    -0.154596254205    -1.907572691955     1.007825032230
         H            3.857317621636    -1.185141254205    -0.779339691955     1.007825032230
         H            2.185867621636    -1.579483254205    -1.193975691955     1.007825032230
         H            3.532558621636     1.884954745795    -0.393241691955     1.007825032230
         H            4.402020621636     0.791822745795     0.694869308045     1.007825032230
         H            3.109366621636     1.823459745795     1.327985308045     1.007825032230
         H           -3.033706378364    -0.885344254205    -0.992750691955     1.007825032230
         H           -2.940875378364    -0.808369254205     0.763740308045     1.007825032230
         H           -4.148896378364     1.400735745795     0.735693308045     1.007825032230
         H           -4.231744378364     1.335916745795    -1.031272691955     1.007825032230
         H           -5.109966378364     0.147019745795    -0.059154691955     1.007825032230

  Basis Set: AUG-CC-PVTZ
    Blend: AUG-CC-PVTZ
  Basis Set: (AUG-CC-PVTZ AUX)
    Blend: AUG-CC-PVTZ-JKFIT
	 Reference Energy          =    -746.8883593754801495 [Eh]
	 Singles Energy            =      -0.0000000000000000 [Eh]
	 Same-Spin Energy          =      -0.4273491207201083 [Eh]
	 Opposite-Spin Energy      =      -1.4584413759946426 [Eh]
	 Correlation Energy        =      -1.8857904967147510 [Eh]
	 Total Energy              =    -748.7741498721949256 [Eh]

	 ================> DF-SCS-MP2 Energies <==================
	-----------------------------------------------------------
	 SCS Same-Spin Scale       =       0.3333333333333333 [-]
	 SCS Opposite-Spin Scale   =       1.2000000000000000 [-]
	 SCS Same-Spin Energy      =      -0.1424497069067028 [Eh]
	 SCS Opposite-Spin Energy  =      -1.7501296511935711 [Eh]
	 SCS Correlation Energy    =      -1.8925793581002739 [Eh]
	 SCS Total Energy          =    -748.7809387335804558 [Eh]
	-----------------------------------------------------------

  Dipole Moment: [D]
     X:    -0.0450      Y:     2.9017      Z:    -2.3019     Total:     3.7042

*** Psi4 exiting successfully. Buy a developer a beer!
