                               Psi4 1.4a3.dev225

  ==> Input File <==

--------------------------------------------------------------------------
#psi4
#
memory 32 gb

molecule  {
0 1
  S       -0.2613620    -0.5930190    -0.1424790
  O       -0.2870700    -1.2499240     1.2262220
  C        2.3977240     0.0716980     0.1844310
  C        1.0261530     0.6905850    -0.0782140
  C       -1.6743200     0.5466190    -0.2136450
  C        2.8653030    -0.7972080    -0.9817560
  C        3.4104270     1.1761770     0.4821660
  C       -2.9771600    -0.2389800    -0.1306750
  C       -4.1937400     0.6821530    -0.1120660
  H        2.2947170    -0.5588030     1.0765090
  H        0.7552030     1.3745990     0.7353710
  H        1.0111040     1.2381230    -1.0301620
  H       -1.5863530     1.2355690     0.6350930
  H       -1.6018540     1.1165020    -1.1483330
  H        2.9531350    -0.1978260    -1.8953020
  H        3.8477320    -1.2283710    -0.7670690
  H        2.1762820    -1.6227130    -1.1817050
  H        3.5229730     1.8417250    -0.3809710
  H        4.3924350     0.7485930     0.7071400
  H        3.0997810     1.7802300     1.3402560
  H       -3.0432920    -0.9285740    -0.9804800
  H       -2.9504610    -0.8515990     0.7760110
  H       -4.1584820     1.3575060     0.7479640
  H       -4.2413300     1.2926870    -1.0190020
  H       -5.1618821     0.0773460    -0.0439037
units angstrom
no_reorient  #important for SAPT in psi4, default
symmetry c1  #important for SAPT in psi4, default
}

set PROPERTIES_ORIGIN ["COM"]
properties('MP2/aug-cc-pvtz', properties = ['dipole'])
--------------------------------------------------------------------------

    Molecular point group: c1
  Charge       = 0
  Multiplicity = 1
  Basis Set: AUG-CC-PVTZ
    Blend: AUG-CC-PVTZ
  Basis Set: (AUG-CC-PVTZ AUX)
    Blend: AUG-CC-PVTZ-JKFIT

    Orbital Energies [Eh]
    ---------------------

    Doubly Occupied:

       1A    -92.057912     2A    -20.497706     3A    -11.262126
       4A    -11.260055     5A    -11.237909     6A    -11.233957
       7A    -11.229779     8A    -11.221189     9A    -11.217933
      10A     -9.045362    11A     -6.726960    12A     -6.726772
      13A     -6.725485    14A     -1.317360    15A     -1.109821
      16A     -1.084970    17A     -1.006926    18A     -0.940264
      19A     -0.937345    20A     -0.844032    21A     -0.800279
      22A     -0.773092    23A     -0.664823    24A     -0.649574
      25A     -0.628844    26A     -0.611198    27A     -0.591675
      28A     -0.585669    29A     -0.566758    30A     -0.554134
      31A     -0.545158    32A     -0.532787    33A     -0.512579
      34A     -0.506607    35A     -0.497925    36A     -0.486324
      37A     -0.480189    38A     -0.475327    39A     -0.472470
      40A     -0.403591    41A     -0.359607

  @DF-RHF Final Energy:  -746.88957362260930

   => Energetics <=

    Nuclear Repulsion Energy =            575.0555159496706210
    One-Electron Energy =               -2165.1252311332332283
    Two-Electron Energy =                 843.1801415609531887
    Total Energy =                       -746.8895736226093049
  Basis Set: (AUG-CC-PVTZ AUX)
    Blend: AUG-CC-PVTZ-RI
    Molecular point group: c1

    Geometry (in Angstrom), charge = 0, multiplicity = 1:

       Center              X                  Y                   Z               Mass
    ------------   -----------------  -----------------  -----------------  -----------------
         S           -0.252074918528    -0.548096175513    -0.158774741728    31.972071174400
         O           -0.277782918528    -1.205001175513     1.209926258272    15.994914619570
         C            2.407011081472     0.116620824487     0.168135258272    12.000000000000
         C            1.035440081472     0.735507824487    -0.094509741728    12.000000000000
         C           -1.665032918528     0.591541824487    -0.229940741728    12.000000000000
         C            2.874590081472    -0.752285175513    -0.998051741728    12.000000000000
         C            3.419714081472     1.221099824487     0.465870258272    12.000000000000
         C           -2.967872918528    -0.194057175513    -0.146970741728    12.000000000000
         C           -4.184452918528     0.727075824487    -0.128361741728    12.000000000000
         H            2.304004081472    -0.513880175513     1.060213258272     1.007825032230
         H            0.764490081472     1.419521824487     0.719075258272     1.007825032230
         H            1.020391081472     1.283045824487    -1.046457741728     1.007825032230
         H           -1.577065918528     1.280491824487     0.618797258272     1.007825032230
         H           -1.592566918528     1.161424824487    -1.164628741728     1.007825032230
         H            2.962422081472    -0.152903175513    -1.911597741728     1.007825032230
         H            3.857019081472    -1.183448175513    -0.783364741728     1.007825032230
         H            2.185569081472    -1.577790175513    -1.198000741728     1.007825032230
         H            3.532260081472     1.886647824487    -0.397266741728     1.007825032230
         H            4.401722081472     0.793515824487     0.690844258272     1.007825032230
         H            3.109068081472     1.825152824487     1.323960258272     1.007825032230
         H           -3.034004918528    -0.883651175513    -0.996775741728     1.007825032230
         H           -2.941173918528    -0.806676175513     0.759715258272     1.007825032230
         H           -4.149194918528     1.402428824487     0.731668258272     1.007825032230
         H           -4.232042918528     1.337609824487    -1.035297741728     1.007825032230
         H           -5.152595018528     0.122268824487    -0.060199441728     1.007825032230

  Basis Set: AUG-CC-PVTZ
    Blend: AUG-CC-PVTZ
  Basis Set: (AUG-CC-PVTZ AUX)
    Blend: AUG-CC-PVTZ-JKFIT
	 Reference Energy          =    -746.8895736226093049 [Eh]
	 Singles Energy            =      -0.0000000000000000 [Eh]
	 Same-Spin Energy          =      -0.4272441028814794 [Eh]
	 Opposite-Spin Energy      =      -1.4585601646920585 [Eh]
	 Correlation Energy        =      -1.8858042675735378 [Eh]
	 Total Energy              =    -748.7753778901828809 [Eh]

	 ================> DF-SCS-MP2 Energies <==================
	-----------------------------------------------------------
	 SCS Same-Spin Scale       =       0.3333333333333333 [-]
	 SCS Opposite-Spin Scale   =       1.2000000000000000 [-]
	 SCS Same-Spin Energy      =      -0.1424147009604931 [Eh]
	 SCS Opposite-Spin Energy  =      -1.7502721976304703 [Eh]
	 SCS Correlation Energy    =      -1.8926868985909633 [Eh]
	 SCS Total Energy          =    -748.7822605212002145 [Eh]
	-----------------------------------------------------------

  Dipole Moment: [D]
     X:    -0.0094      Y:     2.8937      Z:    -2.2784     Total:     3.6831

*** Psi4 exiting successfully. Buy a developer a beer!
