                               Psi4 1.4a3.dev225

  ==> Input File <==

--------------------------------------------------------------------------
#psi4
#
memory 32 gb

molecule  {
0 1
  S       -0.2613620    -0.5930190    -0.1424790
  O       -0.2870700    -1.2499240     1.2262220
  C        2.3977240     0.0716980     0.1844310
  C        1.0261530     0.6905850    -0.0782140
  C       -1.6743200     0.5466190    -0.2136450
  C        2.8653030    -0.7972080    -0.9817560
  C        3.4104270     1.1761770     0.4821660
  C       -2.9771600    -0.2389800    -0.1306750
  C       -4.1937400     0.6821530    -0.1120660
  H        2.2947170    -0.5588030     1.0765090
  H        0.7552030     1.3745990     0.7353710
  H        1.0111040     1.2381230    -1.0301620
  H       -1.5863530     1.2355690     0.6350930
  H       -1.6018540     1.1165020    -1.1483330
  H        2.9531350    -0.1978260    -1.8953020
  H        3.8477320    -1.2283710    -0.7670690
  H        2.1762820    -1.6227130    -1.1817050
  H        3.5229730     1.8417250    -0.3809710
  H        4.3905607     0.7150221     0.6385474
  H        3.0997810     1.7802300     1.3402560
  H       -3.0432920    -0.9285740    -0.9804800
  H       -2.9504610    -0.8515990     0.7760110
  H       -4.1584820     1.3575060     0.7479640
  H       -4.2413300     1.2926870    -1.0190020
  H       -5.1195520     0.1037900    -0.0468840
units angstrom
no_reorient  #important for SAPT in psi4, default
symmetry c1  #important for SAPT in psi4, default
}

set PROPERTIES_ORIGIN ["COM"]
properties('MP2/aug-cc-pvtz', properties = ['dipole'])
--------------------------------------------------------------------------

    Molecular point group: c1
  Charge       = 0
  Multiplicity = 1
  Basis Set: AUG-CC-PVTZ
    Blend: AUG-CC-PVTZ
  Basis Set: (AUG-CC-PVTZ AUX)
    Blend: AUG-CC-PVTZ-JKFIT

    Orbital Energies [Eh]
    ---------------------

    Doubly Occupied:

       1A    -92.057417     2A    -20.497367     3A    -11.261634
       4A    -11.259636     5A    -11.237386     6A    -11.233400
       7A    -11.223699     8A    -11.221221     9A    -11.218017
      10A     -9.044884    11A     -6.726483    12A     -6.726293
      13A     -6.725010    14A     -1.317014    15A     -1.109771
      16A     -1.085070    17A     -1.007787    18A     -0.942041
      19A     -0.937019    20A     -0.845556    21A     -0.800053
      22A     -0.772805    23A     -0.664289    24A     -0.648537
      25A     -0.629544    26A     -0.613481    27A     -0.593707
      28A     -0.587387    29A     -0.566181    30A     -0.554193
      31A     -0.544841    32A     -0.533485    33A     -0.514018
      34A     -0.506491    35A     -0.499371    36A     -0.485951
      37A     -0.480651    38A     -0.474759    39A     -0.472646
      40A     -0.403089    41A     -0.359252

  @DF-RHF Final Energy:  -746.89104075268222

   => Energetics <=

    Nuclear Repulsion Energy =            575.3432951529077855
    One-Electron Energy =               -2165.7057963042552728
    Two-Electron Energy =                 843.4714603986652719
    Total Energy =                       -746.8910407526822155
  Basis Set: (AUG-CC-PVTZ AUX)
    Blend: AUG-CC-PVTZ-RI
    Molecular point group: c1

    Geometry (in Angstrom), charge = 0, multiplicity = 1:

       Center              X                  Y                   Z               Mass
    ------------   -----------------  -----------------  -----------------  -----------------
         S           -0.252350236011    -0.548047674181    -0.158287660255    31.972071174400
         O           -0.278058236011    -1.204952674181     1.210413339745    15.994914619570
         C            2.406735763989     0.116669325819     0.168622339745    12.000000000000
         C            1.035164763989     0.735556325819    -0.094022660255    12.000000000000
         C           -1.665308236011     0.591590325819    -0.229453660255    12.000000000000
         C            2.874314763989    -0.752236674181    -0.997564660255    12.000000000000
         C            3.419438763989     1.221148325819     0.466357339745    12.000000000000
         C           -2.968148236011    -0.194008674181    -0.146483660255    12.000000000000
         C           -4.184728236011     0.727124325819    -0.127874660255    12.000000000000
         H            2.303728763989    -0.513831674181     1.060700339745     1.007825032230
         H            0.764214763989     1.419570325819     0.719562339745     1.007825032230
         H            1.020115763989     1.283094325819    -1.045970660255     1.007825032230
         H           -1.577341236011     1.280540325819     0.619284339745     1.007825032230
         H           -1.592842236011     1.161473325819    -1.164141660255     1.007825032230
         H            2.962146763989    -0.152854674181    -1.911110660255     1.007825032230
         H            3.856743763989    -1.183399674181    -0.782877660255     1.007825032230
         H            2.185293763989    -1.577741674181    -1.197513660255     1.007825032230
         H            3.531984763989     1.886696325819    -0.396779660255     1.007825032230
         H            4.399572463989     0.759993425819     0.622738739745     1.007825032230
         H            3.108792763989     1.825201325819     1.324447339745     1.007825032230
         H           -3.034280236011    -0.883602674181    -0.996288660255     1.007825032230
         H           -2.941449236011    -0.806627674181     0.760202339745     1.007825032230
         H           -4.149470236011     1.402477325819     0.732155339745     1.007825032230
         H           -4.232318236011     1.337658325819    -1.034810660255     1.007825032230
         H           -5.110540236011     0.148761325819    -0.062692660255     1.007825032230

  Basis Set: AUG-CC-PVTZ
    Blend: AUG-CC-PVTZ
  Basis Set: (AUG-CC-PVTZ AUX)
    Blend: AUG-CC-PVTZ-JKFIT
	 Reference Energy          =    -746.8910407526822155 [Eh]
	 Singles Energy            =      -0.0000000000000000 [Eh]
	 Same-Spin Energy          =      -0.4273302461106380 [Eh]
	 Opposite-Spin Energy      =      -1.4583511894137737 [Eh]
	 Correlation Energy        =      -1.8856814355244116 [Eh]
	 Total Energy              =    -748.7767221882065769 [Eh]

	 ================> DF-SCS-MP2 Energies <==================
	-----------------------------------------------------------
	 SCS Same-Spin Scale       =       0.3333333333333333 [-]
	 SCS Opposite-Spin Scale   =       1.2000000000000000 [-]
	 SCS Same-Spin Energy      =      -0.1424434153702127 [Eh]
	 SCS Opposite-Spin Energy  =      -1.7500214272965284 [Eh]
	 SCS Correlation Energy    =      -1.8924648426667410 [Eh]
	 SCS Total Energy          =    -748.7835055953489700 [Eh]
	-----------------------------------------------------------

  Dipole Moment: [D]
     X:    -0.0512      Y:     2.8834      Z:    -2.3016     Total:     3.6897

*** Psi4 exiting successfully. Buy a developer a beer!
