                               Psi4 1.4a3.dev225

  ==> Input File <==

--------------------------------------------------------------------------
#psi4
#
memory 32 gb

molecule  {
0 1
  S       -0.2613620    -0.5930190    -0.1424790
  O       -0.2870700    -1.2499240     1.2262220
  C        2.3977240     0.0716980     0.1844310
  C        1.0261530     0.6905850    -0.0782140
  C       -1.6743200     0.5466190    -0.2136450
  C        2.8653030    -0.7972080    -0.9817560
  C        3.4104270     1.1761770     0.4821660
  C       -2.9771600    -0.2389800    -0.1306750
  C       -4.1937400     0.6821530    -0.1120660
  H        2.2947170    -0.5588030     1.0765090
  H        0.7552030     1.3745990     0.7353710
  H        1.0111040     1.2381230    -1.0301620
  H       -1.5863530     1.2355690     0.6350930
  H       -1.5886437     1.2203896    -1.3187233
  H        2.9531350    -0.1978260    -1.8953020
  H        3.8477320    -1.2283710    -0.7670690
  H        2.1762820    -1.6227130    -1.1817050
  H        3.5229730     1.8417250    -0.3809710
  H        4.3924350     0.7485930     0.7071400
  H        3.0997810     1.7802300     1.3402560
  H       -3.0432920    -0.9285740    -0.9804800
  H       -2.9504610    -0.8515990     0.7760110
  H       -4.1584820     1.3575060     0.7479640
  H       -4.2413300     1.2926870    -1.0190020
  H       -5.1195520     0.1037900    -0.0468840
units angstrom
no_reorient  #important for SAPT in psi4, default
symmetry c1  #important for SAPT in psi4, default
}

set PROPERTIES_ORIGIN ["COM"]
properties('MP2/aug-cc-pvtz', properties = ['dipole'])
--------------------------------------------------------------------------

    Molecular point group: c1
  Charge       = 0
  Multiplicity = 1
  Basis Set: AUG-CC-PVTZ
    Blend: AUG-CC-PVTZ
  Basis Set: (AUG-CC-PVTZ AUX)
    Blend: AUG-CC-PVTZ-JKFIT

    Orbital Energies [Eh]
    ---------------------

    Doubly Occupied:

       1A    -92.059343     2A    -20.499446     3A    -11.283181
       4A    -11.259770     5A    -11.237751     6A    -11.235680
       7A    -11.223990     8A    -11.221079     9A    -11.217845
      10A     -9.046650    11A     -6.728231    12A     -6.728023
      13A     -6.726751    14A     -1.318781    15A     -1.109044
      16A     -1.081970    17A     -1.007276    18A     -0.938155
      19A     -0.937172    20A     -0.846541    21A     -0.791151
      22A     -0.772675    23A     -0.659565    24A     -0.641687
      25A     -0.630648    26A     -0.610960    27A     -0.592539
      28A     -0.588406    29A     -0.557016    30A     -0.552504
      31A     -0.544194    32A     -0.531834    33A     -0.514690
      34A     -0.506430    35A     -0.499909    36A     -0.480644
      37A     -0.477811    38A     -0.474858    39A     -0.472414
      40A     -0.404420    41A     -0.360734

  @DF-RHF Final Energy:  -746.87133710259104

   => Energetics <=

    Nuclear Repulsion Energy =            574.3245853626398230
    One-Electron Energy =               -2163.6483113560225320
    Two-Electron Energy =                 842.4523888907915534
    Total Energy =                       -746.8713371025910419
  Basis Set: (AUG-CC-PVTZ AUX)
    Blend: AUG-CC-PVTZ-RI
    Molecular point group: c1

    Geometry (in Angstrom), charge = 0, multiplicity = 1:

       Center              X                  Y                   Z               Mass
    ------------   -----------------  -----------------  -----------------  -----------------
         S           -0.252452892592    -0.548983132835    -0.157594887241    31.972071174400
         O           -0.278160892592    -1.205888132835     1.211106112759    15.994914619570
         C            2.406633107408     0.115733867165     0.169315112759    12.000000000000
         C            1.035062107408     0.734620867165    -0.093329887241    12.000000000000
         C           -1.665410892592     0.590654867165    -0.228760887241    12.000000000000
         C            2.874212107408    -0.753172132835    -0.996871887241    12.000000000000
         C            3.419336107408     1.220212867165     0.467050112759    12.000000000000
         C           -2.968250892592    -0.194944132835    -0.145790887241    12.000000000000
         C           -4.184830892592     0.726188867165    -0.127181887241    12.000000000000
         H            2.303626107408    -0.514767132835     1.061393112759     1.007825032230
         H            0.764112107408     1.418634867165     0.720255112759     1.007825032230
         H            1.020013107408     1.282158867165    -1.045277887241     1.007825032230
         H           -1.577443892592     1.279604867165     0.619977112759     1.007825032230
         H           -1.579734592592     1.264425467165    -1.333839187241     1.007825032230
         H            2.962044107408    -0.153790132835    -1.910417887241     1.007825032230
         H            3.856641107408    -1.184335132835    -0.782184887241     1.007825032230
         H            2.185191107408    -1.578677132835    -1.196820887241     1.007825032230
         H            3.531882107408     1.885760867165    -0.396086887241     1.007825032230
         H            4.401344107408     0.792628867165     0.692024112759     1.007825032230
         H            3.108690107408     1.824265867165     1.325140112759     1.007825032230
         H           -3.034382892592    -0.884538132835    -0.995595887241     1.007825032230
         H           -2.941551892592    -0.807563132835     0.760895112759     1.007825032230
         H           -4.149572892592     1.401541867165     0.732848112759     1.007825032230
         H           -4.232420892592     1.336722867165    -1.034117887241     1.007825032230
         H           -5.110642892592     0.147825867165    -0.061999887241     1.007825032230

  Basis Set: AUG-CC-PVTZ
    Blend: AUG-CC-PVTZ
  Basis Set: (AUG-CC-PVTZ AUX)
    Blend: AUG-CC-PVTZ-JKFIT
	 Reference Energy          =    -746.8713371025910419 [Eh]
	 Singles Energy            =      -0.0000000000000000 [Eh]
	 Same-Spin Energy          =      -0.4276078564387685 [Eh]
	 Opposite-Spin Energy      =      -1.4601533754893852 [Eh]
	 Correlation Energy        =      -1.8877612319281538 [Eh]
	 Total Energy              =    -748.7590983345191944 [Eh]

	 ================> DF-SCS-MP2 Energies <==================
	-----------------------------------------------------------
	 SCS Same-Spin Scale       =       0.3333333333333333 [-]
	 SCS Opposite-Spin Scale   =       1.2000000000000000 [-]
	 SCS Same-Spin Energy      =      -0.1425359521462562 [Eh]
	 SCS Opposite-Spin Energy  =      -1.7521840505872621 [Eh]
	 SCS Correlation Energy    =      -1.8947200027335183 [Eh]
	 SCS Total Energy          =    -748.7660571053245349 [Eh]
	-----------------------------------------------------------

  Dipole Moment: [D]
     X:    -0.0709      Y:     2.8065      Z:    -2.1936     Total:     3.5628

*** Psi4 exiting successfully. Buy a developer a beer!
