                               Psi4 1.4a3.dev225

  ==> Input File <==

--------------------------------------------------------------------------
#psi4
#
memory 32 gb

molecule  {
0 1
  S       -0.2613620    -0.5930190    -0.1424790
  O       -0.2879166    -1.2715555     1.2712926
  C        2.3977240     0.0716980     0.1844310
  C        1.0261530     0.6905850    -0.0782140
  C       -1.6743200     0.5466190    -0.2136450
  C        2.8653030    -0.7972080    -0.9817560
  C        3.4104270     1.1761770     0.4821660
  C       -2.9771600    -0.2389800    -0.1306750
  C       -4.1937400     0.6821530    -0.1120660
  H        2.2947170    -0.5588030     1.0765090
  H        0.7552030     1.3745990     0.7353710
  H        1.0111040     1.2381230    -1.0301620
  H       -1.5863530     1.2355690     0.6350930
  H       -1.6018540     1.1165020    -1.1483330
  H        2.9531350    -0.1978260    -1.8953020
  H        3.8477320    -1.2283710    -0.7670690
  H        2.1762820    -1.6227130    -1.1817050
  H        3.5229730     1.8417250    -0.3809710
  H        4.3924350     0.7485930     0.7071400
  H        3.0997810     1.7802300     1.3402560
  H       -3.0432920    -0.9285740    -0.9804800
  H       -2.9504610    -0.8515990     0.7760110
  H       -4.1584820     1.3575060     0.7479640
  H       -4.2413300     1.2926870    -1.0190020
  H       -5.1195520     0.1037900    -0.0468840
units angstrom
no_reorient  #important for SAPT in psi4, default
symmetry c1  #important for SAPT in psi4, default
}

set PROPERTIES_ORIGIN ["COM"]
properties('MP2/aug-cc-pvtz', properties = ['dipole'])
--------------------------------------------------------------------------

    Molecular point group: c1
  Charge       = 0
  Multiplicity = 1
  Basis Set: AUG-CC-PVTZ
    Blend: AUG-CC-PVTZ
  Basis Set: (AUG-CC-PVTZ AUX)
    Blend: AUG-CC-PVTZ-JKFIT

    Orbital Energies [Eh]
    ---------------------

    Doubly Occupied:

       1A    -92.058298     2A    -20.498213     3A    -11.265267
       4A    -11.263328     5A    -11.238438     6A    -11.234243
       7A    -11.224405     8A    -11.221679     9A    -11.218391
      10A     -9.045771    11A     -6.727367    12A     -6.726990
      13A     -6.725806    14A     -1.290841    15A     -1.110840
      16A     -1.086339    17A     -1.010063    18A     -0.943112
      19A     -0.937851    20A     -0.847702    21A     -0.802323
      22A     -0.774563    23A     -0.665328    24A     -0.649204
      25A     -0.628852    26A     -0.611229    27A     -0.592302
      28A     -0.587603    29A     -0.565644    30A     -0.550878
      31A     -0.544724    32A     -0.531966    33A     -0.513548
      34A     -0.499518    35A     -0.498605    36A     -0.485556
      37A     -0.478707    38A     -0.474853    39A     -0.471857
      40A     -0.402155    41A     -0.362570

  @DF-RHF Final Energy:  -746.88643911560735

   => Energetics <=

    Nuclear Repulsion Energy =            573.2374901382135022
    One-Electron Energy =               -2161.5139999343650743
    Two-Electron Energy =                 841.3900706805441132
    Total Energy =                       -746.8864391156073452
  Basis Set: (AUG-CC-PVTZ AUX)
    Blend: AUG-CC-PVTZ-RI
    Molecular point group: c1

    Geometry (in Angstrom), charge = 0, multiplicity = 1:

       Center              X                  Y                   Z               Mass
    ------------   -----------------  -----------------  -----------------  -----------------
         S           -0.252271553073    -0.545939795231    -0.163622376136    31.972071174400
         O           -0.278826153073    -1.224476295231     1.250149223864    15.994914619570
         C            2.406814446927     0.118777204769     0.163287623864    12.000000000000
         C            1.035243446927     0.737664204769    -0.099357376136    12.000000000000
         C           -1.665229553073     0.593698204769    -0.234788376136    12.000000000000
         C            2.874393446927    -0.750128795231    -1.002899376136    12.000000000000
         C            3.419517446927     1.223256204769     0.461022623864    12.000000000000
         C           -2.968069553073    -0.191900795231    -0.151818376136    12.000000000000
         C           -4.184649553073     0.729232204769    -0.133209376136    12.000000000000
         H            2.303807446927    -0.511723795231     1.055365623864     1.007825032230
         H            0.764293446927     1.421678204769     0.714227623864     1.007825032230
         H            1.020194446927     1.285202204769    -1.051305376136     1.007825032230
         H           -1.577262553073     1.282648204769     0.613949623864     1.007825032230
         H           -1.592763553073     1.163581204769    -1.169476376136     1.007825032230
         H            2.962225446927    -0.150746795231    -1.916445376136     1.007825032230
         H            3.856822446927    -1.181291795231    -0.788212376136     1.007825032230
         H            2.185372446927    -1.575633795231    -1.202848376136     1.007825032230
         H            3.532063446927     1.888804204769    -0.402114376136     1.007825032230
         H            4.401525446927     0.795672204769     0.685996623864     1.007825032230
         H            3.108871446927     1.827309204769     1.319112623864     1.007825032230
         H           -3.034201553073    -0.881494795231    -1.001623376136     1.007825032230
         H           -2.941370553073    -0.804519795231     0.754867623864     1.007825032230
         H           -4.149391553073     1.404585204769     0.726820623864     1.007825032230
         H           -4.232239553073     1.339766204769    -1.040145376136     1.007825032230
         H           -5.110461553073     0.150869204769    -0.068027376136     1.007825032230

  Basis Set: AUG-CC-PVTZ
    Blend: AUG-CC-PVTZ
  Basis Set: (AUG-CC-PVTZ AUX)
    Blend: AUG-CC-PVTZ-JKFIT
	 Reference Energy          =    -746.8864391156073452 [Eh]
	 Singles Energy            =      -0.0000000000000000 [Eh]
	 Same-Spin Energy          =      -0.4277427996268430 [Eh]
	 Opposite-Spin Energy      =      -1.4600217686445123 [Eh]
	 Correlation Energy        =      -1.8877645682713553 [Eh]
	 Total Energy              =    -748.7742036838786817 [Eh]

	 ================> DF-SCS-MP2 Energies <==================
	-----------------------------------------------------------
	 SCS Same-Spin Scale       =       0.3333333333333333 [-]
	 SCS Opposite-Spin Scale   =       1.2000000000000000 [-]
	 SCS Same-Spin Energy      =      -0.1425809332089477 [Eh]
	 SCS Opposite-Spin Energy  =      -1.7520261223734146 [Eh]
	 SCS Correlation Energy    =      -1.8946070555823622 [Eh]
	 SCS Total Energy          =    -748.7810461711897005 [Eh]
	-----------------------------------------------------------

  Dipole Moment: [D]
     X:    -0.0502      Y:     3.0623      Z:    -2.4851     Total:     3.9441

*** Psi4 exiting successfully. Buy a developer a beer!
