                               Psi4 1.4a3.dev225

  ==> Input File <==

--------------------------------------------------------------------------
#psi4
#
memory 32 gb

molecule  {
0 1
  S       -0.2613620    -0.5930190    -0.1424790
  O       -0.2870700    -1.2499240     1.2262220
  C        2.4437732     0.1352983     0.0451557
  C        1.0261530     0.6905850    -0.0782140
  C       -1.6743200     0.5466190    -0.2136450
  C        2.8653030    -0.7972080    -0.9817560
  C        3.4104270     1.1761770     0.4821660
  C       -2.9771600    -0.2389800    -0.1306750
  C       -4.1937400     0.6821530    -0.1120660
  H        2.2947170    -0.5588030     1.0765090
  H        0.7552030     1.3745990     0.7353710
  H        1.0111040     1.2381230    -1.0301620
  H       -1.5863530     1.2355690     0.6350930
  H       -1.6018540     1.1165020    -1.1483330
  H        2.9531350    -0.1978260    -1.8953020
  H        3.8477320    -1.2283710    -0.7670690
  H        2.1762820    -1.6227130    -1.1817050
  H        3.5229730     1.8417250    -0.3809710
  H        4.3924350     0.7485930     0.7071400
  H        3.0997810     1.7802300     1.3402560
  H       -3.0432920    -0.9285740    -0.9804800
  H       -2.9504610    -0.8515990     0.7760110
  H       -4.1584820     1.3575060     0.7479640
  H       -4.2413300     1.2926870    -1.0190020
  H       -5.1195520     0.1037900    -0.0468840
units angstrom
no_reorient  #important for SAPT in psi4, default
symmetry c1  #important for SAPT in psi4, default
}

set PROPERTIES_ORIGIN ["COM"]
properties('MP2/aug-cc-pvtz', properties = ['dipole'])
--------------------------------------------------------------------------

    Molecular point group: c1
  Charge       = 0
  Multiplicity = 1
  Basis Set: AUG-CC-PVTZ
    Blend: AUG-CC-PVTZ
  Basis Set: (AUG-CC-PVTZ AUX)
    Blend: AUG-CC-PVTZ-JKFIT

    Orbital Energies [Eh]
    ---------------------

    Doubly Occupied:

       1A    -92.059232     2A    -20.497301     3A    -11.262732
       4A    -11.261573     5A    -11.245489     6A    -11.234177
       7A    -11.224244     8A    -11.221957     9A    -11.217787
      10A     -9.046486    11A     -6.728070    12A     -6.727932
      13A     -6.726628    14A     -1.316837    15A     -1.118806
      16A     -1.087687    17A     -1.012126    18A     -0.951119
      19A     -0.944439    20A     -0.845978    21A     -0.800170
      22A     -0.755508    23A     -0.666841    24A     -0.653709
      25A     -0.633139    26A     -0.616702    27A     -0.597707
      28A     -0.588409    29A     -0.570127    30A     -0.554136
      31A     -0.545046    32A     -0.537648    33A     -0.516036
      34A     -0.514489    35A     -0.502799    36A     -0.499136
      37A     -0.486497    38A     -0.477426    39A     -0.417680
      40A     -0.404387    41A     -0.359595

  @DF-RHF Final Energy:  -746.86411339376036

   => Energetics <=

    Nuclear Repulsion Energy =            575.5089936145184311
    One-Electron Energy =               -2165.8906420347434505
    Two-Electron Energy =                 843.5175350264646568
    Total Energy =                       -746.8641133937603627
  Basis Set: (AUG-CC-PVTZ AUX)
    Blend: AUG-CC-PVTZ-RI
    Molecular point group: c1

    Geometry (in Angstrom), charge = 0, multiplicity = 1:

       Center              X                  Y                   Z               Mass
    ------------   -----------------  -----------------  -----------------  -----------------
         S           -0.256094386059    -0.553429708259    -0.147468897290    31.972071174400
         O           -0.281802386059    -1.210334708259     1.221232102710    15.994914619570
         C            2.449040813941     0.174887591741     0.040165802710    12.000000000000
         C            1.031420613941     0.730174291741    -0.083203897290    12.000000000000
         C           -1.669052386059     0.586208291741    -0.218634897290    12.000000000000
         C            2.870570613941    -0.757618708259    -0.986745897290    12.000000000000
         C            3.415694613941     1.215766291741     0.477176102710    12.000000000000
         C           -2.971892386059    -0.199390708259    -0.135664897290    12.000000000000
         C           -4.188472386059     0.721742291741    -0.117055897290    12.000000000000
         H            2.299984613941    -0.519213708259     1.071519102710     1.007825032230
         H            0.760470613941     1.414188291741     0.730381102710     1.007825032230
         H            1.016371613941     1.277712291741    -1.035151897290     1.007825032230
         H           -1.581085386059     1.275158291741     0.630103102710     1.007825032230
         H           -1.596586386059     1.156091291741    -1.153322897290     1.007825032230
         H            2.958402613941    -0.158236708259    -1.900291897290     1.007825032230
         H            3.852999613941    -1.188781708259    -0.772058897290     1.007825032230
         H            2.181549613941    -1.583123708259    -1.186694897290     1.007825032230
         H            3.528240613941     1.881314291741    -0.385960897290     1.007825032230
         H            4.397702613941     0.788182291741     0.702150102710     1.007825032230
         H            3.105048613941     1.819819291741     1.335266102710     1.007825032230
         H           -3.038024386059    -0.888984708259    -0.985469897290     1.007825032230
         H           -2.945193386059    -0.812009708259     0.771021102710     1.007825032230
         H           -4.153214386059     1.397095291741     0.742974102710     1.007825032230
         H           -4.236062386059     1.332276291741    -1.023991897290     1.007825032230
         H           -5.114284386059     0.143379291741    -0.051873897290     1.007825032230

  Basis Set: AUG-CC-PVTZ
    Blend: AUG-CC-PVTZ
  Basis Set: (AUG-CC-PVTZ AUX)
    Blend: AUG-CC-PVTZ-JKFIT
	 Reference Energy          =    -746.8641133937603627 [Eh]
	 Singles Energy            =      -0.0000000000000000 [Eh]
	 Same-Spin Energy          =      -0.4288395704470156 [Eh]
	 Opposite-Spin Energy      =      -1.4608064622140851 [Eh]
	 Correlation Energy        =      -1.8896460326611006 [Eh]
	 Total Energy              =    -748.7537594264214249 [Eh]

	 ================> DF-SCS-MP2 Energies <==================
	-----------------------------------------------------------
	 SCS Same-Spin Scale       =       0.3333333333333333 [-]
	 SCS Opposite-Spin Scale   =       1.2000000000000000 [-]
	 SCS Same-Spin Energy      =      -0.1429465234823385 [Eh]
	 SCS Opposite-Spin Energy  =      -1.7529677546569020 [Eh]
	 SCS Correlation Energy    =      -1.8959142781392406 [Eh]
	 SCS Total Energy          =    -748.7600276718995929 [Eh]
	-----------------------------------------------------------

  Dipole Moment: [D]
     X:    -0.0831      Y:     2.8727      Z:    -2.3140     Total:     3.6897

*** Psi4 exiting successfully. Buy a developer a beer!
