                               Psi4 1.4a3.dev225

  ==> Input File <==

--------------------------------------------------------------------------
#psi4
#
memory 32 gb

molecule  {
0 1
  S       -0.2613620    -0.5930190    -0.1424790
  O       -0.2870700    -1.2499240     1.2262220
  C        2.4203008     0.0660048     0.1974202
  C        1.0261530     0.6905850    -0.0782140
  C       -1.6743200     0.5466190    -0.2136450
  C        2.8653030    -0.7972080    -0.9817560
  C        3.4104270     1.1761770     0.4821660
  C       -2.9771600    -0.2389800    -0.1306750
  C       -4.1937400     0.6821530    -0.1120660
  H        2.2947170    -0.5588030     1.0765090
  H        0.7552030     1.3745990     0.7353710
  H        1.0111040     1.2381230    -1.0301620
  H       -1.5863530     1.2355690     0.6350930
  H       -1.6018540     1.1165020    -1.1483330
  H        2.9531350    -0.1978260    -1.8953020
  H        3.8477320    -1.2283710    -0.7670690
  H        2.1762820    -1.6227130    -1.1817050
  H        3.5229730     1.8417250    -0.3809710
  H        4.3924350     0.7485930     0.7071400
  H        3.0997810     1.7802300     1.3402560
  H       -3.0432920    -0.9285740    -0.9804800
  H       -2.9504610    -0.8515990     0.7760110
  H       -4.1584820     1.3575060     0.7479640
  H       -4.2413300     1.2926870    -1.0190020
  H       -5.1195520     0.1037900    -0.0468840
units angstrom
no_reorient  #important for SAPT in psi4, default
symmetry c1  #important for SAPT in psi4, default
}

set PROPERTIES_ORIGIN ["COM"]
properties('MP2/aug-cc-pvtz', properties = ['dipole'])
--------------------------------------------------------------------------

    Molecular point group: c1
  Charge       = 0
  Multiplicity = 1
  Basis Set: AUG-CC-PVTZ
    Blend: AUG-CC-PVTZ
  Basis Set: (AUG-CC-PVTZ AUX)
    Blend: AUG-CC-PVTZ-JKFIT

    Orbital Energies [Eh]
    ---------------------

    Doubly Occupied:

       1A    -92.057318     2A    -20.497159     3A    -11.261450
       4A    -11.259923     5A    -11.237966     6A    -11.233276
       7A    -11.223604     8A    -11.220783     9A    -11.217862
      10A     -9.044738    11A     -6.726335    12A     -6.726157
      13A     -6.724870    14A     -1.316773    15A     -1.108015
      16A     -1.084913    17A     -1.007985    18A     -0.940938
      19A     -0.938156    20A     -0.844334    21A     -0.799893
      22A     -0.774519    23A     -0.663648    24A     -0.648803
      25A     -0.628791    26A     -0.610905    27A     -0.593596
      28A     -0.588043    29A     -0.566201    30A     -0.553993
      31A     -0.546422    32A     -0.532999    33A     -0.512941
      34A     -0.506288    35A     -0.498929    36A     -0.486546
      37A     -0.482962    38A     -0.477084    39A     -0.469205
      40A     -0.402933    41A     -0.359141

  @DF-RHF Final Energy:  -746.89120034536734

   => Energetics <=

    Nuclear Repulsion Energy =            574.9617902349981478
    One-Electron Energy =               -2164.9531865162502982
    Two-Electron Energy =                 843.1001959358846989
    Total Energy =                       -746.8912003453673378
  Basis Set: (AUG-CC-PVTZ AUX)
    Blend: AUG-CC-PVTZ-RI
    Molecular point group: c1

    Geometry (in Angstrom), charge = 0, multiplicity = 1:

       Center              X                  Y                   Z               Mass
    ------------   -----------------  -----------------  -----------------  -----------------
         S           -0.254192403199    -0.547814813775    -0.159806982408    31.972071174400
         O           -0.279900403199    -1.204719813775     1.208894017592    15.994914619570
         C            2.427470396801     0.111208986225     0.180092217592    12.000000000000
         C            1.033322596801     0.735789186225    -0.095541982408    12.000000000000
         C           -1.667150403199     0.591823186225    -0.230972982408    12.000000000000
         C            2.872472596801    -0.752003813775    -0.999083982408    12.000000000000
         C            3.417596596801     1.221381186225     0.464838017592    12.000000000000
         C           -2.969990403199    -0.193775813775    -0.148002982408    12.000000000000
         C           -4.186570403199     0.727357186225    -0.129393982408    12.000000000000
         H            2.301886596801    -0.513598813775     1.059181017592     1.007825032230
         H            0.762372596801     1.419803186225     0.718043017592     1.007825032230
         H            1.018273596801     1.283327186225    -1.047489982408     1.007825032230
         H           -1.579183403199     1.280773186225     0.617765017592     1.007825032230
         H           -1.594684403199     1.161706186225    -1.165660982408     1.007825032230
         H            2.960304596801    -0.152621813775    -1.912629982408     1.007825032230
         H            3.854901596801    -1.183166813775    -0.784396982408     1.007825032230
         H            2.183451596801    -1.577508813775    -1.199032982408     1.007825032230
         H            3.530142596801     1.886929186225    -0.398298982408     1.007825032230
         H            4.399604596801     0.793797186225     0.689812017592     1.007825032230
         H            3.106950596801     1.825434186225     1.322928017592     1.007825032230
         H           -3.036122403199    -0.883369813775    -0.997807982408     1.007825032230
         H           -2.943291403199    -0.806394813775     0.758683017592     1.007825032230
         H           -4.151312403199     1.402710186225     0.730636017592     1.007825032230
         H           -4.234160403199     1.337891186225    -1.036329982408     1.007825032230
         H           -5.112382403199     0.148994186225    -0.064211982408     1.007825032230

  Basis Set: AUG-CC-PVTZ
    Blend: AUG-CC-PVTZ
  Basis Set: (AUG-CC-PVTZ AUX)
    Blend: AUG-CC-PVTZ-JKFIT
	 Reference Energy          =    -746.8912003453673378 [Eh]
	 Singles Energy            =      -0.0000000000000000 [Eh]
	 Same-Spin Energy          =      -0.4271770419343927 [Eh]
	 Opposite-Spin Energy      =      -1.4581498194035976 [Eh]
	 Correlation Energy        =      -1.8853268613379903 [Eh]
	 Total Energy              =    -748.7765272067052820 [Eh]

	 ================> DF-SCS-MP2 Energies <==================
	-----------------------------------------------------------
	 SCS Same-Spin Scale       =       0.3333333333333333 [-]
	 SCS Opposite-Spin Scale   =       1.2000000000000000 [-]
	 SCS Same-Spin Energy      =      -0.1423923473114642 [Eh]
	 SCS Opposite-Spin Energy  =      -1.7497797832843169 [Eh]
	 SCS Correlation Energy    =      -1.8921721305957810 [Eh]
	 SCS Total Energy          =    -748.7833724759631195 [Eh]
	-----------------------------------------------------------

  Dipole Moment: [D]
     X:    -0.0281      Y:     2.8928      Z:    -2.2771     Total:     3.6816

*** Psi4 exiting successfully. Buy a developer a beer!
