                               Psi4 1.4a3.dev225

  ==> Input File <==

--------------------------------------------------------------------------
#psi4
#
memory 32 gb

molecule  {
0 1
  S       -0.2613620    -0.5930190    -0.1424790
  O       -0.2853769    -1.2066609     1.1360808
  C        2.3977240     0.0716980     0.1844310
  C        1.0261530     0.6905850    -0.0782140
  C       -1.6743200     0.5466190    -0.2136450
  C        2.8653030    -0.7972080    -0.9817560
  C        3.4104270     1.1761770     0.4821660
  C       -2.9771600    -0.2389800    -0.1306750
  C       -4.1937400     0.6821530    -0.1120660
  H        2.2947170    -0.5588030     1.0765090
  H        0.7552030     1.3745990     0.7353710
  H        1.0111040     1.2381230    -1.0301620
  H       -1.5863530     1.2355690     0.6350930
  H       -1.6018540     1.1165020    -1.1483330
  H        2.9531350    -0.1978260    -1.8953020
  H        3.8477320    -1.2283710    -0.7670690
  H        2.1762820    -1.6227130    -1.1817050
  H        3.5229730     1.8417250    -0.3809710
  H        4.3924350     0.7485930     0.7071400
  H        3.0997810     1.7802300     1.3402560
  H       -3.0432920    -0.9285740    -0.9804800
  H       -2.9504610    -0.8515990     0.7760110
  H       -4.1584820     1.3575060     0.7479640
  H       -4.2413300     1.2926870    -1.0190020
  H       -5.1195520     0.1037900    -0.0468840
units angstrom
no_reorient  #important for SAPT in psi4, default
symmetry c1  #important for SAPT in psi4, default
}

set PROPERTIES_ORIGIN ["COM"]
properties('MP2/aug-cc-pvtz', properties = ['dipole'])
--------------------------------------------------------------------------

    Molecular point group: c1
  Charge       = 0
  Multiplicity = 1
  Basis Set: AUG-CC-PVTZ
    Blend: AUG-CC-PVTZ
  Basis Set: (AUG-CC-PVTZ AUX)
    Blend: AUG-CC-PVTZ-JKFIT

    Orbital Energies [Eh]
    ---------------------

    Doubly Occupied:

       1A    -92.052582     2A    -20.497747     3A    -11.253508
       4A    -11.251680     5A    -11.236195     6A    -11.231750
       7A    -11.222232     8A    -11.219614     9A    -11.216450
      10A     -9.041332    11A     -6.723393    12A     -6.722708
      13A     -6.721419    14A     -1.378526    15A     -1.106719
      16A     -1.082106    17A     -1.002371    18A     -0.939219
      19A     -0.935776    20A     -0.841302    21A     -0.795539
      22A     -0.769140    23A     -0.663621    24A     -0.652055
      25A     -0.632300    26A     -0.612550    27A     -0.597458
      28A     -0.589961    29A     -0.572978    30A     -0.559766
      31A     -0.544115    32A     -0.533266    33A     -0.527005
      34A     -0.514291    35A     -0.498612    36A     -0.485631
      37A     -0.483068    38A     -0.476034    39A     -0.472011
      40A     -0.405737    41A     -0.352255

  @DF-RHF Final Energy:  -746.88951463575381

   => Energetics <=

    Nuclear Repulsion Energy =            579.6495159707847051
    One-Electron Energy =               -2174.2500197927415684
    Two-Electron Energy =                 847.7109891862030508
    Total Energy =                       -746.8895146357538124
  Basis Set: (AUG-CC-PVTZ AUX)
    Blend: AUG-CC-PVTZ-RI
    Molecular point group: c1

    Geometry (in Angstrom), charge = 0, multiplicity = 1:

       Center              X                  Y                   Z               Mass
    ------------   -----------------  -----------------  -----------------  -----------------
         S           -0.252545857111    -0.552948832049    -0.149018626604    31.972071174400
         O           -0.276560757111    -1.166590732049     1.129541173396    15.994914619570
         C            2.406540142889     0.111768167951     0.177891373396    12.000000000000
         C            1.034969142889     0.730655167951    -0.084753626604    12.000000000000
         C           -1.665503857111     0.586689167951    -0.220184626604    12.000000000000
         C            2.874119142889    -0.757137832049    -0.988295626604    12.000000000000
         C            3.419243142889     1.216247167951     0.475626373396    12.000000000000
         C           -2.968343857111    -0.198909832049    -0.137214626604    12.000000000000
         C           -4.184923857111     0.722223167951    -0.118605626604    12.000000000000
         H            2.303533142889    -0.518732832049     1.069969373396     1.007825032230
         H            0.764019142889     1.414669167951     0.728831373396     1.007825032230
         H            1.019920142889     1.278193167951    -1.036701626604     1.007825032230
         H           -1.577536857111     1.275639167951     0.628553373396     1.007825032230
         H           -1.593037857111     1.156572167951    -1.154872626604     1.007825032230
         H            2.961951142889    -0.157755832049    -1.901841626604     1.007825032230
         H            3.856548142889    -1.188300832049    -0.773608626604     1.007825032230
         H            2.185098142889    -1.582642832049    -1.188244626604     1.007825032230
         H            3.531789142889     1.881795167951    -0.387510626604     1.007825032230
         H            4.401251142889     0.788663167951     0.700600373396     1.007825032230
         H            3.108597142889     1.820300167951     1.333716373396     1.007825032230
         H           -3.034475857111    -0.888503832049    -0.987019626604     1.007825032230
         H           -2.941644857111    -0.811528832049     0.769471373396     1.007825032230
         H           -4.149665857111     1.397576167951     0.741424373396     1.007825032230
         H           -4.232513857111     1.332757167951    -1.025541626604     1.007825032230
         H           -5.110735857111     0.143860167951    -0.053423626604     1.007825032230

  Basis Set: AUG-CC-PVTZ
    Blend: AUG-CC-PVTZ
  Basis Set: (AUG-CC-PVTZ AUX)
    Blend: AUG-CC-PVTZ-JKFIT
	 Reference Energy          =    -746.8895146357538124 [Eh]
	 Singles Energy            =      -0.0000000000000000 [Eh]
	 Same-Spin Energy          =      -0.4257692680966654 [Eh]
	 Opposite-Spin Energy      =      -1.4540578949153091 [Eh]
	 Correlation Energy        =      -1.8798271630119745 [Eh]
	 Total Energy              =    -748.7693417987658222 [Eh]

	 ================> DF-SCS-MP2 Energies <==================
	-----------------------------------------------------------
	 SCS Same-Spin Scale       =       0.3333333333333333 [-]
	 SCS Opposite-Spin Scale   =       1.2000000000000000 [-]
	 SCS Same-Spin Energy      =      -0.1419230893655551 [Eh]
	 SCS Opposite-Spin Energy  =      -1.7448694738983710 [Eh]
	 SCS Correlation Energy    =      -1.8867925632639262 [Eh]
	 SCS Total Energy          =    -748.7763071990177650 [Eh]
	-----------------------------------------------------------

  Dipole Moment: [D]
     X:    -0.0575      Y:     2.5174      Z:    -1.8522     Total:     3.1259

*** Psi4 exiting successfully. Buy a developer a beer!
