                               Psi4 1.4a3.dev225

  ==> Input File <==

--------------------------------------------------------------------------
#psi4
#
memory 32 gb

molecule  {
0 1
  S       -0.2613620    -0.5930190    -0.1424790
  O       -0.2870700    -1.2499240     1.2262220
  C        2.3977240     0.0716980     0.1844310
  C        1.0261530     0.6905850    -0.0782140
  C       -1.6743200     0.5466190    -0.2136450
  C        2.8806072    -0.8256479    -1.0199261
  C        3.4104270     1.1761770     0.4821660
  C       -2.9771600    -0.2389800    -0.1306750
  C       -4.1937400     0.6821530    -0.1120660
  H        2.2947170    -0.5588030     1.0765090
  H        0.7552030     1.3745990     0.7353710
  H        1.0111040     1.2381230    -1.0301620
  H       -1.5863530     1.2355690     0.6350930
  H       -1.6018540     1.1165020    -1.1483330
  H        2.9531350    -0.1978260    -1.8953020
  H        3.8477320    -1.2283710    -0.7670690
  H        2.1762820    -1.6227130    -1.1817050
  H        3.5229730     1.8417250    -0.3809710
  H        4.3924350     0.7485930     0.7071400
  H        3.0997810     1.7802300     1.3402560
  H       -3.0432920    -0.9285740    -0.9804800
  H       -2.9504610    -0.8515990     0.7760110
  H       -4.1584820     1.3575060     0.7479640
  H       -4.2413300     1.2926870    -1.0190020
  H       -5.1195520     0.1037900    -0.0468840
units angstrom
no_reorient  #important for SAPT in psi4, default
symmetry c1  #important for SAPT in psi4, default
}

set PROPERTIES_ORIGIN ["COM"]
properties('MP2/aug-cc-pvtz', properties = ['dipole'])
--------------------------------------------------------------------------

    Molecular point group: c1
  Charge       = 0
  Multiplicity = 1
  Basis Set: AUG-CC-PVTZ
    Blend: AUG-CC-PVTZ
  Basis Set: (AUG-CC-PVTZ AUX)
    Blend: AUG-CC-PVTZ-JKFIT

    Orbital Energies [Eh]
    ---------------------

    Doubly Occupied:

       1A    -92.057589     2A    -20.497425     3A    -11.261737
       4A    -11.259756     5A    -11.239695     6A    -11.233468
       7A    -11.223746     8A    -11.220998     9A    -11.215846
      10A     -9.045044    11A     -6.726645    12A     -6.726455
      13A     -6.725174    14A     -1.317063    15A     -1.105914
      16A     -1.083757    17A     -1.006567    18A     -0.941818
      19A     -0.937822    20A     -0.845803    21A     -0.800123
      22A     -0.772289    23A     -0.663910    24A     -0.647985
      25A     -0.629442    26A     -0.609706    27A     -0.593721
      28A     -0.588212    29A     -0.566467    30A     -0.554849
      31A     -0.548908    32A     -0.535426    33A     -0.517114
      34A     -0.506109    35A     -0.499399    36A     -0.486249
      37A     -0.480038    38A     -0.477613    39A     -0.463391
      40A     -0.403419    41A     -0.359429

  @DF-RHF Final Energy:  -746.89008974396779

   => Energetics <=

    Nuclear Repulsion Energy =            574.4370514821198412
    One-Electron Energy =               -2163.9020388172066305
    Two-Electron Energy =                 842.5748975911189973
    Total Energy =                       -746.8900897439677919
  Basis Set: (AUG-CC-PVTZ AUX)
    Blend: AUG-CC-PVTZ-RI
    Molecular point group: c1

    Geometry (in Angstrom), charge = 0, multiplicity = 1:

       Center              X                  Y                   Z               Mass
    ------------   -----------------  -----------------  -----------------  -----------------
         S           -0.253603099994    -0.545971634828    -0.155661513188    31.972071174400
         O           -0.279311099994    -1.202876634828     1.213039486812    15.994914619570
         C            2.405482900006     0.118745365172     0.171248486812    12.000000000000
         C            1.033911900006     0.737632365172    -0.091396513188    12.000000000000
         C           -1.666561099994     0.593666365172    -0.226827513188    12.000000000000
         C            2.888366100006    -0.778600534828    -1.033108613188    12.000000000000
         C            3.418185900006     1.223224365172     0.468983486812    12.000000000000
         C           -2.969401099994    -0.191932634828    -0.143857513188    12.000000000000
         C           -4.185981099994     0.729200365172    -0.125248513188    12.000000000000
         H            2.302475900006    -0.511755634828     1.063326486812     1.007825032230
         H            0.762961900006     1.421646365172     0.722188486812     1.007825032230
         H            1.018862900006     1.285170365172    -1.043344513188     1.007825032230
         H           -1.578594099994     1.282616365172     0.621910486812     1.007825032230
         H           -1.594095099994     1.163549365172    -1.161515513188     1.007825032230
         H            2.960893900006    -0.150778634828    -1.908484513188     1.007825032230
         H            3.855490900006    -1.181323634828    -0.780251513188     1.007825032230
         H            2.184040900006    -1.575665634828    -1.194887513188     1.007825032230
         H            3.530731900006     1.888772365172    -0.394153513188     1.007825032230
         H            4.400193900006     0.795640365172     0.693957486812     1.007825032230
         H            3.107539900006     1.827277365172     1.327073486812     1.007825032230
         H           -3.035533099994    -0.881526634828    -0.993662513188     1.007825032230
         H           -2.942702099994    -0.804551634828     0.762828486812     1.007825032230
         H           -4.150723099994     1.404553365172     0.734781486812     1.007825032230
         H           -4.233571099994     1.339734365172    -1.032184513188     1.007825032230
         H           -5.111793099994     0.150837365172    -0.060066513188     1.007825032230

  Basis Set: AUG-CC-PVTZ
    Blend: AUG-CC-PVTZ
  Basis Set: (AUG-CC-PVTZ AUX)
    Blend: AUG-CC-PVTZ-JKFIT
	 Reference Energy          =    -746.8900897439677919 [Eh]
	 Singles Energy            =      -0.0000000000000000 [Eh]
	 Same-Spin Energy          =      -0.4269714735710214 [Eh]
	 Opposite-Spin Energy      =      -1.4580660748897671 [Eh]
	 Correlation Energy        =      -1.8850375484607886 [Eh]
	 Total Energy              =    -748.7751272924285786 [Eh]

	 ================> DF-SCS-MP2 Energies <==================
	-----------------------------------------------------------
	 SCS Same-Spin Scale       =       0.3333333333333333 [-]
	 SCS Opposite-Spin Scale   =       1.2000000000000000 [-]
	 SCS Same-Spin Energy      =      -0.1423238245236738 [Eh]
	 SCS Opposite-Spin Energy  =      -1.7496792898677205 [Eh]
	 SCS Correlation Energy    =      -1.8920031143913942 [Eh]
	 SCS Total Energy          =    -748.7820928583591922 [Eh]
	-----------------------------------------------------------

  Dipole Moment: [D]
     X:    -0.0555      Y:     2.8982      Z:    -2.2718     Total:     3.6829

*** Psi4 exiting successfully. Buy a developer a beer!
