                               Psi4 1.4a3.dev225

  ==> Input File <==

--------------------------------------------------------------------------
#psi4
#
memory 32 gb

molecule  {
0 1
  S       -0.2613620    -0.5930190    -0.1424790
  O       -0.2870700    -1.2499240     1.2262220
  C        2.3977240     0.0716980     0.1844310
  C        1.0261530     0.6905850    -0.0782140
  C       -1.6743200     0.5466190    -0.2136450
  C        2.8653030    -0.7972080    -0.9817560
  C        3.4236843     1.1906357     0.4860636
  C       -2.9771600    -0.2389800    -0.1306750
  C       -4.1937400     0.6821530    -0.1120660
  H        2.2947170    -0.5588030     1.0765090
  H        0.7552030     1.3745990     0.7353710
  H        1.0111040     1.2381230    -1.0301620
  H       -1.5863530     1.2355690     0.6350930
  H       -1.6018540     1.1165020    -1.1483330
  H        2.9531350    -0.1978260    -1.8953020
  H        3.8477320    -1.2283710    -0.7670690
  H        2.1762820    -1.6227130    -1.1817050
  H        3.5229730     1.8417250    -0.3809710
  H        4.3924350     0.7485930     0.7071400
  H        3.0997810     1.7802300     1.3402560
  H       -3.0432920    -0.9285740    -0.9804800
  H       -2.9504610    -0.8515990     0.7760110
  H       -4.1584820     1.3575060     0.7479640
  H       -4.2413300     1.2926870    -1.0190020
  H       -5.1195520     0.1037900    -0.0468840
units angstrom
no_reorient  #important for SAPT in psi4, default
symmetry c1  #important for SAPT in psi4, default
}

set PROPERTIES_ORIGIN ["COM"]
properties('MP2/aug-cc-pvtz', properties = ['dipole'])
--------------------------------------------------------------------------

    Molecular point group: c1
  Charge       = 0
  Multiplicity = 1
  Basis Set: AUG-CC-PVTZ
    Blend: AUG-CC-PVTZ
  Basis Set: (AUG-CC-PVTZ AUX)
    Blend: AUG-CC-PVTZ-JKFIT

    Orbital Energies [Eh]
    ---------------------

    Doubly Occupied:

       1A    -92.057530     2A    -20.497405     3A    -11.261691
       4A    -11.259752     5A    -11.238550     6A    -11.233442
       7A    -11.223727     8A    -11.220201     9A    -11.217732
      10A     -9.044989    11A     -6.726587    12A     -6.726398
      13A     -6.725113    14A     -1.317051    15A     -1.107995
      16A     -1.084503    17A     -1.007107    18A     -0.941855
      19A     -0.937441    20A     -0.845868    21A     -0.800216
      22A     -0.772502    23A     -0.664298    24A     -0.648787
      25A     -0.629104    26A     -0.611109    27A     -0.592917
      28A     -0.588085    29A     -0.566013    30A     -0.554458
      31A     -0.546626    32A     -0.535086    33A     -0.513785
      34A     -0.506540    35A     -0.499424    36A     -0.485876
      37A     -0.478429    38A     -0.476252    39A     -0.471851
      40A     -0.403280    41A     -0.359225

  @DF-RHF Final Energy:  -746.89151978493703

   => Energetics <=

    Nuclear Repulsion Energy =            574.9218484784965995
    One-Electron Energy =               -2164.8691383348182171
    Two-Electron Energy =                 843.0557700713846998
    Total Energy =                       -746.8915197849370315
  Basis Set: (AUG-CC-PVTZ AUX)
    Blend: AUG-CC-PVTZ-RI
    Molecular point group: c1

    Geometry (in Angstrom), charge = 0, multiplicity = 1:

       Center              X                  Y                   Z               Mass
    ------------   -----------------  -----------------  -----------------  -----------------
         S           -0.253437238441    -0.549447734499    -0.159070284526    31.972071174400
         O           -0.279145238441    -1.206352734499     1.209630715474    15.994914619570
         C            2.405648761559     0.115269265501     0.167839715474    12.000000000000
         C            1.034077761559     0.734156265501    -0.094805284526    12.000000000000
         C           -1.666395238441     0.590190265501    -0.230236284526    12.000000000000
         C            2.873227761559    -0.753636734499    -0.998347284526    12.000000000000
         C            3.431609061559     1.234206965501     0.469472315474    12.000000000000
         C           -2.969235238441    -0.195408734499    -0.147266284526    12.000000000000
         C           -4.185815238441     0.725724265501    -0.128657284526    12.000000000000
         H            2.302641761559    -0.515231734499     1.059917715474     1.007825032230
         H            0.763127761559     1.418170265501     0.718779715474     1.007825032230
         H            1.019028761559     1.281694265501    -1.046753284526     1.007825032230
         H           -1.578428238441     1.279140265501     0.618501715474     1.007825032230
         H           -1.593929238441     1.160073265501    -1.164924284526     1.007825032230
         H            2.961059761559    -0.154254734499    -1.911893284526     1.007825032230
         H            3.855656761559    -1.184799734499    -0.783660284526     1.007825032230
         H            2.184206761559    -1.579141734499    -1.198296284526     1.007825032230
         H            3.530897761559     1.885296265501    -0.397562284526     1.007825032230
         H            4.400359761559     0.792164265501     0.690548715474     1.007825032230
         H            3.107705761559     1.823801265501     1.323664715474     1.007825032230
         H           -3.035367238441    -0.885002734499    -0.997071284526     1.007825032230
         H           -2.942536238441    -0.808027734499     0.759419715474     1.007825032230
         H           -4.150557238441     1.401077265501     0.731372715474     1.007825032230
         H           -4.233405238441     1.336258265501    -1.035593284526     1.007825032230
         H           -5.111627238441     0.147361265501    -0.063475284526     1.007825032230

  Basis Set: AUG-CC-PVTZ
    Blend: AUG-CC-PVTZ
  Basis Set: (AUG-CC-PVTZ AUX)
    Blend: AUG-CC-PVTZ-JKFIT
	 Reference Energy          =    -746.8915197849370315 [Eh]
	 Singles Energy            =      -0.0000000000000000 [Eh]
	 Same-Spin Energy          =      -0.4271404956929524 [Eh]
	 Opposite-Spin Energy      =      -1.4581487984211281 [Eh]
	 Correlation Energy        =      -1.8852892941140804 [Eh]
	 Total Energy              =    -748.7768090790510769 [Eh]

	 ================> DF-SCS-MP2 Energies <==================
	-----------------------------------------------------------
	 SCS Same-Spin Scale       =       0.3333333333333333 [-]
	 SCS Opposite-Spin Scale   =       1.2000000000000000 [-]
	 SCS Same-Spin Energy      =      -0.1423801652309841 [Eh]
	 SCS Opposite-Spin Energy  =      -1.7497785581053538 [Eh]
	 SCS Correlation Energy    =      -1.8921587233363379 [Eh]
	 SCS Total Energy          =    -748.7836785082733968 [Eh]
	-----------------------------------------------------------

  Dipole Moment: [D]
     X:    -0.0516      Y:     2.8866      Z:    -2.2791     Total:     3.6783

*** Psi4 exiting successfully. Buy a developer a beer!
