                               Psi4 1.4a3.dev225

  ==> Input File <==

--------------------------------------------------------------------------
#psi4
#
memory 32 gb

molecule  {
0 1
  S       -0.2613620    -0.5930190    -0.1424790
  O       -0.2870700    -1.2499240     1.2262220
  C        2.3977240     0.0716980     0.1844310
  C        1.0261530     0.6905850    -0.0782140
  C       -1.6743200     0.5466190    -0.2136450
  C        2.8653030    -0.7972080    -0.9817560
  C        3.4104270     1.1761770     0.4821660
  C       -2.9771600    -0.2389800    -0.1306750
  C       -4.1937400     0.6821530    -0.1120660
  H        2.2947170    -0.5588030     1.0765090
  H        0.7552030     1.3745990     0.7353710
  H        1.0111040     1.2381230    -1.0301620
  H       -1.5863530     1.2355690     0.6350930
  H       -1.6018540     1.1165020    -1.1483330
  H        2.9531350    -0.1978260    -1.8953020
  H        3.8477320    -1.2283710    -0.7670690
  H        2.1762820    -1.6227130    -1.1817050
  H        3.5229730     1.8417250    -0.3809710
  H        4.3924350     0.7485930     0.7071400
  H        3.0997810     1.7802300     1.3402560
  H       -3.0432920    -0.9285740    -0.9804800
  H       -2.9504610    -0.8515990     0.7760110
  H       -4.1584820     1.3575060     0.7479640
  H       -4.2413300     1.2926870    -1.0190020
  H       -5.1364840     0.0932124    -0.0456919
units angstrom
no_reorient  #important for SAPT in psi4, default
symmetry c1  #important for SAPT in psi4, default
}

set PROPERTIES_ORIGIN ["COM"]
properties('MP2/aug-cc-pvtz', properties = ['dipole'])
--------------------------------------------------------------------------

    Molecular point group: c1
  Charge       = 0
  Multiplicity = 1
  Basis Set: AUG-CC-PVTZ
    Blend: AUG-CC-PVTZ
  Basis Set: (AUG-CC-PVTZ AUX)
    Blend: AUG-CC-PVTZ-JKFIT

    Orbital Energies [Eh]
    ---------------------

    Doubly Occupied:

       1A    -92.057712     2A    -20.497552     3A    -11.261883
       4A    -11.259915     5A    -11.237805     6A    -11.233656
       7A    -11.226182     8A    -11.221106     9A    -11.217848
      10A     -9.045166    11A     -6.726764    12A     -6.726576
      13A     -6.725290    14A     -1.317204    15A     -1.109705
      16A     -1.085003    17A     -1.007330    18A     -0.941221
      19A     -0.937267    20A     -0.844965    21A     -0.800215
      22A     -0.772997    23A     -0.664624    24A     -0.649435
      25A     -0.629303    26A     -0.611134    27A     -0.592264
      28A     -0.587187    29A     -0.566551    30A     -0.554186
      31A     -0.545166    32A     -0.533026    33A     -0.513412
      34A     -0.506492    35A     -0.498901    36A     -0.486193
      37A     -0.480089    38A     -0.475547    39A     -0.472509
      40A     -0.403521    41A     -0.359451

  @DF-RHF Final Energy:  -746.89114343093001

   => Energetics <=

    Nuclear Repulsion Energy =            575.1839625874359854
    One-Electron Energy =               -2165.3855056741085718
    Two-Electron Energy =                 843.3103996557426854
    Total Energy =                       -746.8911434309300148
  Basis Set: (AUG-CC-PVTZ AUX)
    Blend: AUG-CC-PVTZ-RI
    Molecular point group: c1

    Geometry (in Angstrom), charge = 0, multiplicity = 1:

       Center              X                  Y                   Z               Mass
    ------------   -----------------  -----------------  -----------------  -----------------
         S           -0.252247762495    -0.548204152547    -0.158762572330    31.972071174400
         O           -0.277955762495    -1.205109152547     1.209938427670    15.994914619570
         C            2.406838237505     0.116512847453     0.168147427670    12.000000000000
         C            1.035267237505     0.735399847453    -0.094497572330    12.000000000000
         C           -1.665205762495     0.591433847453    -0.229928572330    12.000000000000
         C            2.874417237505    -0.752393152547    -0.998039572330    12.000000000000
         C            3.419541237505     1.220991847453     0.465882427670    12.000000000000
         C           -2.968045762495    -0.194165152547    -0.146958572330    12.000000000000
         C           -4.184625762495     0.726967847453    -0.128349572330    12.000000000000
         H            2.303831237505    -0.513988152547     1.060225427670     1.007825032230
         H            0.764317237505     1.419413847453     0.719087427670     1.007825032230
         H            1.020218237505     1.282937847453    -1.046445572330     1.007825032230
         H           -1.577238762495     1.280383847453     0.618809427670     1.007825032230
         H           -1.592739762495     1.161316847453    -1.164616572330     1.007825032230
         H            2.962249237505    -0.153011152547    -1.911585572330     1.007825032230
         H            3.856846237505    -1.183556152547    -0.783352572330     1.007825032230
         H            2.185396237505    -1.577898152547    -1.197988572330     1.007825032230
         H            3.532087237505     1.886539847453    -0.397254572330     1.007825032230
         H            4.401549237505     0.793407847453     0.690856427670     1.007825032230
         H            3.108895237505     1.825044847453     1.323972427670     1.007825032230
         H           -3.034177762495    -0.883759152547    -0.996763572330     1.007825032230
         H           -2.941346762495    -0.806784152547     0.759727427670     1.007825032230
         H           -4.149367762495     1.402320847453     0.731680427670     1.007825032230
         H           -4.232215762495     1.337501847453    -1.035285572330     1.007825032230
         H           -5.127369762495     0.138027247453    -0.061975472330     1.007825032230

  Basis Set: AUG-CC-PVTZ
    Blend: AUG-CC-PVTZ
  Basis Set: (AUG-CC-PVTZ AUX)
    Blend: AUG-CC-PVTZ-JKFIT
	 Reference Energy          =    -746.8911434309300148 [Eh]
	 Singles Energy            =      -0.0000000000000000 [Eh]
	 Same-Spin Energy          =      -0.4272550428087503 [Eh]
	 Opposite-Spin Energy      =      -1.4583621333675041 [Eh]
	 Correlation Energy        =      -1.8856171761762544 [Eh]
	 Total Energy              =    -748.7767606071063256 [Eh]

	 ================> DF-SCS-MP2 Energies <==================
	-----------------------------------------------------------
	 SCS Same-Spin Scale       =       0.3333333333333333 [-]
	 SCS Opposite-Spin Scale   =       1.2000000000000000 [-]
	 SCS Same-Spin Energy      =      -0.1424183476029167 [Eh]
	 SCS Opposite-Spin Energy  =      -1.7500345600410048 [Eh]
	 SCS Correlation Energy    =      -1.8924529076439216 [Eh]
	 SCS Total Energy          =    -748.7835963385739433 [Eh]
	-----------------------------------------------------------

  Dipole Moment: [D]
     X:    -0.0362      Y:     2.8893      Z:    -2.2781     Total:     3.6795

*** Psi4 exiting successfully. Buy a developer a beer!
