                               Psi4 1.4a3.dev225

  ==> Input File <==

--------------------------------------------------------------------------
#psi4
#
memory 32 gb

molecule  {
0 1
  S       -0.2613620    -0.5930190    -0.1424790
  O       -0.2870700    -1.2499240     1.2262220
  C        2.3752896     0.0771265     0.1710866
  C        1.0261530     0.6905850    -0.0782140
  C       -1.6743200     0.5466190    -0.2136450
  C        2.8653030    -0.7972080    -0.9817560
  C        3.4104270     1.1761770     0.4821660
  C       -2.9771600    -0.2389800    -0.1306750
  C       -4.1937400     0.6821530    -0.1120660
  H        2.2947170    -0.5588030     1.0765090
  H        0.7552030     1.3745990     0.7353710
  H        1.0111040     1.2381230    -1.0301620
  H       -1.5863530     1.2355690     0.6350930
  H       -1.6018540     1.1165020    -1.1483330
  H        2.9531350    -0.1978260    -1.8953020
  H        3.8477320    -1.2283710    -0.7670690
  H        2.1762820    -1.6227130    -1.1817050
  H        3.5229730     1.8417250    -0.3809710
  H        4.3924350     0.7485930     0.7071400
  H        3.0997810     1.7802300     1.3402560
  H       -3.0432920    -0.9285740    -0.9804800
  H       -2.9504610    -0.8515990     0.7760110
  H       -4.1584820     1.3575060     0.7479640
  H       -4.2413300     1.2926870    -1.0190020
  H       -5.1195520     0.1037900    -0.0468840
units angstrom
no_reorient  #important for SAPT in psi4, default
symmetry c1  #important for SAPT in psi4, default
}

set PROPERTIES_ORIGIN ["COM"]
properties('MP2/aug-cc-pvtz', properties = ['dipole'])
--------------------------------------------------------------------------

    Molecular point group: c1
  Charge       = 0
  Multiplicity = 1
  Basis Set: AUG-CC-PVTZ
    Blend: AUG-CC-PVTZ
  Basis Set: (AUG-CC-PVTZ AUX)
    Blend: AUG-CC-PVTZ-JKFIT

    Orbital Energies [Eh]
    ---------------------

    Doubly Occupied:

       1A    -92.057817     2A    -20.497733     3A    -11.261988
       4A    -11.259608     5A    -11.237707     6A    -11.233644
       7A    -11.223874     8A    -11.221409     9A    -11.217836
      10A     -9.045314    11A     -6.726914    12A     -6.726714
      13A     -6.725430    14A     -1.317423    15A     -1.111554
      16A     -1.085238    17A     -1.007273    18A     -0.943093
      19A     -0.936193    20A     -0.846981    21A     -0.800489
      22A     -0.771348    23A     -0.665431    24A     -0.649957
      25A     -0.630614    26A     -0.611367    27A     -0.592515
      28A     -0.587750    29A     -0.566681    30A     -0.554489
      31A     -0.544021    32A     -0.533415    33A     -0.515592
      34A     -0.506608    35A     -0.499993    36A     -0.486414
      37A     -0.480879    38A     -0.476659    39A     -0.467710
      40A     -0.403835    41A     -0.359517

  @DF-RHF Final Energy:  -746.89069355834681

   => Energetics <=

    Nuclear Repulsion Energy =            575.5851658253086498
    One-Electron Energy =               -2166.1736583969391177
    Two-Electron Energy =                 843.6977990132836567
    Total Energy =                       -746.8906935583468112
  Basis Set: (AUG-CC-PVTZ AUX)
    Blend: AUG-CC-PVTZ-RI
    Molecular point group: c1

    Geometry (in Angstrom), charge = 0, multiplicity = 1:

       Center              X                  Y                   Z               Mass
    ------------   -----------------  -----------------  -----------------  -----------------
         S           -0.250545118265    -0.548716011896    -0.157673154771    31.972071174400
         O           -0.276253118265    -1.205621011896     1.211027845229    15.994914619570
         C            2.386106481735     0.121429488104     0.155892445229    12.000000000000
         C            1.036969881735     0.734887988104    -0.093408154771    12.000000000000
         C           -1.663503118265     0.590921988104    -0.228839154771    12.000000000000
         C            2.876119881735    -0.752905011896    -0.996950154771    12.000000000000
         C            3.421243881735     1.220479988104     0.466971845229    12.000000000000
         C           -2.966343118265    -0.194677011896    -0.145869154771    12.000000000000
         C           -4.182923118265     0.726455988104    -0.127260154771    12.000000000000
         H            2.305533881735    -0.514500011896     1.061314845229     1.007825032230
         H            0.766019881735     1.418901988104     0.720176845229     1.007825032230
         H            1.021920881735     1.282425988104    -1.045356154771     1.007825032230
         H           -1.575536118265     1.279871988104     0.619898845229     1.007825032230
         H           -1.591037118265     1.160804988104    -1.163527154771     1.007825032230
         H            2.963951881735    -0.153523011896    -1.910496154771     1.007825032230
         H            3.858548881735    -1.184068011896    -0.782263154771     1.007825032230
         H            2.187098881735    -1.578410011896    -1.196899154771     1.007825032230
         H            3.533789881735     1.886027988104    -0.396165154771     1.007825032230
         H            4.403251881735     0.792895988104     0.691945845229     1.007825032230
         H            3.110597881735     1.824532988104     1.325061845229     1.007825032230
         H           -3.032475118265    -0.884271011896    -0.995674154771     1.007825032230
         H           -2.939644118265    -0.807296011896     0.760816845229     1.007825032230
         H           -4.147665118265     1.401808988104     0.732769845229     1.007825032230
         H           -4.230513118265     1.336989988104    -1.034196154771     1.007825032230
         H           -5.108735118265     0.148092988104    -0.062078154771     1.007825032230

  Basis Set: AUG-CC-PVTZ
    Blend: AUG-CC-PVTZ
  Basis Set: (AUG-CC-PVTZ AUX)
    Blend: AUG-CC-PVTZ-JKFIT
	 Reference Energy          =    -746.8906935583468112 [Eh]
	 Singles Energy            =      -0.0000000000000000 [Eh]
	 Same-Spin Energy          =      -0.4274113622431348 [Eh]
	 Opposite-Spin Energy      =      -1.4584404263337711 [Eh]
	 Correlation Energy        =      -1.8858517885769059 [Eh]
	 Total Energy              =    -748.7765453469237400 [Eh]

	 ================> DF-SCS-MP2 Energies <==================
	-----------------------------------------------------------
	 SCS Same-Spin Scale       =       0.3333333333333333 [-]
	 SCS Opposite-Spin Scale   =       1.2000000000000000 [-]
	 SCS Same-Spin Energy      =      -0.1424704540810449 [Eh]
	 SCS Opposite-Spin Energy  =      -1.7501285116005254 [Eh]
	 SCS Correlation Energy    =      -1.8925989656815703 [Eh]
	 SCS Total Energy          =    -748.7832925240284112 [Eh]
	-----------------------------------------------------------

  Dipole Moment: [D]
     X:    -0.0751      Y:     2.8800      Z:    -2.2788     Total:     3.6733

*** Psi4 exiting successfully. Buy a developer a beer!
