                               Psi4 1.4a3.dev225

  ==> Input File <==

--------------------------------------------------------------------------
#psi4
#
memory 32 gb

molecule  {
0 1
  S       -0.2613620    -0.5930190    -0.1424790
  O       -0.2870700    -1.2499240     1.2262220
  C        2.3586381     0.0330248     0.2757756
  C        1.0261530     0.6905850    -0.0782140
  C       -1.6743200     0.5466190    -0.2136450
  C        2.8653030    -0.7972080    -0.9817560
  C        3.4104270     1.1761770     0.4821660
  C       -2.9771600    -0.2389800    -0.1306750
  C       -4.1937400     0.6821530    -0.1120660
  H        2.2947170    -0.5588030     1.0765090
  H        0.7552030     1.3745990     0.7353710
  H        1.0111040     1.2381230    -1.0301620
  H       -1.5863530     1.2355690     0.6350930
  H       -1.6018540     1.1165020    -1.1483330
  H        2.9531350    -0.1978260    -1.8953020
  H        3.8477320    -1.2283710    -0.7670690
  H        2.1762820    -1.6227130    -1.1817050
  H        3.5229730     1.8417250    -0.3809710
  H        4.3924350     0.7485930     0.7071400
  H        3.0997810     1.7802300     1.3402560
  H       -3.0432920    -0.9285740    -0.9804800
  H       -2.9504610    -0.8515990     0.7760110
  H       -4.1584820     1.3575060     0.7479640
  H       -4.2413300     1.2926870    -1.0190020
  H       -5.1195520     0.1037900    -0.0468840
units angstrom
no_reorient  #important for SAPT in psi4, default
symmetry c1  #important for SAPT in psi4, default
}

set PROPERTIES_ORIGIN ["COM"]
properties('MP2/aug-cc-pvtz', properties = ['dipole'])
--------------------------------------------------------------------------

    Molecular point group: c1
  Charge       = 0
  Multiplicity = 1
  Basis Set: AUG-CC-PVTZ
    Blend: AUG-CC-PVTZ
  Basis Set: (AUG-CC-PVTZ AUX)
    Blend: AUG-CC-PVTZ-JKFIT

    Orbital Energies [Eh]
    ---------------------

    Doubly Occupied:

       1A    -92.056693     2A    -20.497716     3A    -11.261191
       4A    -11.260670     5A    -11.235919     6A    -11.233075
       7A    -11.223475     8A    -11.222435     9A    -11.219106
      10A     -9.044282    11A     -6.725893    12A     -6.725658
      13A     -6.724389    14A     -1.317441    15A     -1.105715
      16A     -1.083112    17A     -1.004767    18A     -0.940219
      19A     -0.928991    20A     -0.846938    21A     -0.803042
      22A     -0.787666    23A     -0.663208    24A     -0.646100
      25A     -0.628766    26A     -0.610404    27A     -0.588972
      28A     -0.587920    29A     -0.564664    30A     -0.555165
      31A     -0.545316    32A     -0.531440    33A     -0.513323
      34A     -0.508478    35A     -0.504219    36A     -0.498593
      37A     -0.485583    38A     -0.471393    39A     -0.455801
      40A     -0.402145    41A     -0.359040

  @DF-RHF Final Energy:  -746.87902399953612

   => Energetics <=

    Nuclear Repulsion Energy =            575.0918587691244284
    One-Electron Energy =               -2165.2039175608902042
    Two-Electron Energy =                 843.2330347922296596
    Total Energy =                       -746.8790239995361162
  Basis Set: (AUG-CC-PVTZ AUX)
    Blend: AUG-CC-PVTZ-RI
    Molecular point group: c1

    Geometry (in Angstrom), charge = 0, multiplicity = 1:

       Center              X                  Y                   Z               Mass
    ------------   -----------------  -----------------  -----------------  -----------------
         S           -0.249195837084    -0.545142424300    -0.166156168165    31.972071174400
         O           -0.274903837084    -1.202047424300     1.202544831835    15.994914619570
         C            2.370804262916     0.080901375700     0.252098431835    12.000000000000
         C            1.038319162916     0.738461575700    -0.101891168165    12.000000000000
         C           -1.662153837084     0.594495575700    -0.237322168165    12.000000000000
         C            2.877469162916    -0.749331424300    -1.005433168165    12.000000000000
         C            3.422593162916     1.224053575700     0.458488831835    12.000000000000
         C           -2.964993837084    -0.191103424300    -0.154352168165    12.000000000000
         C           -4.181573837084     0.730029575700    -0.135743168165    12.000000000000
         H            2.306883162916    -0.510926424300     1.052831831835     1.007825032230
         H            0.767369162916     1.422475575700     0.711693831835     1.007825032230
         H            1.023270162916     1.285999575700    -1.053839168165     1.007825032230
         H           -1.574186837084     1.283445575700     0.611415831835     1.007825032230
         H           -1.589687837084     1.164378575700    -1.172010168165     1.007825032230
         H            2.965301162916    -0.149949424300    -1.918979168165     1.007825032230
         H            3.859898162916    -1.180494424300    -0.790746168165     1.007825032230
         H            2.188448162916    -1.574836424300    -1.205382168165     1.007825032230
         H            3.535139162916     1.889601575700    -0.404648168165     1.007825032230
         H            4.404601162916     0.796469575700     0.683462831835     1.007825032230
         H            3.111947162916     1.828106575700     1.316578831835     1.007825032230
         H           -3.031125837084    -0.880697424300    -1.004157168165     1.007825032230
         H           -2.938294837084    -0.803722424300     0.752333831835     1.007825032230
         H           -4.146315837084     1.405382575700     0.724286831835     1.007825032230
         H           -4.229163837084     1.340563575700    -1.042679168165     1.007825032230
         H           -5.107385837084     0.151666575700    -0.070561168165     1.007825032230

  Basis Set: AUG-CC-PVTZ
    Blend: AUG-CC-PVTZ
  Basis Set: (AUG-CC-PVTZ AUX)
    Blend: AUG-CC-PVTZ-JKFIT
	 Reference Energy          =    -746.8790239995361162 [Eh]
	 Singles Energy            =      -0.0000000000000000 [Eh]
	 Same-Spin Energy          =      -0.4269130065843472 [Eh]
	 Opposite-Spin Energy      =      -1.4583691119929840 [Eh]
	 Correlation Energy        =      -1.8852821185773312 [Eh]
	 Total Energy              =    -748.7643061181134954 [Eh]

	 ================> DF-SCS-MP2 Energies <==================
	-----------------------------------------------------------
	 SCS Same-Spin Scale       =       0.3333333333333333 [-]
	 SCS Opposite-Spin Scale   =       1.2000000000000000 [-]
	 SCS Same-Spin Energy      =      -0.1423043355281157 [Eh]
	 SCS Opposite-Spin Energy  =      -1.7500429343915809 [Eh]
	 SCS Correlation Energy    =      -1.8923472699196966 [Eh]
	 SCS Total Energy          =    -748.7713712694558126 [Eh]
	-----------------------------------------------------------

  Dipole Moment: [D]
     X:    -0.0400      Y:     2.9103      Z:    -2.2734     Total:     3.6932

*** Psi4 exiting successfully. Buy a developer a beer!
