                               Psi4 1.4a3.dev225

  ==> Input File <==

--------------------------------------------------------------------------
#psi4
#
memory 32 gb

molecule  {
0 1
  S       -0.2613620    -0.5930190    -0.1424790
  O       -0.2870700    -1.2499240     1.2262220
  C        2.3977240     0.0716980     0.1844310
  C        1.0261530     0.6905850    -0.0782140
  C       -1.6743200     0.5466190    -0.2136450
  C        2.8653030    -0.7972080    -0.9817560
  C        3.4104270     1.1761770     0.4821660
  C       -2.9771600    -0.2389800    -0.1306750
  C       -4.1937400     0.6821530    -0.1120660
  H        2.2947170    -0.5588030     1.0765090
  H        0.7552030     1.3745990     0.7353710
  H        1.0111040     1.2381230    -1.0301620
  H       -1.5863530     1.2355690     0.6350930
  H       -1.6018540     1.1165020    -1.1483330
  H        2.9531350    -0.1978260    -1.8953020
  H        3.8477320    -1.2283710    -0.7670690
  H        2.1447826    -1.6604520    -1.1908459
  H        3.5229730     1.8417250    -0.3809710
  H        4.3924350     0.7485930     0.7071400
  H        3.0997810     1.7802300     1.3402560
  H       -3.0432920    -0.9285740    -0.9804800
  H       -2.9504610    -0.8515990     0.7760110
  H       -4.1584820     1.3575060     0.7479640
  H       -4.2413300     1.2926870    -1.0190020
  H       -5.1195520     0.1037900    -0.0468840
units angstrom
no_reorient  #important for SAPT in psi4, default
symmetry c1  #important for SAPT in psi4, default
}

set PROPERTIES_ORIGIN ["COM"]
properties('MP2/aug-cc-pvtz', properties = ['dipole'])
--------------------------------------------------------------------------

    Molecular point group: c1
  Charge       = 0
  Multiplicity = 1
  Basis Set: AUG-CC-PVTZ
    Blend: AUG-CC-PVTZ
  Basis Set: (AUG-CC-PVTZ AUX)
    Blend: AUG-CC-PVTZ-JKFIT

    Orbital Energies [Eh]
    ---------------------

    Doubly Occupied:

       1A    -92.057413     2A    -20.497342     3A    -11.261574
       4A    -11.259905     5A    -11.238275     6A    -11.233378
       7A    -11.223725     8A    -11.223677     9A    -11.221559
      10A     -9.044872    11A     -6.726466    12A     -6.726278
      13A     -6.724990    14A     -1.316982    15A     -1.109484
      16A     -1.084918    17A     -1.007469    18A     -0.941797
      19A     -0.934119    20A     -0.845443    21A     -0.800026
      22A     -0.772423    23A     -0.664341    24A     -0.648747
      25A     -0.629285    26A     -0.610418    27A     -0.590800
      28A     -0.587883    29A     -0.565691    30A     -0.554112
      31A     -0.544784    32A     -0.533170    33A     -0.512404
      34A     -0.506350    35A     -0.499342    36A     -0.485959
      37A     -0.477686    38A     -0.475838    39A     -0.472706
      40A     -0.403415    41A     -0.359061

  @DF-RHF Final Energy:  -746.88949612930230

   => Energetics <=

    Nuclear Repulsion Energy =            575.0966833970426251
    One-Electron Energy =               -2165.2241476601097929
    Two-Electron Energy =                 843.2379681337648663
    Total Energy =                       -746.8894961293023016
  Basis Set: (AUG-CC-PVTZ AUX)
    Blend: AUG-CC-PVTZ-RI
    Molecular point group: c1

    Geometry (in Angstrom), charge = 0, multiplicity = 1:

       Center              X                  Y                   Z               Mass
    ------------   -----------------  -----------------  -----------------  -----------------
         S           -0.252148625662    -0.548019308637    -0.158692252239    31.972071174400
         O           -0.277856625662    -1.204924308637     1.210008747761    15.994914619570
         C            2.406937374338     0.116697691363     0.168217747761    12.000000000000
         C            1.035366374338     0.735584691363    -0.094427252239    12.000000000000
         C           -1.665106625662     0.591618691363    -0.229858252239    12.000000000000
         C            2.874516374338    -0.752208308637    -0.997969252239    12.000000000000
         C            3.419640374338     1.221176691363     0.465952747761    12.000000000000
         C           -2.967946625662    -0.193980308637    -0.146888252239    12.000000000000
         C           -4.184526625662     0.727152691363    -0.128279252239    12.000000000000
         H            2.303930374338    -0.513803308637     1.060295747761     1.007825032230
         H            0.764416374338     1.419598691363     0.719157747761     1.007825032230
         H            1.020317374338     1.283122691363    -1.046375252239     1.007825032230
         H           -1.577139625662     1.280568691363     0.618879747761     1.007825032230
         H           -1.592640625662     1.161501691363    -1.164546252239     1.007825032230
         H            2.962348374338    -0.152826308637    -1.911515252239     1.007825032230
         H            3.856945374338    -1.183371308637    -0.783282252239     1.007825032230
         H            2.153995974338    -1.615452308637    -1.207059152239     1.007825032230
         H            3.532186374338     1.886724691363    -0.397184252239     1.007825032230
         H            4.401648374338     0.793592691363     0.690926747761     1.007825032230
         H            3.108994374338     1.825229691363     1.324042747761     1.007825032230
         H           -3.034078625662    -0.883574308637    -0.996693252239     1.007825032230
         H           -2.941247625662    -0.806599308637     0.759797747761     1.007825032230
         H           -4.149268625662     1.402505691363     0.731750747761     1.007825032230
         H           -4.232116625662     1.337686691363    -1.035215252239     1.007825032230
         H           -5.110338625662     0.148789691363    -0.063097252239     1.007825032230

  Basis Set: AUG-CC-PVTZ
    Blend: AUG-CC-PVTZ
  Basis Set: (AUG-CC-PVTZ AUX)
    Blend: AUG-CC-PVTZ-JKFIT
	 Reference Energy          =    -746.8894961293023016 [Eh]
	 Singles Energy            =      -0.0000000000000000 [Eh]
	 Same-Spin Energy          =      -0.4273078290317818 [Eh]
	 Opposite-Spin Energy      =      -1.4586263627787899 [Eh]
	 Correlation Energy        =      -1.8859341918105716 [Eh]
	 Total Energy              =    -748.7754303211128217 [Eh]

	 ================> DF-SCS-MP2 Energies <==================
	-----------------------------------------------------------
	 SCS Same-Spin Scale       =       0.3333333333333333 [-]
	 SCS Opposite-Spin Scale   =       1.2000000000000000 [-]
	 SCS Same-Spin Energy      =      -0.1424359430105939 [Eh]
	 SCS Opposite-Spin Energy  =      -1.7503516353345479 [Eh]
	 SCS Correlation Energy    =      -1.8927875783451418 [Eh]
	 SCS Total Energy          =    -748.7822837076474798 [Eh]
	-----------------------------------------------------------

  Dipole Moment: [D]
     X:    -0.0356      Y:     2.9086      Z:    -2.2677     Total:     3.6884

*** Psi4 exiting successfully. Buy a developer a beer!
