                               Psi4 1.4a3.dev225

  ==> Input File <==

--------------------------------------------------------------------------
#psi4
#
memory 32 gb

molecule  {
0 1
  S       -0.2613620    -0.5930190    -0.1424790
  O       -0.2870700    -1.2499240     1.2262220
  C        2.3977240     0.0716980     0.1844310
  C        1.0261530     0.6905850    -0.0782140
  C       -1.6225708     0.4537180    -0.2125255
  C        2.8653030    -0.7972080    -0.9817560
  C        3.4104270     1.1761770     0.4821660
  C       -2.9771600    -0.2389800    -0.1306750
  C       -4.1937400     0.6821530    -0.1120660
  H        2.2947170    -0.5588030     1.0765090
  H        0.7552030     1.3745990     0.7353710
  H        1.0111040     1.2381230    -1.0301620
  H       -1.5863530     1.2355690     0.6350930
  H       -1.6018540     1.1165020    -1.1483330
  H        2.9531350    -0.1978260    -1.8953020
  H        3.8477320    -1.2283710    -0.7670690
  H        2.1762820    -1.6227130    -1.1817050
  H        3.5229730     1.8417250    -0.3809710
  H        4.3924350     0.7485930     0.7071400
  H        3.0997810     1.7802300     1.3402560
  H       -3.0432920    -0.9285740    -0.9804800
  H       -2.9504610    -0.8515990     0.7760110
  H       -4.1584820     1.3575060     0.7479640
  H       -4.2413300     1.2926870    -1.0190020
  H       -5.1195520     0.1037900    -0.0468840
units angstrom
no_reorient  #important for SAPT in psi4, default
symmetry c1  #important for SAPT in psi4, default
}

set PROPERTIES_ORIGIN ["COM"]
properties('MP2/aug-cc-pvtz', properties = ['dipole'])
--------------------------------------------------------------------------

    Molecular point group: c1
  Charge       = 0
  Multiplicity = 1
  Basis Set: AUG-CC-PVTZ
    Blend: AUG-CC-PVTZ
  Basis Set: (AUG-CC-PVTZ AUX)
    Blend: AUG-CC-PVTZ-JKFIT

    Orbital Energies [Eh]
    ---------------------

    Doubly Occupied:

       1A    -92.058031     2A    -20.496422     3A    -11.265604
       4A    -11.260959     5A    -11.238560     6A    -11.234677
       7A    -11.226033     8A    -11.221653     9A    -11.218135
      10A     -9.046705    11A     -6.728614    12A     -6.728171
      13A     -6.726869    14A     -1.320054    15A     -1.112352
      16A     -1.087799    17A     -1.014239    18A     -0.944879
      19A     -0.937666    20A     -0.852166    21A     -0.790216
      22A     -0.774308    23A     -0.661915    24A     -0.651147
      25A     -0.633794    26A     -0.612903    27A     -0.594194
      28A     -0.587284    29A     -0.564940    30A     -0.551028
      31A     -0.545602    32A     -0.535080    33A     -0.519334
      34A     -0.505375    35A     -0.494606    36A     -0.480965
      37A     -0.476120    38A     -0.474546    39A     -0.472112
      40A     -0.412204    41A     -0.360277

  @DF-RHF Final Energy:  -746.88149605336434

   => Energetics <=

    Nuclear Repulsion Energy =            577.0685354189370173
    One-Electron Energy =               -2169.0649792784497549
    Two-Electron Energy =                 845.1149478061483933
    Total Energy =                       -746.8814960533643443
  Basis Set: (AUG-CC-PVTZ AUX)
    Blend: AUG-CC-PVTZ-RI
    Molecular point group: c1

    Geometry (in Angstrom), charge = 0, multiplicity = 1:

       Center              X                  Y                   Z               Mass
    ------------   -----------------  -----------------  -----------------  -----------------
         S           -0.256556260528    -0.540748312658    -0.158845173392    31.972071174400
         O           -0.282264260528    -1.197653312658     1.209855826608    15.994914619570
         C            2.402529739472     0.123968687342     0.168064826608    12.000000000000
         C            1.030958739472     0.742855687342    -0.094580173392    12.000000000000
         C           -1.617765060528     0.505988687342    -0.228891673392    12.000000000000
         C            2.870108739472    -0.744937312658    -0.998122173392    12.000000000000
         C            3.415232739472     1.228447687342     0.465799826608    12.000000000000
         C           -2.972354260528    -0.186709312658    -0.147041173392    12.000000000000
         C           -4.188934260528     0.734423687342    -0.128432173392    12.000000000000
         H            2.299522739472    -0.506532312658     1.060142826608     1.007825032230
         H            0.760008739472     1.426869687342     0.719004826608     1.007825032230
         H            1.015909739472     1.290393687342    -1.046528173392     1.007825032230
         H           -1.581547260528     1.287839687342     0.618726826608     1.007825032230
         H           -1.597048260528     1.168772687342    -1.164699173392     1.007825032230
         H            2.957940739472    -0.145555312658    -1.911668173392     1.007825032230
         H            3.852537739472    -1.176100312658    -0.783435173392     1.007825032230
         H            2.181087739472    -1.570442312658    -1.198071173392     1.007825032230
         H            3.527778739472     1.893995687342    -0.397337173392     1.007825032230
         H            4.397240739472     0.800863687342     0.690773826608     1.007825032230
         H            3.104586739472     1.832500687342     1.323889826608     1.007825032230
         H           -3.038486260528    -0.876303312658    -0.996846173392     1.007825032230
         H           -2.945655260528    -0.799328312658     0.759644826608     1.007825032230
         H           -4.153676260528     1.409776687342     0.731597826608     1.007825032230
         H           -4.236524260528     1.344957687342    -1.035368173392     1.007825032230
         H           -5.114746260528     0.156060687342    -0.063250173392     1.007825032230

  Basis Set: AUG-CC-PVTZ
    Blend: AUG-CC-PVTZ
  Basis Set: (AUG-CC-PVTZ AUX)
    Blend: AUG-CC-PVTZ-JKFIT
	 Reference Energy          =    -746.8814960533643443 [Eh]
	 Singles Energy            =      -0.0000000000000000 [Eh]
	 Same-Spin Energy          =      -0.4278843018774539 [Eh]
	 Opposite-Spin Energy      =      -1.4585164185372297 [Eh]
	 Correlation Energy        =      -1.8864007204146835 [Eh]
	 Total Energy              =    -748.7678967737790572 [Eh]

	 ================> DF-SCS-MP2 Energies <==================
	-----------------------------------------------------------
	 SCS Same-Spin Scale       =       0.3333333333333333 [-]
	 SCS Opposite-Spin Scale   =       1.2000000000000000 [-]
	 SCS Same-Spin Energy      =      -0.1426281006258180 [Eh]
	 SCS Opposite-Spin Energy  =      -1.7502197022446755 [Eh]
	 SCS Correlation Energy    =      -1.8928478028704934 [Eh]
	 SCS Total Energy          =    -748.7743438562348501 [Eh]
	-----------------------------------------------------------

  Dipole Moment: [D]
     X:    -0.1166      Y:     2.9471      Z:    -2.3091     Total:     3.7458

*** Psi4 exiting successfully. Buy a developer a beer!
