                               Psi4 1.4a3.dev225

  ==> Input File <==

--------------------------------------------------------------------------
#psi4
#
memory 32 gb

molecule  {
0 1
  S       -0.2613620    -0.5930190    -0.1424790
  O       -0.2870700    -1.2499240     1.2262220
  C        2.3977240     0.0716980     0.1844310
  C        1.0261530     0.6905850    -0.0782140
  C       -1.6743200     0.5466190    -0.2136450
  C        2.8653030    -0.7972080    -0.9817560
  C        3.4104270     1.1761770     0.4821660
  C       -2.9600582    -0.2286678    -0.1317641
  C       -4.1937400     0.6821530    -0.1120660
  H        2.2947170    -0.5588030     1.0765090
  H        0.7552030     1.3745990     0.7353710
  H        1.0111040     1.2381230    -1.0301620
  H       -1.5863530     1.2355690     0.6350930
  H       -1.6018540     1.1165020    -1.1483330
  H        2.9531350    -0.1978260    -1.8953020
  H        3.8477320    -1.2283710    -0.7670690
  H        2.1762820    -1.6227130    -1.1817050
  H        3.5229730     1.8417250    -0.3809710
  H        4.3924350     0.7485930     0.7071400
  H        3.0997810     1.7802300     1.3402560
  H       -3.0432920    -0.9285740    -0.9804800
  H       -2.9504610    -0.8515990     0.7760110
  H       -4.1584820     1.3575060     0.7479640
  H       -4.2413300     1.2926870    -1.0190020
  H       -5.1195520     0.1037900    -0.0468840
units angstrom
no_reorient  #important for SAPT in psi4, default
symmetry c1  #important for SAPT in psi4, default
}

set PROPERTIES_ORIGIN ["COM"]
properties('MP2/aug-cc-pvtz', properties = ['dipole'])
--------------------------------------------------------------------------

    Molecular point group: c1
  Charge       = 0
  Multiplicity = 1
  Basis Set: AUG-CC-PVTZ
    Blend: AUG-CC-PVTZ
  Basis Set: (AUG-CC-PVTZ AUX)
    Blend: AUG-CC-PVTZ-JKFIT

    Orbital Energies [Eh]
    ---------------------

    Doubly Occupied:

       1A    -92.057798     2A    -20.497679     3A    -11.261294
       4A    -11.259994     5A    -11.237864     6A    -11.233590
       7A    -11.224050     8A    -11.221145     9A    -11.217893
      10A     -9.045279    11A     -6.726876    12A     -6.726681
      13A     -6.725394    14A     -1.317360    15A     -1.110099
      16A     -1.086987    17A     -1.007015    18A     -0.942443
      19A     -0.937315    20A     -0.845972    21A     -0.799439
      22A     -0.773119    23A     -0.664902    24A     -0.649491
      25A     -0.630393    26A     -0.611462    27A     -0.593241
      28A     -0.588246    29A     -0.566213    30A     -0.554328
      31A     -0.545290    32A     -0.533474    33A     -0.515356
      34A     -0.506688    35A     -0.497758    36A     -0.483925
      37A     -0.479948    38A     -0.476424    39A     -0.472657
      40A     -0.403788    41A     -0.359559

  @DF-RHF Final Energy:  -746.89107111945782

   => Energetics <=

    Nuclear Repulsion Energy =            575.5522716730548609
    One-Electron Energy =               -2166.1098299187829070
    Two-Electron Energy =                 843.6664871262703400
    Total Energy =                       -746.8910711194578198
  Basis Set: (AUG-CC-PVTZ AUX)
    Blend: AUG-CC-PVTZ-RI
    Molecular point group: c1

    Geometry (in Angstrom), charge = 0, multiplicity = 1:

       Center              X                  Y                   Z               Mass
    ------------   -----------------  -----------------  -----------------  -----------------
         S           -0.253748760617    -0.549111741080    -0.158666209189    31.972071174400
         O           -0.279456760617    -1.206016741080     1.210034790811    15.994914619570
         C            2.405337239383     0.115605258920     0.168243790811    12.000000000000
         C            1.033766239383     0.734492258920    -0.094401209189    12.000000000000
         C           -1.666706760617     0.590526258920    -0.229832209189    12.000000000000
         C            2.872916239383    -0.753300741080    -0.997943209189    12.000000000000
         C            3.418040239383     1.220084258920     0.465978790811    12.000000000000
         C           -2.952444960617    -0.184760541080    -0.147951309189    12.000000000000
         C           -4.186126760617     0.726060258920    -0.128253209189    12.000000000000
         H            2.302330239383    -0.514895741080     1.060321790811     1.007825032230
         H            0.762816239383     1.418506258920     0.719183790811     1.007825032230
         H            1.018717239383     1.282030258920    -1.046349209189     1.007825032230
         H           -1.578739760617     1.279476258920     0.618905790811     1.007825032230
         H           -1.594240760617     1.160409258920    -1.164520209189     1.007825032230
         H            2.960748239383    -0.153918741080    -1.911489209189     1.007825032230
         H            3.855345239383    -1.184463741080    -0.783256209189     1.007825032230
         H            2.183895239383    -1.578805741080    -1.197892209189     1.007825032230
         H            3.530586239383     1.885632258920    -0.397158209189     1.007825032230
         H            4.400048239383     0.792500258920     0.690952790811     1.007825032230
         H            3.107394239383     1.824137258920     1.324068790811     1.007825032230
         H           -3.035678760617    -0.884666741080    -0.996667209189     1.007825032230
         H           -2.942847760617    -0.807691741080     0.759823790811     1.007825032230
         H           -4.150868760617     1.401413258920     0.731776790811     1.007825032230
         H           -4.233716760617     1.336594258920    -1.035189209189     1.007825032230
         H           -5.111938760617     0.147697258920    -0.063071209189     1.007825032230

  Basis Set: AUG-CC-PVTZ
    Blend: AUG-CC-PVTZ
  Basis Set: (AUG-CC-PVTZ AUX)
    Blend: AUG-CC-PVTZ-JKFIT
	 Reference Energy          =    -746.8910711194578198 [Eh]
	 Singles Energy            =      -0.0000000000000000 [Eh]
	 Same-Spin Energy          =      -0.4273810723846279 [Eh]
	 Opposite-Spin Energy      =      -1.4583753563217410 [Eh]
	 Correlation Energy        =      -1.8857564287063688 [Eh]
	 Total Energy              =    -748.7768275481641922 [Eh]

	 ================> DF-SCS-MP2 Energies <==================
	-----------------------------------------------------------
	 SCS Same-Spin Scale       =       0.3333333333333333 [-]
	 SCS Opposite-Spin Scale   =       1.2000000000000000 [-]
	 SCS Same-Spin Energy      =      -0.1424603574615426 [Eh]
	 SCS Opposite-Spin Energy  =      -1.7500504275860891 [Eh]
	 SCS Correlation Energy    =      -1.8925107850476317 [Eh]
	 SCS Total Energy          =    -748.7835819045054677 [Eh]
	-----------------------------------------------------------

  Dipole Moment: [D]
     X:    -0.0359      Y:     2.8862      Z:    -2.2743     Total:     3.6748

*** Psi4 exiting successfully. Buy a developer a beer!
