                               Psi4 1.4a3.dev225

  ==> Input File <==

--------------------------------------------------------------------------
#psi4
#
memory 32 gb

molecule  {
0 1
  S       -0.2720387    -0.6074474    -0.1686157
  O       -0.2870700    -1.2499240     1.2262220
  C        2.3977240     0.0716980     0.1844310
  C        1.0261530     0.6905850    -0.0782140
  C       -1.6743200     0.5466190    -0.2136450
  C        2.8653030    -0.7972080    -0.9817560
  C        3.4104270     1.1761770     0.4821660
  C       -2.9771600    -0.2389800    -0.1306750
  C       -4.1937400     0.6821530    -0.1120660
  H        2.2947170    -0.5588030     1.0765090
  H        0.7552030     1.3745990     0.7353710
  H        1.0111040     1.2381230    -1.0301620
  H       -1.5863530     1.2355690     0.6350930
  H       -1.6018540     1.1165020    -1.1483330
  H        2.9531350    -0.1978260    -1.8953020
  H        3.8477320    -1.2283710    -0.7670690
  H        2.1762820    -1.6227130    -1.1817050
  H        3.5229730     1.8417250    -0.3809710
  H        4.3924350     0.7485930     0.7071400
  H        3.0997810     1.7802300     1.3402560
  H       -3.0432920    -0.9285740    -0.9804800
  H       -2.9504610    -0.8515990     0.7760110
  H       -4.1584820     1.3575060     0.7479640
  H       -4.2413300     1.2926870    -1.0190020
  H       -5.1195520     0.1037900    -0.0468840
units angstrom
no_reorient  #important for SAPT in psi4, default
symmetry c1  #important for SAPT in psi4, default
}

set PROPERTIES_ORIGIN ["COM"]
properties('MP2/aug-cc-pvtz', properties = ['dipole'])
--------------------------------------------------------------------------

    Molecular point group: c1
  Charge       = 0
  Multiplicity = 1
  Basis Set: AUG-CC-PVTZ
    Blend: AUG-CC-PVTZ
  Basis Set: (AUG-CC-PVTZ AUX)
    Blend: AUG-CC-PVTZ-JKFIT

    Orbital Energies [Eh]
    ---------------------

    Doubly Occupied:

       1A    -92.059410     2A    -20.496333     3A    -11.262603
       4A    -11.261337     5A    -11.237294     6A    -11.233545
       7A    -11.223829     8A    -11.220966     9A    -11.217873
      10A     -9.046570    11A     -6.728113    12A     -6.727861
      13A     -6.726604    14A     -1.307150    15A     -1.108127
      16A     -1.085393    17A     -1.006147    18A     -0.941174
      19A     -0.937187    20A     -0.846434    21A     -0.801117
      22A     -0.773086    23A     -0.663772    24A     -0.648088
      25A     -0.628764    26A     -0.610493    27A     -0.592110
      28A     -0.587161    29A     -0.565863    30A     -0.552398
      31A     -0.544787    32A     -0.532418    33A     -0.512929
      34A     -0.503947    35A     -0.499521    36A     -0.485942
      37A     -0.479410    38A     -0.474741    39A     -0.471640
      40A     -0.400270    41A     -0.362427

  @DF-RHF Final Energy:  -746.88964666308595

   => Energetics <=

    Nuclear Repulsion Energy =            574.2960132859628857
    One-Electron Energy =               -2163.6416457251493739
    Two-Electron Energy =                 842.4559857761004196
    Total Energy =                       -746.8896466630859550
  Basis Set: (AUG-CC-PVTZ AUX)
    Blend: AUG-CC-PVTZ-RI
    Molecular point group: c1

    Geometry (in Angstrom), charge = 0, multiplicity = 1:

       Center              X                  Y                   Z               Mass
    ------------   -----------------  -----------------  -----------------  -----------------
         S           -0.260734666214    -0.559589546208    -0.179248428206    31.972071174400
         O           -0.275765966214    -1.202066146208     1.215589271794    15.994914619570
         C            2.409028033786     0.119555853792     0.173798271794    12.000000000000
         C            1.037457033786     0.738442853792    -0.088846728206    12.000000000000
         C           -1.663015966214     0.594476853792    -0.224277728206    12.000000000000
         C            2.876607033786    -0.749350146208    -0.992388728206    12.000000000000
         C            3.421731033786     1.224034853792     0.471533271794    12.000000000000
         C           -2.965855966214    -0.191122146208    -0.141307728206    12.000000000000
         C           -4.182435966214     0.730010853792    -0.122698728206    12.000000000000
         H            2.306021033786    -0.510945146208     1.065876271794     1.007825032230
         H            0.766507033786     1.422456853792     0.724738271794     1.007825032230
         H            1.022408033786     1.285980853792    -1.040794728206     1.007825032230
         H           -1.575048966214     1.283426853792     0.624460271794     1.007825032230
         H           -1.590549966214     1.164359853792    -1.158965728206     1.007825032230
         H            2.964439033786    -0.149968146208    -1.905934728206     1.007825032230
         H            3.859036033786    -1.180513146208    -0.777701728206     1.007825032230
         H            2.187586033786    -1.574855146208    -1.192337728206     1.007825032230
         H            3.534277033786     1.889582853792    -0.391603728206     1.007825032230
         H            4.403739033786     0.796450853792     0.696507271794     1.007825032230
         H            3.111085033786     1.828087853792     1.329623271794     1.007825032230
         H           -3.031987966214    -0.880716146208    -0.991112728206     1.007825032230
         H           -2.939156966214    -0.803741146208     0.765378271794     1.007825032230
         H           -4.147177966214     1.405363853792     0.737331271794     1.007825032230
         H           -4.230025966214     1.340544853792    -1.029634728206     1.007825032230
         H           -5.108247966214     0.151647853792    -0.057516728206     1.007825032230

  Basis Set: AUG-CC-PVTZ
    Blend: AUG-CC-PVTZ
  Basis Set: (AUG-CC-PVTZ AUX)
    Blend: AUG-CC-PVTZ-JKFIT
	 Reference Energy          =    -746.8896466630859550 [Eh]
	 Singles Energy            =      -0.0000000000000000 [Eh]
	 Same-Spin Energy          =      -0.4274445396774230 [Eh]
	 Opposite-Spin Energy      =      -1.4591649956391639 [Eh]
	 Correlation Energy        =      -1.8866095353165868 [Eh]
	 Total Energy              =    -748.7762561984025069 [Eh]

	 ================> DF-SCS-MP2 Energies <==================
	-----------------------------------------------------------
	 SCS Same-Spin Scale       =       0.3333333333333333 [-]
	 SCS Opposite-Spin Scale   =       1.2000000000000000 [-]
	 SCS Same-Spin Energy      =      -0.1424815132258077 [Eh]
	 SCS Opposite-Spin Energy  =      -1.7509979947669967 [Eh]
	 SCS Correlation Energy    =      -1.8934795079928044 [Eh]
	 SCS Total Energy          =    -748.7831261710787203 [Eh]
	-----------------------------------------------------------

  Dipole Moment: [D]
     X:    -0.0843      Y:     2.8960      Z:    -2.3484     Total:     3.7294

*** Psi4 exiting successfully. Buy a developer a beer!
