                               Psi4 1.4a3.dev225

  ==> Input File <==

--------------------------------------------------------------------------
#psi4
#
memory 32 gb

molecule  {
0 1
  S       -0.2613620    -0.5930190    -0.1424790
  O       -0.2870700    -1.2499240     1.2262220
  C        2.3977240     0.0716980     0.1844310
  C        1.0261530     0.6905850    -0.0782140
  C       -1.6743200     0.5466190    -0.2136450
  C        2.8653030    -0.7972080    -0.9817560
  C        3.4104270     1.1761770     0.4821660
  C       -2.9771600    -0.2389800    -0.1306750
  C       -4.1937400     0.6821530    -0.1120660
  H        2.2947170    -0.5588030     1.0765090
  H        0.7552030     1.3745990     0.7353710
  H        1.0111040     1.2381230    -1.0301620
  H       -1.5863530     1.2355690     0.6350930
  H       -1.6051566     1.0905301    -1.1057354
  H        2.9531350    -0.1978260    -1.8953020
  H        3.8477320    -1.2283710    -0.7670690
  H        2.1762820    -1.6227130    -1.1817050
  H        3.5229730     1.8417250    -0.3809710
  H        4.3924350     0.7485930     0.7071400
  H        3.0997810     1.7802300     1.3402560
  H       -3.0432920    -0.9285740    -0.9804800
  H       -2.9504610    -0.8515990     0.7760110
  H       -4.1584820     1.3575060     0.7479640
  H       -4.2413300     1.2926870    -1.0190020
  H       -5.1195520     0.1037900    -0.0468840
units angstrom
no_reorient  #important for SAPT in psi4, default
symmetry c1  #important for SAPT in psi4, default
}

set PROPERTIES_ORIGIN ["COM"]
properties('MP2/aug-cc-pvtz', properties = ['dipole'])
--------------------------------------------------------------------------

    Molecular point group: c1
  Charge       = 0
  Multiplicity = 1
  Basis Set: AUG-CC-PVTZ
    Blend: AUG-CC-PVTZ
  Basis Set: (AUG-CC-PVTZ AUX)
    Blend: AUG-CC-PVTZ-JKFIT

    Orbital Energies [Eh]
    ---------------------

    Doubly Occupied:

       1A    -92.057277     2A    -20.497102     3A    -11.259871
       4A    -11.255852     5A    -11.237763     6A    -11.233052
       7A    -11.223716     8A    -11.221064     9A    -11.217800
      10A     -9.044767    11A     -6.726370    12A     -6.726185
      13A     -6.724897    14A     -1.316824    15A     -1.109993
      16A     -1.086502    17A     -1.007916    18A     -0.943544
      19A     -0.937230    20A     -0.845491    21A     -0.803782
      22A     -0.773029    23A     -0.667252    24A     -0.650809
      25A     -0.629533    26A     -0.611179    27A     -0.593343
      28A     -0.587965    29A     -0.569392    30A     -0.554104
      31A     -0.545280    32A     -0.533422    33A     -0.513910
      34A     -0.506520    35A     -0.499351    36A     -0.487417
      37A     -0.480029    38A     -0.475587    39A     -0.472480
      40A     -0.403320    41A     -0.359120

  @DF-RHF Final Energy:  -746.89085158255466

   => Energetics <=

    Nuclear Repulsion Energy =            575.5385113779587982
    One-Electron Energy =               -2166.0786450986083764
    Two-Electron Energy =                 843.6492821380948044
    Total Energy =                       -746.8908515825546601
  Basis Set: (AUG-CC-PVTZ AUX)
    Blend: AUG-CC-PVTZ-RI
    Molecular point group: c1

    Geometry (in Angstrom), charge = 0, multiplicity = 1:

       Center              X                  Y                   Z               Mass
    ------------   -----------------  -----------------  -----------------  -----------------
         S           -0.252340515873    -0.548099388337    -0.159044352892    31.972071174400
         O           -0.278048515873    -1.205004388337     1.209656647108    15.994914619570
         C            2.406745484127     0.116617611663     0.167865647108    12.000000000000
         C            1.035174484127     0.735504611663    -0.094779352892    12.000000000000
         C           -1.665298515873     0.591538611663    -0.230210352892    12.000000000000
         C            2.874324484127    -0.752288388337    -0.998321352892    12.000000000000
         C            3.419448484127     1.221096611663     0.465600647108    12.000000000000
         C           -2.968138515873    -0.194060388337    -0.147240352892    12.000000000000
         C           -4.184718515873     0.727072611663    -0.128631352892    12.000000000000
         H            2.303738484127    -0.513883388337     1.059943647108     1.007825032230
         H            0.764224484127     1.419518611663     0.718805647108     1.007825032230
         H            1.020125484127     1.283042611663    -1.046727352892     1.007825032230
         H           -1.577331515873     1.280488611663     0.618527647108     1.007825032230
         H           -1.596135115873     1.135449711663    -1.122300752892     1.007825032230
         H            2.962156484127    -0.152906388337    -1.911867352892     1.007825032230
         H            3.856753484127    -1.183451388337    -0.783634352892     1.007825032230
         H            2.185303484127    -1.577793388337    -1.198270352892     1.007825032230
         H            3.531994484127     1.886644611663    -0.397536352892     1.007825032230
         H            4.401456484127     0.793512611663     0.690574647108     1.007825032230
         H            3.108802484127     1.825149611663     1.323690647108     1.007825032230
         H           -3.034270515873    -0.883654388337    -0.997045352892     1.007825032230
         H           -2.941439515873    -0.806679388337     0.759445647108     1.007825032230
         H           -4.149460515873     1.402425611663     0.731398647108     1.007825032230
         H           -4.232308515873     1.337606611663    -1.035567352892     1.007825032230
         H           -5.110530515873     0.148709611663    -0.063449352892     1.007825032230

  Basis Set: AUG-CC-PVTZ
    Blend: AUG-CC-PVTZ
  Basis Set: (AUG-CC-PVTZ AUX)
    Blend: AUG-CC-PVTZ-JKFIT
	 Reference Energy          =    -746.8908515825546601 [Eh]
	 Singles Energy            =      -0.0000000000000000 [Eh]
	 Same-Spin Energy          =      -0.4271911623345088 [Eh]
	 Opposite-Spin Energy      =      -1.4579073157321729 [Eh]
	 Correlation Energy        =      -1.8850984780666817 [Eh]
	 Total Energy              =    -748.7759500606213123 [Eh]

	 ================> DF-SCS-MP2 Energies <==================
	-----------------------------------------------------------
	 SCS Same-Spin Scale       =       0.3333333333333333 [-]
	 SCS Opposite-Spin Scale   =       1.2000000000000000 [-]
	 SCS Same-Spin Energy      =      -0.1423970541115029 [Eh]
	 SCS Opposite-Spin Energy  =      -1.7494887788786075 [Eh]
	 SCS Correlation Energy    =      -1.8918858329901105 [Eh]
	 SCS Total Energy          =    -748.7827374155447160 [Eh]
	-----------------------------------------------------------

  Dipole Moment: [D]
     X:    -0.0475      Y:     2.9005      Z:    -2.2917     Total:     3.6969

*** Psi4 exiting successfully. Buy a developer a beer!
