                               Psi4 1.4a3.dev225

  ==> Input File <==

--------------------------------------------------------------------------
#psi4
#
memory 32 gb

molecule  {
0 1
  S       -0.2613620    -0.5930190    -0.1424790
  O       -0.2870700    -1.2499240     1.2262220
  C        2.3977240     0.0716980     0.1844310
  C        1.0261530     0.6905850    -0.0782140
  C       -1.6743200     0.5466190    -0.2136450
  C        2.8653030    -0.7972080    -0.9817560
  C        3.4104270     1.1761770     0.4821660
  C       -2.9771600    -0.2389800    -0.1306750
  C       -4.1937400     0.6821530    -0.1120660
  H        2.2947170    -0.5588030     1.0765090
  H        0.7552030     1.3745990     0.7353710
  H        1.0111040     1.2381230    -1.0301620
  H       -1.5863530     1.2355690     0.6350930
  H       -1.6150643     1.0126144    -0.9779427
  H        2.9531350    -0.1978260    -1.8953020
  H        3.8477320    -1.2283710    -0.7670690
  H        2.1762820    -1.6227130    -1.1817050
  H        3.5229730     1.8417250    -0.3809710
  H        4.3924350     0.7485930     0.7071400
  H        3.0997810     1.7802300     1.3402560
  H       -3.0432920    -0.9285740    -0.9804800
  H       -2.9504610    -0.8515990     0.7760110
  H       -4.1584820     1.3575060     0.7479640
  H       -4.2413300     1.2926870    -1.0190020
  H       -5.1195520     0.1037900    -0.0468840
units angstrom
no_reorient  #important for SAPT in psi4, default
symmetry c1  #important for SAPT in psi4, default
}

set PROPERTIES_ORIGIN ["COM"]
properties('MP2/aug-cc-pvtz', properties = ['dipole'])
--------------------------------------------------------------------------

    Molecular point group: c1
  Charge       = 0
  Multiplicity = 1
  Basis Set: AUG-CC-PVTZ
    Blend: AUG-CC-PVTZ
  Basis Set: (AUG-CC-PVTZ AUX)
    Blend: AUG-CC-PVTZ-JKFIT

    Orbital Energies [Eh]
    ---------------------

    Doubly Occupied:

       1A    -92.056684     2A    -20.496384     3A    -11.260051
       4A    -11.237877     5A    -11.237857     6A    -11.232102
       7A    -11.223656     8A    -11.221128     9A    -11.217855
      10A     -9.044249    11A     -6.725864    12A     -6.725686
      13A     -6.724391    14A     -1.316305    15A     -1.112351
      16A     -1.092738    17A     -1.009202    18A     -0.950421
      19A     -0.937300    20A     -0.845177    21A     -0.817979
      22A     -0.773303    23A     -0.678520    24A     -0.653262
      25A     -0.629259    26A     -0.611475    27A     -0.594969
      28A     -0.588306    29A     -0.576220    30A     -0.553832
      31A     -0.545516    32A     -0.533941    33A     -0.513608
      34A     -0.506965    35A     -0.499329    36A     -0.490038
      37A     -0.480064    38A     -0.475439    39A     -0.472435
      40A     -0.403106    41A     -0.358685

  @DF-RHF Final Energy:  -746.85889192289039

   => Energetics <=

    Nuclear Repulsion Energy =            576.4352801678586502
    One-Electron Energy =               -2167.7412964269369695
    Two-Electron Energy =                 844.4471243361878123
    Total Energy =                       -746.8588919228903933
  Basis Set: (AUG-CC-PVTZ AUX)
    Blend: AUG-CC-PVTZ-RI
    Molecular point group: c1

    Geometry (in Angstrom), charge = 0, multiplicity = 1:

       Center              X                  Y                   Z               Mass
    ------------   -----------------  -----------------  -----------------  -----------------
         S           -0.252273090114    -0.547569141639    -0.159914032010    31.972071174400
         O           -0.277981090114    -1.204474141639     1.208786967990    15.994914619570
         C            2.406812909886     0.117147858361     0.166995967990    12.000000000000
         C            1.035241909886     0.736034858361    -0.095649032010    12.000000000000
         C           -1.665231090114     0.592068858361    -0.231080032010    12.000000000000
         C            2.874391909886    -0.751758141639    -0.999191032010    12.000000000000
         C            3.419515909886     1.221626858361     0.464730967990    12.000000000000
         C           -2.968071090114    -0.193530141639    -0.148110032010    12.000000000000
         C           -4.184651090114     0.727602858361    -0.129501032010    12.000000000000
         H            2.303805909886    -0.513353141639     1.059073967990     1.007825032230
         H            0.764291909886     1.420048858361     0.717935967990     1.007825032230
         H            1.020192909886     1.283572858361    -1.047597032010     1.007825032230
         H           -1.577264090114     1.281018858361     0.617657967990     1.007825032230
         H           -1.605975390114     1.058064258361    -0.995377732010     1.007825032230
         H            2.962223909886    -0.152376141639    -1.912737032010     1.007825032230
         H            3.856820909886    -1.182921141639    -0.784504032010     1.007825032230
         H            2.185370909886    -1.577263141639    -1.199140032010     1.007825032230
         H            3.532061909886     1.887174858361    -0.398406032010     1.007825032230
         H            4.401523909886     0.794042858361     0.689704967990     1.007825032230
         H            3.108869909886     1.825679858361     1.322820967990     1.007825032230
         H           -3.034203090114    -0.883124141639    -0.997915032010     1.007825032230
         H           -2.941372090114    -0.806149141639     0.758575967990     1.007825032230
         H           -4.149393090114     1.402955858361     0.730528967990     1.007825032230
         H           -4.232241090114     1.338136858361    -1.036437032010     1.007825032230
         H           -5.110463090114     0.149239858361    -0.064319032010     1.007825032230

  Basis Set: AUG-CC-PVTZ
    Blend: AUG-CC-PVTZ
  Basis Set: (AUG-CC-PVTZ AUX)
    Blend: AUG-CC-PVTZ-JKFIT
	 Reference Energy          =    -746.8588919228903933 [Eh]
	 Singles Energy            =      -0.0000000000000000 [Eh]
	 Same-Spin Energy          =      -0.4270758582159997 [Eh]
	 Opposite-Spin Energy      =      -1.4574847433328921 [Eh]
	 Correlation Energy        =      -1.8845606015488918 [Eh]
	 Total Energy              =    -748.7434525244392489 [Eh]

	 ================> DF-SCS-MP2 Energies <==================
	-----------------------------------------------------------
	 SCS Same-Spin Scale       =       0.3333333333333333 [-]
	 SCS Opposite-Spin Scale   =       1.2000000000000000 [-]
	 SCS Same-Spin Energy      =      -0.1423586194053332 [Eh]
	 SCS Opposite-Spin Energy  =      -1.7489816919994705 [Eh]
	 SCS Correlation Energy    =      -1.8913403114048037 [Eh]
	 SCS Total Energy          =    -748.7502322342952539 [Eh]
	-----------------------------------------------------------

  Dipole Moment: [D]
     X:    -0.0284      Y:     2.9282      Z:    -2.3159     Total:     3.7334

*** Psi4 exiting successfully. Buy a developer a beer!
