                               Psi4 1.4a3.dev225

  ==> Input File <==

--------------------------------------------------------------------------
#psi4
#
memory 32 gb

molecule  {
0 1
  S       -0.2613620    -0.5930190    -0.1424790
  O       -0.2870700    -1.2499240     1.2262220
  C        2.3977240     0.0716980     0.1844310
  C        1.0261530     0.6905850    -0.0782140
  C       -1.6743200     0.5466190    -0.2136450
  C        2.8653030    -0.7972080    -0.9817560
  C        3.3772839     1.1400303     0.4724219
  C       -2.9771600    -0.2389800    -0.1306750
  C       -4.1937400     0.6821530    -0.1120660
  H        2.2947170    -0.5588030     1.0765090
  H        0.7552030     1.3745990     0.7353710
  H        1.0111040     1.2381230    -1.0301620
  H       -1.5863530     1.2355690     0.6350930
  H       -1.6018540     1.1165020    -1.1483330
  H        2.9531350    -0.1978260    -1.8953020
  H        3.8477320    -1.2283710    -0.7670690
  H        2.1762820    -1.6227130    -1.1817050
  H        3.5229730     1.8417250    -0.3809710
  H        4.3924350     0.7485930     0.7071400
  H        3.0997810     1.7802300     1.3402560
  H       -3.0432920    -0.9285740    -0.9804800
  H       -2.9504610    -0.8515990     0.7760110
  H       -4.1584820     1.3575060     0.7479640
  H       -4.2413300     1.2926870    -1.0190020
  H       -5.1195520     0.1037900    -0.0468840
units angstrom
no_reorient  #important for SAPT in psi4, default
symmetry c1  #important for SAPT in psi4, default
}

set PROPERTIES_ORIGIN ["COM"]
properties('MP2/aug-cc-pvtz', properties = ['dipole'])
--------------------------------------------------------------------------

    Molecular point group: c1
  Charge       = 0
  Multiplicity = 1
  Basis Set: AUG-CC-PVTZ
    Blend: AUG-CC-PVTZ
  Basis Set: (AUG-CC-PVTZ AUX)
    Blend: AUG-CC-PVTZ-JKFIT

    Orbital Energies [Eh]
    ---------------------

    Doubly Occupied:

       1A    -92.057746     2A    -20.497608     3A    -11.261859
       4A    -11.260098     5A    -11.235581     6A    -11.233561
       7A    -11.223812     8A    -11.223676     9A    -11.218044
      10A     -9.045203    11A     -6.726802    12A     -6.726613
      13A     -6.725329    14A     -1.317276    15A     -1.114658
      16A     -1.086334    17A     -1.009128    18A     -0.942263
      19A     -0.936825    20A     -0.845012    21A     -0.800076
      22A     -0.774059    23A     -0.665165    24A     -0.651047
      25A     -0.631334    26A     -0.611458    27A     -0.593603
      28A     -0.587817    29A     -0.567645    30A     -0.554037
      31A     -0.542129    32A     -0.528901    33A     -0.514949
      34A     -0.506062    35A     -0.499433    36A     -0.488879
      37A     -0.484309    38A     -0.473121    39A     -0.469397
      40A     -0.403777    41A     -0.359670

  @DF-RHF Final Energy:  -746.88858058585697

   => Energetics <=

    Nuclear Repulsion Energy =            576.1681745691503238
    One-Electron Energy =               -2167.3249128302063582
    Two-Electron Energy =                 844.2681576751990633
    Total Energy =                       -746.8885805858569711
  Basis Set: (AUG-CC-PVTZ AUX)
    Blend: AUG-CC-PVTZ-RI
    Molecular point group: c1

    Geometry (in Angstrom), charge = 0, multiplicity = 1:

       Center              X                  Y                   Z               Mass
    ------------   -----------------  -----------------  -----------------  -----------------
         S           -0.249677385786    -0.545347148133    -0.157964889271    31.972071174400
         O           -0.275385385786    -1.202252148133     1.210736110729    15.994914619570
         C            2.409408614214     0.119369851867     0.168945110729    12.000000000000
         C            1.037837614214     0.738256851867    -0.093699889271    12.000000000000
         C           -1.662635385786     0.594290851867    -0.229130889271    12.000000000000
         C            2.876987614214    -0.749536148133    -0.997241889271    12.000000000000
         C            3.388968514214     1.187702151867     0.456936010729    12.000000000000
         C           -2.965475385786    -0.191308148133    -0.146160889271    12.000000000000
         C           -4.182055385786     0.729824851867    -0.127551889271    12.000000000000
         H            2.306401614214    -0.511131148133     1.061023110729     1.007825032230
         H            0.766887614214     1.422270851867     0.719885110729     1.007825032230
         H            1.022788614214     1.285794851867    -1.045647889271     1.007825032230
         H           -1.574668385786     1.283240851867     0.619607110729     1.007825032230
         H           -1.590169385786     1.164173851867    -1.163818889271     1.007825032230
         H            2.964819614214    -0.150154148133    -1.910787889271     1.007825032230
         H            3.859416614214    -1.180699148133    -0.782554889271     1.007825032230
         H            2.187966614214    -1.575041148133    -1.197190889271     1.007825032230
         H            3.534657614214     1.889396851867    -0.396456889271     1.007825032230
         H            4.404119614214     0.796264851867     0.691654110729     1.007825032230
         H            3.111465614214     1.827901851867     1.324770110729     1.007825032230
         H           -3.031607385786    -0.880902148133    -0.995965889271     1.007825032230
         H           -2.938776385786    -0.803927148133     0.760525110729     1.007825032230
         H           -4.146797385786     1.405177851867     0.732478110729     1.007825032230
         H           -4.229645385786     1.340358851867    -1.034487889271     1.007825032230
         H           -5.107867385786     0.151461851867    -0.062369889271     1.007825032230

  Basis Set: AUG-CC-PVTZ
    Blend: AUG-CC-PVTZ
  Basis Set: (AUG-CC-PVTZ AUX)
    Blend: AUG-CC-PVTZ-JKFIT
	 Reference Energy          =    -746.8885805858569711 [Eh]
	 Singles Energy            =      -0.0000000000000000 [Eh]
	 Same-Spin Energy          =      -0.4277061228938440 [Eh]
	 Opposite-Spin Energy      =      -1.4587060043732756 [Eh]
	 Correlation Energy        =      -1.8864121272671195 [Eh]
	 Total Energy              =    -748.7749927131241066 [Eh]

	 ================> DF-SCS-MP2 Energies <==================
	-----------------------------------------------------------
	 SCS Same-Spin Scale       =       0.3333333333333333 [-]
	 SCS Opposite-Spin Scale   =       1.2000000000000000 [-]
	 SCS Same-Spin Energy      =      -0.1425687076312813 [Eh]
	 SCS Opposite-Spin Energy  =      -1.7504472052479307 [Eh]
	 SCS Correlation Energy    =      -1.8930159128792121 [Eh]
	 SCS Total Energy          =    -748.7815964987362349 [Eh]
	-----------------------------------------------------------

  Dipole Moment: [D]
     X:    -0.0618      Y:     2.8813      Z:    -2.2763     Total:     3.6725

*** Psi4 exiting successfully. Buy a developer a beer!
