                               Psi4 1.4a3.dev225

  ==> Input File <==

--------------------------------------------------------------------------
#psi4
#
memory 32 gb

molecule  {
0 1
  S       -0.2613620    -0.5930190    -0.1424790
  O       -0.2870700    -1.2499240     1.2262220
  C        2.3977240     0.0716980     0.1844310
  C        1.0261530     0.6905850    -0.0782140
  C       -1.6743200     0.5466190    -0.2136450
  C        2.8653030    -0.7972080    -0.9817560
  C        3.4104270     1.1761770     0.4821660
  C       -3.0199145    -0.2647605    -0.1279522
  C       -4.1937400     0.6821530    -0.1120660
  H        2.2947170    -0.5588030     1.0765090
  H        0.7552030     1.3745990     0.7353710
  H        1.0111040     1.2381230    -1.0301620
  H       -1.5863530     1.2355690     0.6350930
  H       -1.6018540     1.1165020    -1.1483330
  H        2.9531350    -0.1978260    -1.8953020
  H        3.8477320    -1.2283710    -0.7670690
  H        2.1762820    -1.6227130    -1.1817050
  H        3.5229730     1.8417250    -0.3809710
  H        4.3924350     0.7485930     0.7071400
  H        3.0997810     1.7802300     1.3402560
  H       -3.0432920    -0.9285740    -0.9804800
  H       -2.9504610    -0.8515990     0.7760110
  H       -4.1584820     1.3575060     0.7479640
  H       -4.2413300     1.2926870    -1.0190020
  H       -5.1195520     0.1037900    -0.0468840
units angstrom
no_reorient  #important for SAPT in psi4, default
symmetry c1  #important for SAPT in psi4, default
}

set PROPERTIES_ORIGIN ["COM"]
properties('MP2/aug-cc-pvtz', properties = ['dipole'])
--------------------------------------------------------------------------

    Molecular point group: c1
  Charge       = 0
  Multiplicity = 1
  Basis Set: AUG-CC-PVTZ
    Blend: AUG-CC-PVTZ
  Basis Set: (AUG-CC-PVTZ AUX)
    Blend: AUG-CC-PVTZ-JKFIT

    Orbital Energies [Eh]
    ---------------------

    Doubly Occupied:

       1A    -92.057015     2A    -20.496883     3A    -11.262500
       4A    -11.259358     5A    -11.237392     6A    -11.233685
       7A    -11.223247     8A    -11.220797     9A    -11.217522
      10A     -9.044416    11A     -6.726018    12A     -6.725843
      13A     -6.724560    14A     -1.316464    15A     -1.108696
      16A     -1.080949    17A     -1.009232    18A     -0.940604
      19A     -0.936940    20A     -0.845139    21A     -0.801717
      22A     -0.772455    23A     -0.663734    24A     -0.649258
      25A     -0.628112    26A     -0.610360    27A     -0.592729
      28A     -0.587192    29A     -0.567105    30A     -0.554227
      31A     -0.544880    32A     -0.532841    33A     -0.516550
      34A     -0.506524    35A     -0.498293    36A     -0.491590
      37A     -0.479786    38A     -0.473392    39A     -0.469357
      40A     -0.402333    41A     -0.358790

  @DF-RHF Final Energy:  -746.88986927610267

   => Energetics <=

    Nuclear Repulsion Energy =            574.5849175868140719
    One-Electron Energy =               -2164.2126002103218525
    Two-Electron Energy =                 842.7378133474051083
    Total Energy =                       -746.8898692761026723
  Basis Set: (AUG-CC-PVTZ AUX)
    Blend: AUG-CC-PVTZ-RI
    Molecular point group: c1

    Geometry (in Angstrom), charge = 0, multiplicity = 1:

       Center              X                  Y                   Z               Mass
    ------------   -----------------  -----------------  -----------------  -----------------
         S           -0.248898568193    -0.546187127629    -0.158975089767    31.972071174400
         O           -0.274606568193    -1.203092127629     1.209725910233    15.994914619570
         C            2.410187431807     0.118529872371     0.167934910233    12.000000000000
         C            1.038616431807     0.737416872371    -0.094710089767    12.000000000000
         C           -1.661856568193     0.593450872371    -0.230141089767    12.000000000000
         C            2.877766431807    -0.750376127629    -0.998252089767    12.000000000000
         C            3.422890431807     1.223008872371     0.465669910233    12.000000000000
         C           -3.007451068193    -0.217928627629    -0.144448289767    12.000000000000
         C           -4.181276568193     0.728984872371    -0.128562089767    12.000000000000
         H            2.307180431807    -0.511971127629     1.060012910233     1.007825032230
         H            0.767666431807     1.421430872371     0.718874910233     1.007825032230
         H            1.023567431807     1.284954872371    -1.046658089767     1.007825032230
         H           -1.573889568193     1.282400872371     0.618596910233     1.007825032230
         H           -1.589390568193     1.163333872371    -1.164829089767     1.007825032230
         H            2.965598431807    -0.150994127629    -1.911798089767     1.007825032230
         H            3.860195431807    -1.181539127629    -0.783565089767     1.007825032230
         H            2.188745431807    -1.575881127629    -1.198201089767     1.007825032230
         H            3.535436431807     1.888556872371    -0.397467089767     1.007825032230
         H            4.404898431807     0.795424872371     0.690643910233     1.007825032230
         H            3.112244431807     1.827061872371     1.323759910233     1.007825032230
         H           -3.030828568193    -0.881742127629    -0.996976089767     1.007825032230
         H           -2.937997568193    -0.804767127629     0.759514910233     1.007825032230
         H           -4.146018568193     1.404337872371     0.731467910233     1.007825032230
         H           -4.228866568193     1.339518872371    -1.035498089767     1.007825032230
         H           -5.107088568193     0.150621872371    -0.063380089767     1.007825032230

  Basis Set: AUG-CC-PVTZ
    Blend: AUG-CC-PVTZ
  Basis Set: (AUG-CC-PVTZ AUX)
    Blend: AUG-CC-PVTZ-JKFIT
	 Reference Energy          =    -746.8898692761026723 [Eh]
	 Singles Energy            =      -0.0000000000000000 [Eh]
	 Same-Spin Energy          =      -0.4271105564599395 [Eh]
	 Opposite-Spin Energy      =      -1.4581491604754024 [Eh]
	 Correlation Energy        =      -1.8852597169353420 [Eh]
	 Total Energy              =    -748.7751289930380381 [Eh]

	 ================> DF-SCS-MP2 Energies <==================
	-----------------------------------------------------------
	 SCS Same-Spin Scale       =       0.3333333333333333 [-]
	 SCS Opposite-Spin Scale   =       1.2000000000000000 [-]
	 SCS Same-Spin Energy      =      -0.1423701854866465 [Eh]
	 SCS Opposite-Spin Energy  =      -1.7497789925704830 [Eh]
	 SCS Correlation Energy    =      -1.8921491780571296 [Eh]
	 SCS Total Energy          =    -748.7820184541598110 [Eh]
	-----------------------------------------------------------

  Dipole Moment: [D]
     X:    -0.1004      Y:     2.8877      Z:    -2.2860     Total:     3.6844

*** Psi4 exiting successfully. Buy a developer a beer!
