                               Psi4 1.4a3.dev225

  ==> Input File <==

--------------------------------------------------------------------------
#psi4
#
memory 32 gb

molecule  {
0 1
  S       -0.2613620    -0.5930190    -0.1424790
  O       -0.2870700    -1.2499240     1.2262220
  C        2.3790052     0.0519724     0.2302912
  C        1.0261530     0.6905850    -0.0782140
  C       -1.6743200     0.5466190    -0.2136450
  C        2.8653030    -0.7972080    -0.9817560
  C        3.4104270     1.1761770     0.4821660
  C       -2.9771600    -0.2389800    -0.1306750
  C       -4.1937400     0.6821530    -0.1120660
  H        2.2947170    -0.5588030     1.0765090
  H        0.7552030     1.3745990     0.7353710
  H        1.0111040     1.2381230    -1.0301620
  H       -1.5863530     1.2355690     0.6350930
  H       -1.6018540     1.1165020    -1.1483330
  H        2.9531350    -0.1978260    -1.8953020
  H        3.8477320    -1.2283710    -0.7670690
  H        2.1762820    -1.6227130    -1.1817050
  H        3.5229730     1.8417250    -0.3809710
  H        4.3924350     0.7485930     0.7071400
  H        3.0997810     1.7802300     1.3402560
  H       -3.0432920    -0.9285740    -0.9804800
  H       -2.9504610    -0.8515990     0.7760110
  H       -4.1584820     1.3575060     0.7479640
  H       -4.2413300     1.2926870    -1.0190020
  H       -5.1195520     0.1037900    -0.0468840
units angstrom
no_reorient  #important for SAPT in psi4, default
symmetry c1  #important for SAPT in psi4, default
}

set PROPERTIES_ORIGIN ["COM"]
properties('MP2/aug-cc-pvtz', properties = ['dipole'])
--------------------------------------------------------------------------

    Molecular point group: c1
  Charge       = 0
  Multiplicity = 1
  Basis Set: AUG-CC-PVTZ
    Blend: AUG-CC-PVTZ
  Basis Set: (AUG-CC-PVTZ AUX)
    Blend: AUG-CC-PVTZ-JKFIT

    Orbital Energies [Eh]
    ---------------------

    Doubly Occupied:

       1A    -92.057116     2A    -20.497566     3A    -11.261448
       4A    -11.260044     5A    -11.236517     6A    -11.233265
       7A    -11.223605     8A    -11.221568     9A    -11.218352
      10A     -9.044640    11A     -6.726245    12A     -6.726034
      13A     -6.724757    14A     -1.317254    15A     -1.107449
      16A     -1.084079    17A     -1.006184    18A     -0.941049
      19A     -0.933005    20A     -0.846067    21A     -0.800940
      22A     -0.780446    23A     -0.663817    24A     -0.647735
      25A     -0.629110    26A     -0.610302    27A     -0.590861
      28A     -0.588126    29A     -0.565497    30A     -0.554635
      31A     -0.545306    32A     -0.532224    33A     -0.513570
      34A     -0.505849    35A     -0.499309    36A     -0.491232
      37A     -0.485781    38A     -0.473940    39A     -0.467252
      40A     -0.402850    41A     -0.359207

  @DF-RHF Final Energy:  -746.88898985327535

   => Energetics <=

    Nuclear Repulsion Energy =            575.1804260882944391
    One-Electron Energy =               -2165.3903644077354329
    Two-Electron Energy =                 843.3209484661655324
    Total Energy =                       -746.8889898532753477
  Basis Set: (AUG-CC-PVTZ AUX)
    Blend: AUG-CC-PVTZ-RI
    Molecular point group: c1

    Geometry (in Angstrom), charge = 0, multiplicity = 1:

       Center              X                  Y                   Z               Mass
    ------------   -----------------  -----------------  -----------------  -----------------
         S           -0.250846195595    -0.546677759862    -0.162470539546    31.972071174400
         O           -0.276554195595    -1.203582759862     1.206230460454    15.994914619570
         C            2.389521004405     0.098313640138     0.210299660454    12.000000000000
         C            1.036668804405     0.736926240138    -0.098205539546    12.000000000000
         C           -1.663804195595     0.592960240138    -0.233636539546    12.000000000000
         C            2.875818804405    -0.750866759862    -1.001747539546    12.000000000000
         C            3.420942804405     1.222518240138     0.462174460454    12.000000000000
         C           -2.966644195595    -0.192638759862    -0.150666539546    12.000000000000
         C           -4.183224195595     0.728494240138    -0.132057539546    12.000000000000
         H            2.305232804405    -0.512461759862     1.056517460454     1.007825032230
         H            0.765718804405     1.420940240138     0.715379460454     1.007825032230
         H            1.021619804405     1.284464240138    -1.050153539546     1.007825032230
         H           -1.575837195595     1.281910240138     0.615101460454     1.007825032230
         H           -1.591338195595     1.162843240138    -1.168324539546     1.007825032230
         H            2.963650804405    -0.151484759862    -1.915293539546     1.007825032230
         H            3.858247804405    -1.182029759862    -0.787060539546     1.007825032230
         H            2.186797804405    -1.576371759862    -1.201696539546     1.007825032230
         H            3.533488804405     1.888066240138    -0.400962539546     1.007825032230
         H            4.402950804405     0.794934240138     0.687148460454     1.007825032230
         H            3.110296804405     1.826571240138     1.320264460454     1.007825032230
         H           -3.032776195595    -0.882232759862    -1.000471539546     1.007825032230
         H           -2.939945195595    -0.805257759862     0.756019460454     1.007825032230
         H           -4.147966195595     1.403847240138     0.727972460454     1.007825032230
         H           -4.230814195595     1.339028240138    -1.038993539546     1.007825032230
         H           -5.109036195595     0.150131240138    -0.066875539546     1.007825032230

  Basis Set: AUG-CC-PVTZ
    Blend: AUG-CC-PVTZ
  Basis Set: (AUG-CC-PVTZ AUX)
    Blend: AUG-CC-PVTZ-JKFIT
	 Reference Energy          =    -746.8889898532753477 [Eh]
	 Singles Energy            =      -0.0000000000000000 [Eh]
	 Same-Spin Energy          =      -0.4270113450870323 [Eh]
	 Opposite-Spin Energy      =      -1.4580959230608341 [Eh]
	 Correlation Energy        =      -1.8851072681478664 [Eh]
	 Total Energy              =    -748.7740971214232104 [Eh]

	 ================> DF-SCS-MP2 Energies <==================
	-----------------------------------------------------------
	 SCS Same-Spin Scale       =       0.3333333333333333 [-]
	 SCS Opposite-Spin Scale   =       1.2000000000000000 [-]
	 SCS Same-Spin Energy      =      -0.1423371150290108 [Eh]
	 SCS Opposite-Spin Energy  =      -1.7497151076730009 [Eh]
	 SCS Correlation Energy    =      -1.8920522227020116 [Eh]
	 SCS Total Energy          =    -748.7810420759773251 [Eh]
	-----------------------------------------------------------

  Dipole Moment: [D]
     X:    -0.0455      Y:     2.8971      Z:    -2.2740     Total:     3.6833

*** Psi4 exiting successfully. Buy a developer a beer!
