                               Psi4 1.4a3.dev225

  ==> Input File <==

--------------------------------------------------------------------------
#psi4
#
memory 32 gb

molecule  {
0 1
  S       -0.2613620    -0.5930190    -0.1424790
  O       -0.2870700    -1.2499240     1.2262220
  C        2.3977240     0.0716980     0.1844310
  C        1.0261530     0.6905850    -0.0782140
  C       -1.6743200     0.5466190    -0.2136450
  C        2.8653030    -0.7972080    -0.9817560
  C        3.4104270     1.1761770     0.4821660
  C       -2.9771600    -0.2389800    -0.1306750
  C       -4.1937400     0.6821530    -0.1120660
  H        2.3041048    -0.5013408     0.9952073
  H        0.7552030     1.3745990     0.7353710
  H        1.0111040     1.2381230    -1.0301620
  H       -1.5863530     1.2355690     0.6350930
  H       -1.6018540     1.1165020    -1.1483330
  H        2.9531350    -0.1978260    -1.8953020
  H        3.8477320    -1.2283710    -0.7670690
  H        2.1762820    -1.6227130    -1.1817050
  H        3.5229730     1.8417250    -0.3809710
  H        4.3924350     0.7485930     0.7071400
  H        3.0997810     1.7802300     1.3402560
  H       -3.0432920    -0.9285740    -0.9804800
  H       -2.9504610    -0.8515990     0.7760110
  H       -4.1584820     1.3575060     0.7479640
  H       -4.2413300     1.2926870    -1.0190020
  H       -5.1195520     0.1037900    -0.0468840
units angstrom
no_reorient  #important for SAPT in psi4, default
symmetry c1  #important for SAPT in psi4, default
}

set PROPERTIES_ORIGIN ["COM"]
properties('MP2/aug-cc-pvtz', properties = ['dipole'])
--------------------------------------------------------------------------

    Molecular point group: c1
  Charge       = 0
  Multiplicity = 1
  Basis Set: AUG-CC-PVTZ
    Blend: AUG-CC-PVTZ
  Basis Set: (AUG-CC-PVTZ AUX)
    Blend: AUG-CC-PVTZ-JKFIT

    Orbital Energies [Eh]
    ---------------------

    Doubly Occupied:

       1A    -92.057556     2A    -20.497620     3A    -11.261683
       4A    -11.259222     5A    -11.233449     6A    -11.226010
       7A    -11.223731     8A    -11.220555     9A    -11.217211
      10A     -9.045021    11A     -6.726619    12A     -6.726432
      13A     -6.725149    14A     -1.317259    15A     -1.112898
      16A     -1.085835    17A     -1.008073    18A     -0.941752
      19A     -0.936873    20A     -0.846966    21A     -0.802283
      22A     -0.785019    23A     -0.665588    24A     -0.651058
      25A     -0.629781    26A     -0.611137    27A     -0.593530
      28A     -0.588522    29A     -0.566400    30A     -0.554209
      31A     -0.545045    32A     -0.533058    33A     -0.513935
      34A     -0.506493    35A     -0.499376    36A     -0.487130
      37A     -0.485421    38A     -0.479133    39A     -0.474355
      40A     -0.403511    41A     -0.359385

  @DF-RHF Final Energy:  -746.88611505513916

   => Energetics <=

    Nuclear Repulsion Energy =            575.7718077867044713
    One-Electron Energy =               -2166.5072791906491148
    Two-Electron Energy =                 843.8493563488055997
    Total Energy =                       -746.8861150551391574
  Basis Set: (AUG-CC-PVTZ AUX)
    Blend: AUG-CC-PVTZ-RI
    Molecular point group: c1

    Geometry (in Angstrom), charge = 0, multiplicity = 1:

       Center              X                  Y                   Z               Mass
    ------------   -----------------  -----------------  -----------------  -----------------
         S           -0.252426878990    -0.548667189898    -0.158201169877    31.972071174400
         O           -0.278134878990    -1.205572189898     1.210499830123    15.994914619570
         C            2.406659121010     0.116049810102     0.168708830123    12.000000000000
         C            1.035088121010     0.734936810102    -0.093936169877    12.000000000000
         C           -1.665384878990     0.590970810102    -0.229367169877    12.000000000000
         C            2.874238121010    -0.752856189898    -0.997478169877    12.000000000000
         C            3.419362121010     1.220528810102     0.466443830123    12.000000000000
         C           -2.968224878990    -0.194628189898    -0.146397169877    12.000000000000
         C           -4.184804878990     0.726504810102    -0.127788169877    12.000000000000
         H            2.313039921010    -0.456988989898     0.979485130123     1.007825032230
         H            0.764138121010     1.418950810102     0.719648830123     1.007825032230
         H            1.020039121010     1.282474810102    -1.045884169877     1.007825032230
         H           -1.577417878990     1.279920810102     0.619370830123     1.007825032230
         H           -1.592918878990     1.160853810102    -1.164055169877     1.007825032230
         H            2.962070121010    -0.153474189898    -1.911024169877     1.007825032230
         H            3.856667121010    -1.184019189898    -0.782791169877     1.007825032230
         H            2.185217121010    -1.578361189898    -1.197427169877     1.007825032230
         H            3.531908121010     1.886076810102    -0.396693169877     1.007825032230
         H            4.401370121010     0.792944810102     0.691417830123     1.007825032230
         H            3.108716121010     1.824581810102     1.324533830123     1.007825032230
         H           -3.034356878990    -0.884222189898    -0.996202169877     1.007825032230
         H           -2.941525878990    -0.807247189898     0.760288830123     1.007825032230
         H           -4.149546878990     1.401857810102     0.732241830123     1.007825032230
         H           -4.232394878990     1.337038810102    -1.034724169877     1.007825032230
         H           -5.110616878990     0.148141810102    -0.062606169877     1.007825032230

  Basis Set: AUG-CC-PVTZ
    Blend: AUG-CC-PVTZ
  Basis Set: (AUG-CC-PVTZ AUX)
    Blend: AUG-CC-PVTZ-JKFIT
	 Reference Energy          =    -746.8861150551391574 [Eh]
	 Singles Energy            =      -0.0000000000000000 [Eh]
	 Same-Spin Energy          =      -0.4270993260026260 [Eh]
	 Opposite-Spin Energy      =      -1.4575938057404878 [Eh]
	 Correlation Energy        =      -1.8846931317431137 [Eh]
	 Total Energy              =    -748.7708081868822774 [Eh]

	 ================> DF-SCS-MP2 Energies <==================
	-----------------------------------------------------------
	 SCS Same-Spin Scale       =       0.3333333333333333 [-]
	 SCS Opposite-Spin Scale   =       1.2000000000000000 [-]
	 SCS Same-Spin Energy      =      -0.1423664420008753 [Eh]
	 SCS Opposite-Spin Energy  =      -1.7491125668885854 [Eh]
	 SCS Correlation Energy    =      -1.8914790088894606 [Eh]
	 SCS Total Energy          =    -748.7775940640285626 [Eh]
	-----------------------------------------------------------

  Dipole Moment: [D]
     X:    -0.0462      Y:     2.8799      Z:    -2.2601     Total:     3.6611

*** Psi4 exiting successfully. Buy a developer a beer!
