                               Psi4 1.4a3.dev225

  ==> Input File <==

--------------------------------------------------------------------------
#psi4
#
memory 32 gb

molecule  {
0 1
  S       -0.2613620    -0.5930190    -0.1424790
  O       -0.2870700    -1.2499240     1.2262220
  C        2.3977240     0.0716980     0.1844310
  C        1.0949162     0.8328010    -0.0535285
  C       -1.6743200     0.5466190    -0.2136450
  C        2.8653030    -0.7972080    -0.9817560
  C        3.4104270     1.1761770     0.4821660
  C       -2.9771600    -0.2389800    -0.1306750
  C       -4.1937400     0.6821530    -0.1120660
  H        2.2947170    -0.5588030     1.0765090
  H        0.7552030     1.3745990     0.7353710
  H        1.0111040     1.2381230    -1.0301620
  H       -1.5863530     1.2355690     0.6350930
  H       -1.6018540     1.1165020    -1.1483330
  H        2.9531350    -0.1978260    -1.8953020
  H        3.8477320    -1.2283710    -0.7670690
  H        2.1762820    -1.6227130    -1.1817050
  H        3.5229730     1.8417250    -0.3809710
  H        4.3924350     0.7485930     0.7071400
  H        3.0997810     1.7802300     1.3402560
  H       -3.0432920    -0.9285740    -0.9804800
  H       -2.9504610    -0.8515990     0.7760110
  H       -4.1584820     1.3575060     0.7479640
  H       -4.2413300     1.2926870    -1.0190020
  H       -5.1195520     0.1037900    -0.0468840
units angstrom
no_reorient  #important for SAPT in psi4, default
symmetry c1  #important for SAPT in psi4, default
}

set PROPERTIES_ORIGIN ["COM"]
properties('MP2/aug-cc-pvtz', properties = ['dipole'])
--------------------------------------------------------------------------

    Molecular point group: c1
  Charge       = 0
  Multiplicity = 1
  Basis Set: AUG-CC-PVTZ
    Blend: AUG-CC-PVTZ
  Basis Set: (AUG-CC-PVTZ AUX)
    Blend: AUG-CC-PVTZ-JKFIT

    Orbital Energies [Eh]
    ---------------------

    Doubly Occupied:

       1A    -92.052352     2A    -20.496771     3A    -11.260753
       4A    -11.259439     5A    -11.238897     6A    -11.231472
       7A    -11.222279     8A    -11.220243     9A    -11.219816
      10A     -9.039262    11A     -6.720678    12A     -6.720371
      13A     -6.719240    14A     -1.312400    15A     -1.108286
      16A     -1.083378    17A     -0.997909    18A     -0.944869
      19A     -0.936122    20A     -0.843463    21A     -0.794962
      22A     -0.781416    23A     -0.674756    24A     -0.651659
      25A     -0.623185    26A     -0.615105    27A     -0.592979
      28A     -0.586643    29A     -0.566604    30A     -0.554795
      31A     -0.545723    32A     -0.533616    33A     -0.511677
      34A     -0.507487    35A     -0.498192    36A     -0.488834
      37A     -0.484178    38A     -0.478849    39A     -0.469838
      40A     -0.388591    41A     -0.349280

  @DF-RHF Final Energy:  -746.87356845665022

   => Energetics <=

    Nuclear Repulsion Energy =            572.7996324360221934
    One-Electron Energy =               -2160.6936611098399226
    Two-Electron Energy =                 841.0204602171675106
    Total Energy =                       -746.8735684566502186
  Basis Set: (AUG-CC-PVTZ AUX)
    Blend: AUG-CC-PVTZ-RI
    Molecular point group: c1

    Geometry (in Angstrom), charge = 0, multiplicity = 1:

       Center              X                  Y                   Z               Mass
    ------------   -----------------  -----------------  -----------------  -----------------
         S           -0.257934915305    -0.559799986283    -0.160754740716    31.972071174400
         O           -0.283642915305    -1.216704986283     1.207946259284    15.994914619570
         C            2.401151084695     0.104917013717     0.166155259284    12.000000000000
         C            1.098343284695     0.866020013717    -0.071804240716    12.000000000000
         C           -1.670892915305     0.579838013717    -0.231920740716    12.000000000000
         C            2.868730084695    -0.763988986283    -1.000031740716    12.000000000000
         C            3.413854084695     1.209396013717     0.463890259284    12.000000000000
         C           -2.973732915305    -0.205760986283    -0.148950740716    12.000000000000
         C           -4.190312915305     0.715372013717    -0.130341740716    12.000000000000
         H            2.298144084695    -0.525583986283     1.058233259284     1.007825032230
         H            0.758630084695     1.407818013717     0.717095259284     1.007825032230
         H            1.014531084695     1.271342013717    -1.048437740716     1.007825032230
         H           -1.582925915305     1.268788013717     0.616817259284     1.007825032230
         H           -1.598426915305     1.149721013717    -1.166608740716     1.007825032230
         H            2.956562084695    -0.164606986283    -1.913577740716     1.007825032230
         H            3.851159084695    -1.195151986283    -0.785344740716     1.007825032230
         H            2.179709084695    -1.589493986283    -1.199980740716     1.007825032230
         H            3.526400084695     1.874944013717    -0.399246740716     1.007825032230
         H            4.395862084695     0.781812013717     0.688864259284     1.007825032230
         H            3.103208084695     1.813449013717     1.321980259284     1.007825032230
         H           -3.039864915305    -0.895354986283    -0.998755740716     1.007825032230
         H           -2.947033915305    -0.818379986283     0.757735259284     1.007825032230
         H           -4.155054915305     1.390725013717     0.729688259284     1.007825032230
         H           -4.237902915305     1.325906013717    -1.037277740716     1.007825032230
         H           -5.116124915305     0.137009013717    -0.065159740716     1.007825032230

  Basis Set: AUG-CC-PVTZ
    Blend: AUG-CC-PVTZ
  Basis Set: (AUG-CC-PVTZ AUX)
    Blend: AUG-CC-PVTZ-JKFIT
	 Reference Energy          =    -746.8735684566502186 [Eh]
	 Singles Energy            =      -0.0000000000000000 [Eh]
	 Same-Spin Energy          =      -0.4278238468389466 [Eh]
	 Opposite-Spin Energy      =      -1.4603999183618364 [Eh]
	 Correlation Energy        =      -1.8882237652007829 [Eh]
	 Total Energy              =    -748.7617922218510103 [Eh]

	 ================> DF-SCS-MP2 Energies <==================
	-----------------------------------------------------------
	 SCS Same-Spin Scale       =       0.3333333333333333 [-]
	 SCS Opposite-Spin Scale   =       1.2000000000000000 [-]
	 SCS Same-Spin Energy      =      -0.1426079489463155 [Eh]
	 SCS Opposite-Spin Energy  =      -1.7524799020342037 [Eh]
	 SCS Correlation Energy    =      -1.8950878509805191 [Eh]
	 SCS Total Energy          =    -748.7686563076307493 [Eh]
	-----------------------------------------------------------

  Dipole Moment: [D]
     X:    -0.0786      Y:     2.7889      Z:    -2.2617     Total:     3.5916

*** Psi4 exiting successfully. Buy a developer a beer!
