                               Psi4 1.4a3.dev225

  ==> Input File <==

--------------------------------------------------------------------------
#psi4
#
memory 32 gb

molecule  {
0 1
  S       -0.2613620    -0.5930190    -0.1424790
  O       -0.2870700    -1.2499240     1.2262220
  C        2.3977240     0.0716980     0.1844310
  C        1.0261530     0.6905850    -0.0782140
  C       -1.6743200     0.5466190    -0.2136450
  C        2.8653030    -0.7972080    -0.9817560
  C        3.4104270     1.1761770     0.4821660
  C       -2.9771600    -0.2389800    -0.1306750
  C       -4.1937400     0.6821530    -0.1120660
  H        2.2947170    -0.5588030     1.0765090
  H        0.7552030     1.3745990     0.7353710
  H        1.0111040     1.2381230    -1.0301620
  H       -1.5863530     1.2355690     0.6350930
  H       -1.6018540     1.1165020    -1.1483330
  H        2.9531350    -0.1978260    -1.8953020
  H        3.8477320    -1.2283710    -0.7670690
  H        2.1762820    -1.6227130    -1.1817050
  H        3.5229730     1.8417250    -0.3809710
  H        4.3924350     0.7485930     0.7071400
  H        3.0997810     1.7802300     1.3402560
  H       -3.0432920    -0.9285740    -0.9804800
  H       -2.9504610    -0.8515990     0.7760110
  H       -4.1617046     1.2957777     0.6693559
  H       -4.2413300     1.2926870    -1.0190020
  H       -5.1195520     0.1037900    -0.0468840
units angstrom
no_reorient  #important for SAPT in psi4, default
symmetry c1  #important for SAPT in psi4, default
}

set PROPERTIES_ORIGIN ["COM"]
properties('MP2/aug-cc-pvtz', properties = ['dipole'])
--------------------------------------------------------------------------

    Molecular point group: c1
  Charge       = 0
  Multiplicity = 1
  Basis Set: AUG-CC-PVTZ
    Blend: AUG-CC-PVTZ
  Basis Set: (AUG-CC-PVTZ AUX)
    Blend: AUG-CC-PVTZ-JKFIT

    Orbital Energies [Eh]
    ---------------------

    Doubly Occupied:

       1A    -92.057507     2A    -20.497369     3A    -11.261607
       4A    -11.259748     5A    -11.237687     6A    -11.232401
       7A    -11.221022     8A    -11.217743     9A    -11.211053
      10A     -9.044959    11A     -6.726556    12A     -6.726367
      13A     -6.725082    14A     -1.317016    15A     -1.109647
      16A     -1.086210    17A     -1.010042    18A     -0.945887
      19A     -0.937180    20A     -0.849811    21A     -0.801532
      22A     -0.772905    23A     -0.665104    24A     -0.650988
      25A     -0.629911    26A     -0.611033    27A     -0.593962
      28A     -0.591853    29A     -0.567922    30A     -0.558361
      31A     -0.545142    32A     -0.533244    33A     -0.513550
      34A     -0.508158    35A     -0.501363    36A     -0.487164
      37A     -0.479951    38A     -0.475667    39A     -0.472487
      40A     -0.403308    41A     -0.359274

  @DF-RHF Final Energy:  -746.88548326352088

   => Energetics <=

    Nuclear Repulsion Energy =            575.7003600452861747
    One-Electron Energy =               -2166.3761375944927750
    Two-Electron Energy =                 843.7902942856856043
    Total Energy =                       -746.8854832635208822
  Basis Set: (AUG-CC-PVTZ AUX)
    Blend: AUG-CC-PVTZ-RI
    Molecular point group: c1

    Geometry (in Angstrom), charge = 0, multiplicity = 1:

       Center              X                  Y                   Z               Mass
    ------------   -----------------  -----------------  -----------------  -----------------
         S           -0.252341060304    -0.547856052103    -0.158219500875    31.972071174400
         O           -0.278049060304    -1.204761052103     1.210481499125    15.994914619570
         C            2.406744939696     0.116860947897     0.168690499125    12.000000000000
         C            1.035173939696     0.735747947897    -0.093954500875    12.000000000000
         C           -1.665299060304     0.591781947897    -0.229385500875    12.000000000000
         C            2.874323939696    -0.752045052103    -0.997496500875    12.000000000000
         C            3.419447939696     1.221339947897     0.466425499125    12.000000000000
         C           -2.968139060304    -0.193817052103    -0.146415500875    12.000000000000
         C           -4.184719060304     0.727315947897    -0.127806500875    12.000000000000
         H            2.303737939696    -0.513640052103     1.060768499125     1.007825032230
         H            0.764223939696     1.419761947897     0.719630499125     1.007825032230
         H            1.020124939696     1.283285947897    -1.045902500875     1.007825032230
         H           -1.577332060304     1.280731947897     0.619352499125     1.007825032230
         H           -1.592833060304     1.161664947897    -1.164073500875     1.007825032230
         H            2.962155939696    -0.152663052103    -1.911042500875     1.007825032230
         H            3.856752939696    -1.183208052103    -0.782809500875     1.007825032230
         H            2.185302939696    -1.577550052103    -1.197445500875     1.007825032230
         H            3.531993939696     1.886887947897    -0.396711500875     1.007825032230
         H            4.401455939696     0.793755947897     0.691399499125     1.007825032230
         H            3.108801939696     1.825392947897     1.324515499125     1.007825032230
         H           -3.034271060304    -0.883411052103    -0.996220500875     1.007825032230
         H           -2.941440060304    -0.806436052103     0.760270499125     1.007825032230
         H           -4.152683660304     1.340940647897     0.653615399125     1.007825032230
         H           -4.232309060304     1.337849947897    -1.034742500875     1.007825032230
         H           -5.110531060304     0.148952947897    -0.062624500875     1.007825032230

  Basis Set: AUG-CC-PVTZ
    Blend: AUG-CC-PVTZ
  Basis Set: (AUG-CC-PVTZ AUX)
    Blend: AUG-CC-PVTZ-JKFIT
	 Reference Energy          =    -746.8854832635208822 [Eh]
	 Singles Energy            =      -0.0000000000000000 [Eh]
	 Same-Spin Energy          =      -0.4273332696583417 [Eh]
	 Opposite-Spin Energy      =      -1.4578283359297575 [Eh]
	 Correlation Energy        =      -1.8851616055880993 [Eh]
	 Total Energy              =    -748.7706448691089918 [Eh]

	 ================> DF-SCS-MP2 Energies <==================
	-----------------------------------------------------------
	 SCS Same-Spin Scale       =       0.3333333333333333 [-]
	 SCS Opposite-Spin Scale   =       1.2000000000000000 [-]
	 SCS Same-Spin Energy      =      -0.1424444232194472 [Eh]
	 SCS Opposite-Spin Energy  =      -1.7493940031157089 [Eh]
	 SCS Correlation Energy    =      -1.8918384263351562 [Eh]
	 SCS Total Energy          =    -748.7773216898560804 [Eh]
	-----------------------------------------------------------

  Dipole Moment: [D]
     X:    -0.0641      Y:     2.9238      Z:    -2.2417     Total:     3.6848

*** Psi4 exiting successfully. Buy a developer a beer!
