                               Psi4 1.4a3.dev225

  ==> Input File <==

--------------------------------------------------------------------------
#psi4
#
memory 32 gb

molecule  {
0 1
  S       -0.2613620    -0.5930190    -0.1424790
  O       -0.2870700    -1.2499240     1.2262220
  C        2.5350792     0.0336324     0.2569031
  C        1.0261530     0.6905850    -0.0782140
  C       -1.6743200     0.5466190    -0.2136450
  C        2.8653030    -0.7972080    -0.9817560
  C        3.4104270     1.1761770     0.4821660
  C       -2.9771600    -0.2389800    -0.1306750
  C       -4.1937400     0.6821530    -0.1120660
  H        2.2947170    -0.5588030     1.0765090
  H        0.7552030     1.3745990     0.7353710
  H        1.0111040     1.2381230    -1.0301620
  H       -1.5863530     1.2355690     0.6350930
  H       -1.6018540     1.1165020    -1.1483330
  H        2.9531350    -0.1978260    -1.8953020
  H        3.8477320    -1.2283710    -0.7670690
  H        2.1762820    -1.6227130    -1.1817050
  H        3.5229730     1.8417250    -0.3809710
  H        4.3924350     0.7485930     0.7071400
  H        3.0997810     1.7802300     1.3402560
  H       -3.0432920    -0.9285740    -0.9804800
  H       -2.9504610    -0.8515990     0.7760110
  H       -4.1584820     1.3575060     0.7479640
  H       -4.2413300     1.2926870    -1.0190020
  H       -5.1195520     0.1037900    -0.0468840
units angstrom
no_reorient  #important for SAPT in psi4, default
symmetry c1  #important for SAPT in psi4, default
}

set PROPERTIES_ORIGIN ["COM"]
properties('MP2/aug-cc-pvtz', properties = ['dipole'])
--------------------------------------------------------------------------

    Molecular point group: c1
  Charge       = 0
  Multiplicity = 1
  Basis Set: AUG-CC-PVTZ
    Blend: AUG-CC-PVTZ
  Basis Set: (AUG-CC-PVTZ AUX)
    Blend: AUG-CC-PVTZ-JKFIT

    Orbital Energies [Eh]
    ---------------------

    Doubly Occupied:

       1A    -92.055359     2A    -20.495333     3A    -11.259556
       4A    -11.258320     5A    -11.242351     6A    -11.231912
       7A    -11.222605     8A    -11.220952     9A    -11.219851
      10A     -9.042618    11A     -6.724219    12A     -6.724069
      13A     -6.722788    14A     -1.314751    15A     -1.103922
      16A     -1.084724    17A     -1.008668    18A     -0.944917
      19A     -0.935043    20A     -0.838316    21A     -0.799004
      22A     -0.781423    23A     -0.660114    24A     -0.647619
      25A     -0.624867    26A     -0.611192    27A     -0.596209
      28A     -0.587734    29A     -0.567039    30A     -0.555414
      31A     -0.550759    32A     -0.532558    33A     -0.514111
      34A     -0.506615    35A     -0.501257    36A     -0.496443
      37A     -0.487425    38A     -0.483652    39A     -0.435920
      40A     -0.396125    41A     -0.357417

  @DF-RHF Final Energy:  -746.87071638569057

   => Energetics <=

    Nuclear Repulsion Energy =            573.4344996023899057
    One-Electron Energy =               -2161.9240930842483976
    Two-Electron Energy =                 841.6188770961679211
    Total Energy =                       -746.8707163856905709
  Basis Set: (AUG-CC-PVTZ AUX)
    Blend: AUG-CC-PVTZ-RI
    Molecular point group: c1

    Geometry (in Angstrom), charge = 0, multiplicity = 1:

       Center              X                  Y                   Z               Mass
    ------------   -----------------  -----------------  -----------------  -----------------
         S           -0.263492966816    -0.545191658498    -0.164626918002    31.972071174400
         O           -0.289200966816    -1.202096658498     1.204074081998    15.994914619570
         C            2.532948233184     0.081459741502     0.234755181998    12.000000000000
         C            1.024022033184     0.738412341502    -0.100361918002    12.000000000000
         C           -1.676450966816     0.594446341502    -0.235792918002    12.000000000000
         C            2.863172033184    -0.749380658498    -1.003903918002    12.000000000000
         C            3.408296033184     1.224004341502     0.460018081998    12.000000000000
         C           -2.979290966816    -0.191152658498    -0.152822918002    12.000000000000
         C           -4.195870966816     0.729980341502    -0.134213918002    12.000000000000
         H            2.292586033184    -0.510975658498     1.054361081998     1.007825032230
         H            0.753072033184     1.422426341502     0.713223081998     1.007825032230
         H            1.008973033184     1.285950341502    -1.052309918002     1.007825032230
         H           -1.588483966816     1.283396341502     0.612945081998     1.007825032230
         H           -1.603984966816     1.164329341502    -1.170480918002     1.007825032230
         H            2.951004033184    -0.149998658498    -1.917449918002     1.007825032230
         H            3.845601033184    -1.180543658498    -0.789216918002     1.007825032230
         H            2.174151033184    -1.574885658498    -1.203852918002     1.007825032230
         H            3.520842033184     1.889552341502    -0.403118918002     1.007825032230
         H            4.390304033184     0.796420341502     0.684992081998     1.007825032230
         H            3.097650033184     1.828057341502     1.318108081998     1.007825032230
         H           -3.045422966816    -0.880746658498    -1.002627918002     1.007825032230
         H           -2.952591966816    -0.803771658498     0.753863081998     1.007825032230
         H           -4.160612966816     1.405333341502     0.725816081998     1.007825032230
         H           -4.243460966816     1.340514341502    -1.041149918002     1.007825032230
         H           -5.121682966816     0.151617341502    -0.069031918002     1.007825032230

  Basis Set: AUG-CC-PVTZ
    Blend: AUG-CC-PVTZ
  Basis Set: (AUG-CC-PVTZ AUX)
    Blend: AUG-CC-PVTZ-JKFIT
	 Reference Energy          =    -746.8707163856905709 [Eh]
	 Singles Energy            =      -0.0000000000000000 [Eh]
	 Same-Spin Energy          =      -0.4276168769752330 [Eh]
	 Opposite-Spin Energy      =      -1.4592476140293418 [Eh]
	 Correlation Energy        =      -1.8868644910045749 [Eh]
	 Total Energy              =    -748.7575808766951013 [Eh]

	 ================> DF-SCS-MP2 Energies <==================
	-----------------------------------------------------------
	 SCS Same-Spin Scale       =       0.3333333333333333 [-]
	 SCS Opposite-Spin Scale   =       1.2000000000000000 [-]
	 SCS Same-Spin Energy      =      -0.1425389589917443 [Eh]
	 SCS Opposite-Spin Energy  =      -1.7510971368352102 [Eh]
	 SCS Correlation Energy    =      -1.8936360958269545 [Eh]
	 SCS Total Energy          =    -748.7643524815175624 [Eh]
	-----------------------------------------------------------

  Dipole Moment: [D]
     X:     0.1418      Y:     2.9187      Z:    -2.2715     Total:     3.7012

*** Psi4 exiting successfully. Buy a developer a beer!
