                               Psi4 1.4a3.dev225

  ==> Input File <==

--------------------------------------------------------------------------
#psi4
#
memory 32 gb

molecule  {
0 1
  S       -0.2613620    -0.5930190    -0.1424790
  O       -0.2870700    -1.2499240     1.2262220
  C        2.3977240     0.0716980     0.1844310
  C        1.0261530     0.6905850    -0.0782140
  C       -1.6743200     0.5466190    -0.2136450
  C        2.8653030    -0.7972080    -0.9817560
  C        3.4104270     1.1761770     0.4821660
  C       -2.9771600    -0.2389800    -0.1306750
  C       -4.1937400     0.6821530    -0.1120660
  H        2.2947170    -0.5588030     1.0765090
  H        0.7552030     1.3745990     0.7353710
  H        1.0111040     1.2381230    -1.0301620
  H       -1.5863530     1.2355690     0.6350930
  H       -1.6018540     1.1165020    -1.1483330
  H        2.9531350    -0.1978260    -1.8953020
  H        3.8477320    -1.2283710    -0.7670690
  H        2.1762820    -1.6227130    -1.1817050
  H        3.5229730     1.8417250    -0.3809710
  H        4.3924350     0.7485930     0.7071400
  H        3.0997810     1.7802300     1.3402560
  H       -3.0432920    -0.9285740    -0.9804800
  H       -2.9504610    -0.8515990     0.7760110
  H       -4.1584820     1.3575060     0.7479640
  H       -4.2391556     1.2647916    -0.9775639
  H       -5.1195520     0.1037900    -0.0468840
units angstrom
no_reorient  #important for SAPT in psi4, default
symmetry c1  #important for SAPT in psi4, default
}

set PROPERTIES_ORIGIN ["COM"]
properties('MP2/aug-cc-pvtz', properties = ['dipole'])
--------------------------------------------------------------------------

    Molecular point group: c1
  Charge       = 0
  Multiplicity = 1
  Basis Set: AUG-CC-PVTZ
    Blend: AUG-CC-PVTZ
  Basis Set: (AUG-CC-PVTZ AUX)
    Blend: AUG-CC-PVTZ-JKFIT

    Orbital Energies [Eh]
    ---------------------

    Doubly Occupied:

       1A    -92.057506     2A    -20.497366     3A    -11.261636
       4A    -11.259764     5A    -11.237692     6A    -11.232873
       7A    -11.221019     8A    -11.217758     9A    -11.217371
      10A     -9.044961    11A     -6.726560    12A     -6.726371
      13A     -6.725086    14A     -1.317006    15A     -1.109609
      16A     -1.085506    17A     -1.008656    18A     -0.943713
      19A     -0.937184    20A     -0.847571    21A     -0.800789
      22A     -0.772902    23A     -0.665006    24A     -0.649474
      25A     -0.629726    26A     -0.611701    27A     -0.594015
      28A     -0.587728    29A     -0.570273    30A     -0.554023
      31A     -0.545213    32A     -0.533289    33A     -0.513857
      34A     -0.507076    35A     -0.499773    36A     -0.487512
      37A     -0.480011    38A     -0.475553    39A     -0.472457
      40A     -0.403379    41A     -0.359260

  @DF-RHF Final Energy:  -746.89058511264295

   => Energetics <=

    Nuclear Repulsion Energy =            575.4840852542437233
    One-Electron Energy =               -2165.9728920011316404
    Two-Electron Energy =                 843.5982216342448510
    Total Energy =                       -746.8905851126429525
  Basis Set: (AUG-CC-PVTZ AUX)
    Blend: AUG-CC-PVTZ-RI
    Molecular point group: c1

    Geometry (in Angstrom), charge = 0, multiplicity = 1:

       Center              X                  Y                   Z               Mass
    ------------   -----------------  -----------------  -----------------  -----------------
         S           -0.252377788992    -0.548086298170    -0.159036462042    31.972071174400
         O           -0.278085788992    -1.204991298170     1.209664537958    15.994914619570
         C            2.406708211008     0.116630701830     0.167873537958    12.000000000000
         C            1.035137211008     0.735517701830    -0.094771462042    12.000000000000
         C           -1.665335788992     0.591551701830    -0.230202462042    12.000000000000
         C            2.874287211008    -0.752275298170    -0.998313462042    12.000000000000
         C            3.419411211008     1.221109701830     0.465608537958    12.000000000000
         C           -2.968175788992    -0.194047298170    -0.147232462042    12.000000000000
         C           -4.184755788992     0.727085701830    -0.128623462042    12.000000000000
         H            2.303701211008    -0.513870298170     1.059951537958     1.007825032230
         H            0.764187211008     1.419531701830     0.718813537958     1.007825032230
         H            1.020088211008     1.283055701830    -1.046719462042     1.007825032230
         H           -1.577368788992     1.280501701830     0.618535537958     1.007825032230
         H           -1.592869788992     1.161434701830    -1.164890462042     1.007825032230
         H            2.962119211008    -0.152893298170    -1.911859462042     1.007825032230
         H            3.856716211008    -1.183438298170    -0.783626462042     1.007825032230
         H            2.185266211008    -1.577780298170    -1.198262462042     1.007825032230
         H            3.531957211008     1.886657701830    -0.397528462042     1.007825032230
         H            4.401419211008     0.793525701830     0.690582537958     1.007825032230
         H            3.108765211008     1.825162701830     1.323698537958     1.007825032230
         H           -3.034307788992    -0.883641298170    -0.997037462042     1.007825032230
         H           -2.941476788992    -0.806666298170     0.759453537958     1.007825032230
         H           -4.149497788992     1.402438701830     0.731406537958     1.007825032230
         H           -4.230171388992     1.309724301830    -0.994121362042     1.007825032230
         H           -5.110567788992     0.148722701830    -0.063441462042     1.007825032230

  Basis Set: AUG-CC-PVTZ
    Blend: AUG-CC-PVTZ
  Basis Set: (AUG-CC-PVTZ AUX)
    Blend: AUG-CC-PVTZ-JKFIT
	 Reference Energy          =    -746.8905851126429525 [Eh]
	 Singles Energy            =      -0.0000000000000000 [Eh]
	 Same-Spin Energy          =      -0.4273022707997088 [Eh]
	 Opposite-Spin Energy      =      -1.4580049923753813 [Eh]
	 Correlation Energy        =      -1.8853072631750902 [Eh]
	 Total Energy              =    -748.7758923758179890 [Eh]

	 ================> DF-SCS-MP2 Energies <==================
	-----------------------------------------------------------
	 SCS Same-Spin Scale       =       0.3333333333333333 [-]
	 SCS Opposite-Spin Scale   =       1.2000000000000000 [-]
	 SCS Same-Spin Energy      =      -0.1424340902665696 [Eh]
	 SCS Opposite-Spin Energy  =      -1.7496059908504575 [Eh]
	 SCS Correlation Energy    =      -1.8920400811170270 [Eh]
	 SCS Total Energy          =    -748.7826251937599409 [Eh]
	-----------------------------------------------------------

  Dipole Moment: [D]
     X:    -0.0625      Y:     2.9062      Z:    -2.3005     Total:     3.7071

*** Psi4 exiting successfully. Buy a developer a beer!
