                               Psi4 1.4a3.dev225

  ==> Input File <==

--------------------------------------------------------------------------
#psi4
#
memory 32 gb

molecule  {
0 1
  S       -0.2613620    -0.5930190    -0.1424790
  O       -0.2870700    -1.2499240     1.2262220
  C        2.3977240     0.0716980     0.1844310
  C        1.0361831     0.7032363    -0.0994286
  C       -1.6743200     0.5466190    -0.2136450
  C        2.8653030    -0.7972080    -0.9817560
  C        3.4104270     1.1761770     0.4821660
  C       -2.9771600    -0.2389800    -0.1306750
  C       -4.1937400     0.6821530    -0.1120660
  H        2.2947170    -0.5588030     1.0765090
  H        0.7552030     1.3745990     0.7353710
  H        1.0111040     1.2381230    -1.0301620
  H       -1.5863530     1.2355690     0.6350930
  H       -1.6018540     1.1165020    -1.1483330
  H        2.9531350    -0.1978260    -1.8953020
  H        3.8477320    -1.2283710    -0.7670690
  H        2.1762820    -1.6227130    -1.1817050
  H        3.5229730     1.8417250    -0.3809710
  H        4.3924350     0.7485930     0.7071400
  H        3.0997810     1.7802300     1.3402560
  H       -3.0432920    -0.9285740    -0.9804800
  H       -2.9504610    -0.8515990     0.7760110
  H       -4.1584820     1.3575060     0.7479640
  H       -4.2413300     1.2926870    -1.0190020
  H       -5.1195520     0.1037900    -0.0468840
units angstrom
no_reorient  #important for SAPT in psi4, default
symmetry c1  #important for SAPT in psi4, default
}

set PROPERTIES_ORIGIN ["COM"]
properties('MP2/aug-cc-pvtz', properties = ['dipole'])
--------------------------------------------------------------------------

    Molecular point group: c1
  Charge       = 0
  Multiplicity = 1
  Basis Set: AUG-CC-PVTZ
    Blend: AUG-CC-PVTZ
  Basis Set: (AUG-CC-PVTZ AUX)
    Blend: AUG-CC-PVTZ-JKFIT

    Orbital Energies [Eh]
    ---------------------

    Doubly Occupied:

       1A    -92.057154     2A    -20.498122     3A    -11.261558
       4A    -11.259734     5A    -11.237852     6A    -11.233237
       7A    -11.223585     8A    -11.220925     9A    -11.217669
      10A     -9.044490    11A     -6.726078    12A     -6.725879
      13A     -6.724623    14A     -1.316799    15A     -1.109575
      16A     -1.084907    17A     -1.006561    18A     -0.941781
      19A     -0.937239    20A     -0.845248    21A     -0.799562
      22A     -0.774736    23A     -0.664439    24A     -0.649650
      25A     -0.628061    26A     -0.611763    27A     -0.592578
      28A     -0.589541    29A     -0.566402    30A     -0.555616
      31A     -0.545018    32A     -0.532447    33A     -0.513284
      34A     -0.506792    35A     -0.499236    36A     -0.485921
      37A     -0.479820    38A     -0.477934    39A     -0.471834
      40A     -0.402678    41A     -0.358160

  @DF-RHF Final Energy:  -746.89085886600503

   => Energetics <=

    Nuclear Repulsion Energy =            574.9844204695758663
    One-Electron Energy =               -2164.9935821186595604
    Two-Electron Energy =                 843.1183027830785477
    Total Energy =                       -746.8908588660050327
  Basis Set: (AUG-CC-PVTZ AUX)
    Blend: AUG-CC-PVTZ-RI
    Molecular point group: c1

    Geometry (in Angstrom), charge = 0, multiplicity = 1:

       Center              X                  Y                   Z               Mass
    ------------   -----------------  -----------------  -----------------  -----------------
         S           -0.253175736461    -0.549301279776    -0.157035427674    31.972071174400
         O           -0.278883736461    -1.206206279776     1.211665572326    15.994914619570
         C            2.405910263539     0.115415720224     0.169874572326    12.000000000000
         C            1.044369363539     0.746954020224    -0.113985027674    12.000000000000
         C           -1.666133736461     0.590336720224    -0.228201427674    12.000000000000
         C            2.873489263539    -0.753490279776    -0.996312427674    12.000000000000
         C            3.418613263539     1.219894720224     0.467609572326    12.000000000000
         C           -2.968973736461    -0.195262279776    -0.145231427674    12.000000000000
         C           -4.185553736461     0.725870720224    -0.126622427674    12.000000000000
         H            2.302903263539    -0.515085279776     1.061952572326     1.007825032230
         H            0.763389263539     1.418316720224     0.720814572326     1.007825032230
         H            1.019290263539     1.281840720224    -1.044718427674     1.007825032230
         H           -1.578166736461     1.279286720224     0.620536572326     1.007825032230
         H           -1.593667736461     1.160219720224    -1.162889427674     1.007825032230
         H            2.961321263539    -0.154108279776    -1.909858427674     1.007825032230
         H            3.855918263539    -1.184653279776    -0.781625427674     1.007825032230
         H            2.184468263539    -1.578995279776    -1.196261427674     1.007825032230
         H            3.531159263539     1.885442720224    -0.395527427674     1.007825032230
         H            4.400621263539     0.792310720224     0.692583572326     1.007825032230
         H            3.107967263539     1.823947720224     1.325699572326     1.007825032230
         H           -3.035105736461    -0.884856279776    -0.995036427674     1.007825032230
         H           -2.942274736461    -0.807881279776     0.761454572326     1.007825032230
         H           -4.150295736461     1.401223720224     0.733407572326     1.007825032230
         H           -4.233143736461     1.336404720224    -1.033558427674     1.007825032230
         H           -5.111365736461     0.147507720224    -0.061440427674     1.007825032230

  Basis Set: AUG-CC-PVTZ
    Blend: AUG-CC-PVTZ
  Basis Set: (AUG-CC-PVTZ AUX)
    Blend: AUG-CC-PVTZ-JKFIT
	 Reference Energy          =    -746.8908588660050327 [Eh]
	 Singles Energy            =      -0.0000000000000000 [Eh]
	 Same-Spin Energy          =      -0.4272678847201716 [Eh]
	 Opposite-Spin Energy      =      -1.4583595524202022 [Eh]
	 Correlation Energy        =      -1.8856274371403738 [Eh]
	 Total Energy              =    -748.7764863031453615 [Eh]

	 ================> DF-SCS-MP2 Energies <==================
	-----------------------------------------------------------
	 SCS Same-Spin Scale       =       0.3333333333333333 [-]
	 SCS Opposite-Spin Scale   =       1.2000000000000000 [-]
	 SCS Same-Spin Energy      =      -0.1424226282400572 [Eh]
	 SCS Opposite-Spin Energy  =      -1.7500314629042426 [Eh]
	 SCS Correlation Energy    =      -1.8924540911442997 [Eh]
	 SCS Total Energy          =    -748.7833129571492918 [Eh]
	-----------------------------------------------------------

  Dipole Moment: [D]
     X:    -0.0546      Y:     2.8802      Z:    -2.2805     Total:     3.6741

*** Psi4 exiting successfully. Buy a developer a beer!
