                               Psi4 1.4a3.dev225

  ==> Input File <==

--------------------------------------------------------------------------
#psi4
#
memory 32 gb

molecule  {
0 1
  S       -0.2613620    -0.5930190    -0.1424790
  O       -0.2870700    -1.2499240     1.2262220
  C        2.3366475     0.0148784     0.3208287
  C        1.0261530     0.6905850    -0.0782140
  C       -1.6743200     0.5466190    -0.2136450
  C        2.8653030    -0.7972080    -0.9817560
  C        3.4104270     1.1761770     0.4821660
  C       -2.9771600    -0.2389800    -0.1306750
  C       -4.1937400     0.6821530    -0.1120660
  H        2.2947170    -0.5588030     1.0765090
  H        0.7552030     1.3745990     0.7353710
  H        1.0111040     1.2381230    -1.0301620
  H       -1.5863530     1.2355690     0.6350930
  H       -1.6018540     1.1165020    -1.1483330
  H        2.9531350    -0.1978260    -1.8953020
  H        3.8477320    -1.2283710    -0.7670690
  H        2.1762820    -1.6227130    -1.1817050
  H        3.5229730     1.8417250    -0.3809710
  H        4.3924350     0.7485930     0.7071400
  H        3.0997810     1.7802300     1.3402560
  H       -3.0432920    -0.9285740    -0.9804800
  H       -2.9504610    -0.8515990     0.7760110
  H       -4.1584820     1.3575060     0.7479640
  H       -4.2413300     1.2926870    -1.0190020
  H       -5.1195520     0.1037900    -0.0468840
units angstrom
no_reorient  #important for SAPT in psi4, default
symmetry c1  #important for SAPT in psi4, default
}

set PROPERTIES_ORIGIN ["COM"]
properties('MP2/aug-cc-pvtz', properties = ['dipole'])
--------------------------------------------------------------------------

    Molecular point group: c1
  Charge       = 0
  Multiplicity = 1
  Basis Set: AUG-CC-PVTZ
    Blend: AUG-CC-PVTZ
  Basis Set: (AUG-CC-PVTZ AUX)
    Blend: AUG-CC-PVTZ-JKFIT

    Orbital Energies [Eh]
    ---------------------

    Doubly Occupied:

       1A    -92.056318     2A    -20.497907     3A    -11.261708
       4A    -11.260961     5A    -11.235945     6A    -11.232903
       7A    -11.223611     8A    -11.223359     9A    -11.220009
      10A     -9.043971    11A     -6.725588    12A     -6.725328
      13A     -6.724068    14A     -1.317672    15A     -1.104406
      16A     -1.082211    17A     -1.003452    18A     -0.939431
      19A     -0.925223    20A     -0.848520    21A     -0.808139
      22A     -0.792592    23A     -0.662675    24A     -0.644547
      25A     -0.628636    26A     -0.611599    27A     -0.589307
      28A     -0.585438    29A     -0.563917    30A     -0.555790
      31A     -0.545209    32A     -0.530990    33A     -0.521717
      34A     -0.512168    35A     -0.504852    36A     -0.498466
      37A     -0.485412    38A     -0.468526    39A     -0.443922
      40A     -0.401322    41A     -0.358842

  @DF-RHF Final Energy:  -746.86087025354686

   => Energetics <=

    Nuclear Repulsion Energy =            575.0118060009176588
    One-Electron Energy =               -2165.0120367268191330
    Two-Electron Energy =                 843.1393604723546105
    Total Energy =                       -746.8608702535468638
  Basis Set: (AUG-CC-PVTZ AUX)
    Blend: AUG-CC-PVTZ-RI
    Molecular point group: c1

    Geometry (in Angstrom), charge = 0, multiplicity = 1:

       Center              X                  Y                   Z               Mass
    ------------   -----------------  -----------------  -----------------  -----------------
         S           -0.247413925381    -0.543672010463    -0.169806848281    31.972071174400
         O           -0.273121925381    -1.200577010463     1.198894151719    15.994914619570
         C            2.350595574619     0.064225389537     0.293500851719    12.000000000000
         C            1.040101074619     0.739931989537    -0.105541848281    12.000000000000
         C           -1.660371925381     0.595965989537    -0.240972848281    12.000000000000
         C            2.879251074619    -0.747861010463    -1.009083848281    12.000000000000
         C            3.424375074619     1.225523989537     0.454838151719    12.000000000000
         C           -2.963211925381    -0.189633010463    -0.158002848281    12.000000000000
         C           -4.179791925381     0.731499989537    -0.139393848281    12.000000000000
         H            2.308665074619    -0.509456010463     1.049181151719     1.007825032230
         H            0.769151074619     1.423945989537     0.708043151719     1.007825032230
         H            1.025052074619     1.287469989537    -1.057489848281     1.007825032230
         H           -1.572404925381     1.284915989537     0.607765151719     1.007825032230
         H           -1.587905925381     1.165848989537    -1.175660848281     1.007825032230
         H            2.967083074619    -0.148479010463    -1.922629848281     1.007825032230
         H            3.861680074619    -1.179024010463    -0.794396848281     1.007825032230
         H            2.190230074619    -1.573366010463    -1.209032848281     1.007825032230
         H            3.536921074619     1.891071989537    -0.408298848281     1.007825032230
         H            4.406383074619     0.797939989537     0.679812151719     1.007825032230
         H            3.113729074619     1.829576989537     1.312928151719     1.007825032230
         H           -3.029343925381    -0.879227010463    -1.007807848281     1.007825032230
         H           -2.936512925381    -0.802252010463     0.748683151719     1.007825032230
         H           -4.144533925381     1.406852989537     0.720636151719     1.007825032230
         H           -4.227381925381     1.342033989537    -1.046329848281     1.007825032230
         H           -5.105603925381     0.153136989537    -0.074211848281     1.007825032230

  Basis Set: AUG-CC-PVTZ
    Blend: AUG-CC-PVTZ
  Basis Set: (AUG-CC-PVTZ AUX)
    Blend: AUG-CC-PVTZ-JKFIT
	 Reference Energy          =    -746.8608702535468638 [Eh]
	 Singles Energy            =      -0.0000000000000000 [Eh]
	 Same-Spin Energy          =      -0.4269772224676511 [Eh]
	 Opposite-Spin Energy      =      -1.4590952200650704 [Eh]
	 Correlation Energy        =      -1.8860724425327215 [Eh]
	 Total Energy              =    -748.7469426960796000 [Eh]

	 ================> DF-SCS-MP2 Energies <==================
	-----------------------------------------------------------
	 SCS Same-Spin Scale       =       0.3333333333333333 [-]
	 SCS Opposite-Spin Scale   =       1.2000000000000000 [-]
	 SCS Same-Spin Energy      =      -0.1423257408225504 [Eh]
	 SCS Opposite-Spin Energy  =      -1.7509142640780844 [Eh]
	 SCS Correlation Energy    =      -1.8932400049006348 [Eh]
	 SCS Total Energy          =    -748.7541102584475539 [Eh]
	-----------------------------------------------------------

  Dipole Moment: [D]
     X:    -0.0368      Y:     2.9258      Z:    -2.2757     Total:     3.7068

*** Psi4 exiting successfully. Buy a developer a beer!
