                               Psi4 1.4a3.dev225

  ==> Input File <==

--------------------------------------------------------------------------
#psi4
#
memory 32 gb

molecule  {
0 1
  S       -0.3066181    -0.6486063    -0.2470764
  O       -0.2870700    -1.2499240     1.2262220
  C        2.3977240     0.0716980     0.1844310
  C        1.0261530     0.6905850    -0.0782140
  C       -1.6743200     0.5466190    -0.2136450
  C        2.8653030    -0.7972080    -0.9817560
  C        3.4104270     1.1761770     0.4821660
  C       -2.9771600    -0.2389800    -0.1306750
  C       -4.1937400     0.6821530    -0.1120660
  H        2.2947170    -0.5588030     1.0765090
  H        0.7552030     1.3745990     0.7353710
  H        1.0111040     1.2381230    -1.0301620
  H       -1.5863530     1.2355690     0.6350930
  H       -1.6018540     1.1165020    -1.1483330
  H        2.9531350    -0.1978260    -1.8953020
  H        3.8477320    -1.2283710    -0.7670690
  H        2.1762820    -1.6227130    -1.1817050
  H        3.5229730     1.8417250    -0.3809710
  H        4.3924350     0.7485930     0.7071400
  H        3.0997810     1.7802300     1.3402560
  H       -3.0432920    -0.9285740    -0.9804800
  H       -2.9504610    -0.8515990     0.7760110
  H       -4.1584820     1.3575060     0.7479640
  H       -4.2413300     1.2926870    -1.0190020
  H       -5.1195520     0.1037900    -0.0468840
units angstrom
no_reorient  #important for SAPT in psi4, default
symmetry c1  #important for SAPT in psi4, default
}

set PROPERTIES_ORIGIN ["COM"]
properties('MP2/aug-cc-pvtz', properties = ['dipole'])
--------------------------------------------------------------------------

    Molecular point group: c1
  Charge       = 0
  Multiplicity = 1
  Basis Set: AUG-CC-PVTZ
    Blend: AUG-CC-PVTZ
  Basis Set: (AUG-CC-PVTZ AUX)
    Blend: AUG-CC-PVTZ-JKFIT

    Orbital Energies [Eh]
    ---------------------

    Doubly Occupied:

       1A    -92.062740     2A    -20.493375     3A    -11.266804
       4A    -11.265210     5A    -11.236319     6A    -11.233568
       7A    -11.223883     8A    -11.220990     9A    -11.218083
      10A     -9.049484    11A     -6.730845    12A     -6.730460
      13A     -6.729233    14A     -1.277394    15A     -1.104245
      16A     -1.086248    17A     -1.002111    18A     -0.938794
      19A     -0.937107    20A     -0.848982    21A     -0.803951
      22A     -0.773408    23A     -0.662021    24A     -0.645379
      25A     -0.625258    26A     -0.609022    27A     -0.590722
      28A     -0.583854    29A     -0.564637    30A     -0.549033
      31A     -0.542729    32A     -0.528532    33A     -0.509862
      34A     -0.500134    35A     -0.496310    36A     -0.484368
      37A     -0.477723    38A     -0.472033    39A     -0.468381
      40A     -0.391430    41A     -0.368255

  @DF-RHF Final Energy:  -746.87644163923972

   => Energetics <=

    Nuclear Repulsion Energy =            571.3141529024466081
    One-Electron Energy =               -2157.7753551709138264
    Two-Electron Energy =                 839.5847606292276168
    Total Energy =                       -746.8764416392397152
  Basis Set: (AUG-CC-PVTZ AUX)
    Blend: AUG-CC-PVTZ-RI
    Molecular point group: c1

    Geometry (in Angstrom), charge = 0, multiplicity = 1:

       Center              X                  Y                   Z               Mass
    ------------   -----------------  -----------------  -----------------  -----------------
         S           -0.287848614690    -0.591862526478    -0.240770009760    31.972071174400
         O           -0.268300514690    -1.193180226478     1.232528390240    15.994914619570
         C            2.416493485310     0.128441773522     0.190737390240    12.000000000000
         C            1.044922485310     0.747328773522    -0.071907609760    12.000000000000
         C           -1.655550514690     0.603362773522    -0.207338609760    12.000000000000
         C            2.884072485310    -0.740464226478    -0.975449609760    12.000000000000
         C            3.429196485310     1.232920773522     0.488472390240    12.000000000000
         C           -2.958390514690    -0.182236226478    -0.124368609760    12.000000000000
         C           -4.174970514690     0.738896773522    -0.105759609760    12.000000000000
         H            2.313486485310    -0.502059226478     1.082815390240     1.007825032230
         H            0.773972485310     1.431342773522     0.741677390240     1.007825032230
         H            1.029873485310     1.294866773522    -1.023855609760     1.007825032230
         H           -1.567583514690     1.292312773522     0.641399390240     1.007825032230
         H           -1.583084514690     1.173245773522    -1.142026609760     1.007825032230
         H            2.971904485310    -0.141082226478    -1.888995609760     1.007825032230
         H            3.866501485310    -1.171627226478    -0.760762609760     1.007825032230
         H            2.195051485310    -1.565969226478    -1.175398609760     1.007825032230
         H            3.541742485310     1.898468773522    -0.374664609760     1.007825032230
         H            4.411204485310     0.805336773522     0.713446390240     1.007825032230
         H            3.118550485310     1.836973773522     1.346562390240     1.007825032230
         H           -3.024522514690    -0.871830226478    -0.974173609760     1.007825032230
         H           -2.931691514690    -0.794855226478     0.782317390240     1.007825032230
         H           -4.139712514690     1.414249773522     0.754270390240     1.007825032230
         H           -4.222560514690     1.349430773522    -1.012695609760     1.007825032230
         H           -5.100782514690     0.160533773522    -0.040577609760     1.007825032230

  Basis Set: AUG-CC-PVTZ
    Blend: AUG-CC-PVTZ
  Basis Set: (AUG-CC-PVTZ AUX)
    Blend: AUG-CC-PVTZ-JKFIT
	 Reference Energy          =    -746.8764416392397152 [Eh]
	 Singles Energy            =      -0.0000000000000000 [Eh]
	 Same-Spin Energy          =      -0.4279986116100222 [Eh]
	 Opposite-Spin Energy      =      -1.4621328479139704 [Eh]
	 Correlation Energy        =      -1.8901314595239926 [Eh]
	 Total Energy              =    -748.7665730987637289 [Eh]

	 ================> DF-SCS-MP2 Energies <==================
	-----------------------------------------------------------
	 SCS Same-Spin Scale       =       0.3333333333333333 [-]
	 SCS Opposite-Spin Scale   =       1.2000000000000000 [-]
	 SCS Same-Spin Energy      =      -0.1426662038700074 [Eh]
	 SCS Opposite-Spin Energy  =      -1.7545594174967645 [Eh]
	 SCS Correlation Energy    =      -1.8972256213667720 [Eh]
	 SCS Total Energy          =    -748.7736672606065440 [Eh]
	-----------------------------------------------------------

  Dipole Moment: [D]
     X:    -0.1592      Y:     2.9464      Z:    -2.5613     Total:     3.9073

*** Psi4 exiting successfully. Buy a developer a beer!
