                               Psi4 1.4a3.dev225

  ==> Input File <==

--------------------------------------------------------------------------
#psi4
#
memory 32 gb

molecule  {
0 1
  S       -0.2613620    -0.5930190    -0.1424790
  O       -0.2870700    -1.2499240     1.2262220
  C        2.3977240     0.0716980     0.1844310
  C        1.0261530     0.6905850    -0.0782140
  C       -1.6743200     0.5466190    -0.2136450
  C        2.8653030    -0.7972080    -0.9817560
  C        3.4104270     1.1761770     0.4821660
  C       -2.9771600    -0.2389800    -0.1306750
  C       -4.1937400     0.6821530    -0.1120660
  H        2.2947170    -0.5588030     1.0765090
  H        0.7552030     1.3745990     0.7353710
  H        1.0111040     1.2381230    -1.0301620
  H       -1.5863530     1.2355690     0.6350930
  H       -1.6018540     1.1165020    -1.1483330
  H        2.9531350    -0.1978260    -1.8953020
  H        3.8477320    -1.2283710    -0.7670690
  H        2.1762820    -1.6227130    -1.1817050
  H        3.5229730     1.8417250    -0.3809710
  H        4.3895250     0.7842471     0.7746366
  H        3.0997810     1.7802300     1.3402560
  H       -3.0432920    -0.9285740    -0.9804800
  H       -2.9504610    -0.8515990     0.7760110
  H       -4.1584820     1.3575060     0.7479640
  H       -4.2413300     1.2926870    -1.0190020
  H       -5.1195520     0.1037900    -0.0468840
units angstrom
no_reorient  #important for SAPT in psi4, default
symmetry c1  #important for SAPT in psi4, default
}

set PROPERTIES_ORIGIN ["COM"]
properties('MP2/aug-cc-pvtz', properties = ['dipole'])
--------------------------------------------------------------------------

    Molecular point group: c1
  Charge       = 0
  Multiplicity = 1
  Basis Set: AUG-CC-PVTZ
    Blend: AUG-CC-PVTZ
  Basis Set: (AUG-CC-PVTZ AUX)
    Blend: AUG-CC-PVTZ-JKFIT

    Orbital Energies [Eh]
    ---------------------

    Doubly Occupied:

       1A    -92.057735     2A    -20.497535     3A    -11.261823
       4A    -11.259996     5A    -11.238142     6A    -11.233535
       7A    -11.223792     8A    -11.220901     9A    -11.217604
      10A     -9.045184    11A     -6.726781    12A     -6.726595
      13A     -6.725308    14A     -1.317192    15A     -1.109543
      16A     -1.085055    17A     -1.007554    18A     -0.941855
      19A     -0.937524    20A     -0.845756    21A     -0.800328
      22A     -0.773113    23A     -0.664752    24A     -0.650292
      25A     -0.629871    26A     -0.609165    27A     -0.592461
      28A     -0.588407    29A     -0.566660    30A     -0.554371
      31A     -0.546274    32A     -0.531618    33A     -0.514062
      34A     -0.506218    35A     -0.499399    36A     -0.486262
      37A     -0.479846    38A     -0.475781    39A     -0.472222
      40A     -0.403802    41A     -0.359443

  @DF-RHF Final Energy:  -746.89113295535037

   => Energetics <=

    Nuclear Repulsion Energy =            575.2097591924267590
    One-Electron Energy =               -2165.4342699811581952
    Two-Electron Energy =                 843.3333778333811779
    Total Energy =                       -746.8911329553503720
  Basis Set: (AUG-CC-PVTZ AUX)
    Blend: AUG-CC-PVTZ-RI
    Molecular point group: c1

    Geometry (in Angstrom), charge = 0, multiplicity = 1:

       Center              X                  Y                   Z               Mass
    ------------   -----------------  -----------------  -----------------  -----------------
         S           -0.252343187669    -0.548518777280    -0.159213800289    31.972071174400
         O           -0.278051187669    -1.205423777280     1.209487199711    15.994914619570
         C            2.406742812331     0.116198222720     0.167696199711    12.000000000000
         C            1.035171812331     0.735085222720    -0.094948800289    12.000000000000
         C           -1.665301187669     0.591119222720    -0.230379800289    12.000000000000
         C            2.874321812331    -0.752707777280    -0.998490800289    12.000000000000
         C            3.419445812331     1.220677222720     0.465431199711    12.000000000000
         C           -2.968141187669    -0.194479777280    -0.147409800289    12.000000000000
         C           -4.184721187669     0.726653222720    -0.128800800289    12.000000000000
         H            2.303735812331    -0.514302777280     1.059774199711     1.007825032230
         H            0.764221812331     1.419099222720     0.718636199711     1.007825032230
         H            1.020122812331     1.282623222720    -1.046896800289     1.007825032230
         H           -1.577334187669     1.280069222720     0.618358199711     1.007825032230
         H           -1.592835187669     1.161002222720    -1.165067800289     1.007825032230
         H            2.962153812331    -0.153325777280    -1.912036800289     1.007825032230
         H            3.856750812331    -1.183870777280    -0.783803800289     1.007825032230
         H            2.185300812331    -1.578212777280    -1.198439800289     1.007825032230
         H            3.531991812331     1.886225222720    -0.397705800289     1.007825032230
         H            4.398543812331     0.828747322720     0.757901799711     1.007825032230
         H            3.108799812331     1.824730222720     1.323521199711     1.007825032230
         H           -3.034273187669    -0.884073777280    -0.997214800289     1.007825032230
         H           -2.941442187669    -0.807098777280     0.759276199711     1.007825032230
         H           -4.149463187669     1.402006222720     0.731229199711     1.007825032230
         H           -4.232311187669     1.337187222720    -1.035736800289     1.007825032230
         H           -5.110533187669     0.148290222720    -0.063618800289     1.007825032230

  Basis Set: AUG-CC-PVTZ
    Blend: AUG-CC-PVTZ
  Basis Set: (AUG-CC-PVTZ AUX)
    Blend: AUG-CC-PVTZ-JKFIT
	 Reference Energy          =    -746.8911329553503720 [Eh]
	 Singles Energy            =      -0.0000000000000000 [Eh]
	 Same-Spin Energy          =      -0.4272539808709045 [Eh]
	 Opposite-Spin Energy      =      -1.4582114556009669 [Eh]
	 Correlation Energy        =      -1.8854654364718715 [Eh]
	 Total Energy              =    -748.7765983918222901 [Eh]

	 ================> DF-SCS-MP2 Energies <==================
	-----------------------------------------------------------
	 SCS Same-Spin Scale       =       0.3333333333333333 [-]
	 SCS Opposite-Spin Scale   =       1.2000000000000000 [-]
	 SCS Same-Spin Energy      =      -0.1424179936236348 [Eh]
	 SCS Opposite-Spin Energy  =      -1.7498537467211601 [Eh]
	 SCS Correlation Energy    =      -1.8922717403447948 [Eh]
	 SCS Total Energy          =    -748.7834046956951397 [Eh]
	-----------------------------------------------------------

  Dipole Moment: [D]
     X:    -0.0566      Y:     2.8914      Z:    -2.2531     Total:     3.6660

*** Psi4 exiting successfully. Buy a developer a beer!
