                               Psi4 1.4a3.dev225

  ==> Input File <==

--------------------------------------------------------------------------
#psi4
#
memory 32 gb

molecule  {
0 1
  S       -0.2613620    -0.5930190    -0.1424790
  O       -0.2870700    -1.2499240     1.2262220
  C        2.3977240     0.0716980     0.1844310
  C        1.0261530     0.6905850    -0.0782140
  C       -1.6743200     0.5466190    -0.2136450
  C        2.8653030    -0.7972080    -0.9817560
  C        3.4104270     1.1761770     0.4821660
  C       -2.9771600    -0.2389800    -0.1306750
  C       -4.1937400     0.6821530    -0.1120660
  H        2.2947170    -0.5588030     1.0765090
  H        0.7552030     1.3745990     0.7353710
  H        1.0111040     1.2381230    -1.0301620
  H       -1.5863530     1.2355690     0.6350930
  H       -1.6018540     1.1165020    -1.1483330
  H        2.9531350    -0.1978260    -1.8953020
  H        3.8477320    -1.2283710    -0.7670690
  H        2.1636822    -1.6378086    -1.1853614
  H        3.5229730     1.8417250    -0.3809710
  H        4.3924350     0.7485930     0.7071400
  H        3.0997810     1.7802300     1.3402560
  H       -3.0432920    -0.9285740    -0.9804800
  H       -2.9504610    -0.8515990     0.7760110
  H       -4.1584820     1.3575060     0.7479640
  H       -4.2413300     1.2926870    -1.0190020
  H       -5.1195520     0.1037900    -0.0468840
units angstrom
no_reorient  #important for SAPT in psi4, default
symmetry c1  #important for SAPT in psi4, default
}

set PROPERTIES_ORIGIN ["COM"]
properties('MP2/aug-cc-pvtz', properties = ['dipole'])
--------------------------------------------------------------------------

    Molecular point group: c1
  Charge       = 0
  Multiplicity = 1
  Basis Set: AUG-CC-PVTZ
    Blend: AUG-CC-PVTZ
  Basis Set: (AUG-CC-PVTZ AUX)
    Blend: AUG-CC-PVTZ-JKFIT

    Orbital Energies [Eh]
    ---------------------

    Doubly Occupied:

       1A    -92.057517     2A    -20.497411     3A    -11.261671
       4A    -11.259856     5A    -11.237947     6A    -11.233435
       7A    -11.223720     8A    -11.221249     9A    -11.220188
      10A     -9.044976    11A     -6.726572    12A     -6.726384
      13A     -6.725098    14A     -1.317058    15A     -1.109561
      16A     -1.084998    17A     -1.007570    18A     -0.941844
      19A     -0.935933    20A     -0.845560    21A     -0.800121
      22A     -0.772714    23A     -0.664429    24A     -0.649084
      25A     -0.629517    26A     -0.610789    27A     -0.592082
      28A     -0.587937    29A     -0.566132    30A     -0.554181
      31A     -0.545005    32A     -0.533192    33A     -0.513385
      34A     -0.506397    35A     -0.499381    36A     -0.486043
      37A     -0.479128    38A     -0.475742    39A     -0.472618
      40A     -0.403452    41A     -0.359241

  @DF-RHF Final Energy:  -746.89111343651496

   => Energetics <=

    Nuclear Repulsion Energy =            575.2006212457279162
    One-Electron Energy =               -2165.4252387831475062
    Two-Electron Energy =                 843.3335041009046336
    Total Energy =                       -746.8911134365149564
  Basis Set: (AUG-CC-PVTZ AUX)
    Blend: AUG-CC-PVTZ-RI
    Molecular point group: c1

    Geometry (in Angstrom), charge = 0, multiplicity = 1:

       Center              X                  Y                   Z               Mass
    ------------   -----------------  -----------------  -----------------  -----------------
         S           -0.252277244804    -0.548173405797    -0.158729576399    31.972071174400
         O           -0.277985244804    -1.205078405797     1.209971423601    15.994914619570
         C            2.406808755196     0.116543594203     0.168180423601    12.000000000000
         C            1.035237755196     0.735430594203    -0.094464576399    12.000000000000
         C           -1.665235244804     0.591464594203    -0.229895576399    12.000000000000
         C            2.874387755196    -0.752362405797    -0.998006576399    12.000000000000
         C            3.419511755196     1.221022594203     0.465915423601    12.000000000000
         C           -2.968075244804    -0.194134405797    -0.146925576399    12.000000000000
         C           -4.184655244804     0.726998594203    -0.128316576399    12.000000000000
         H            2.303801755196    -0.513957405797     1.060258423601     1.007825032230
         H            0.764287755196     1.419444594203     0.719120423601     1.007825032230
         H            1.020188755196     1.282968594203    -1.046412576399     1.007825032230
         H           -1.577268244804     1.280414594203     0.618842423601     1.007825032230
         H           -1.592769244804     1.161347594203    -1.164583576399     1.007825032230
         H            2.962219755196    -0.152980405797    -1.911552576399     1.007825032230
         H            3.856816755196    -1.183525405797    -0.783319576399     1.007825032230
         H            2.172766955196    -1.592963005797    -1.201611976399     1.007825032230
         H            3.532057755196     1.886570594203    -0.397221576399     1.007825032230
         H            4.401519755196     0.793438594203     0.690889423601     1.007825032230
         H            3.108865755196     1.825075594203     1.324005423601     1.007825032230
         H           -3.034207244804    -0.883728405797    -0.996730576399     1.007825032230
         H           -2.941376244804    -0.806753405797     0.759760423601     1.007825032230
         H           -4.149397244804     1.402351594203     0.731713423601     1.007825032230
         H           -4.232245244804     1.337532594203    -1.035252576399     1.007825032230
         H           -5.110467244804     0.148635594203    -0.063134576399     1.007825032230

  Basis Set: AUG-CC-PVTZ
    Blend: AUG-CC-PVTZ
  Basis Set: (AUG-CC-PVTZ AUX)
    Blend: AUG-CC-PVTZ-JKFIT
	 Reference Energy          =    -746.8911134365149564 [Eh]
	 Singles Energy            =      -0.0000000000000000 [Eh]
	 Same-Spin Energy          =      -0.4272801661003531 [Eh]
	 Opposite-Spin Energy      =      -1.4583881197792450 [Eh]
	 Correlation Energy        =      -1.8856682858795981 [Eh]
	 Total Energy              =    -748.7767817223945030 [Eh]

	 ================> DF-SCS-MP2 Energies <==================
	-----------------------------------------------------------
	 SCS Same-Spin Scale       =       0.3333333333333333 [-]
	 SCS Opposite-Spin Scale   =       1.2000000000000000 [-]
	 SCS Same-Spin Energy      =      -0.1424267220334510 [Eh]
	 SCS Opposite-Spin Energy  =      -1.7500657437350939 [Eh]
	 SCS Correlation Energy    =      -1.8924924657685449 [Eh]
	 SCS Total Energy          =    -748.7836059022835116 [Eh]
	-----------------------------------------------------------

  Dipole Moment: [D]
     X:    -0.0463      Y:     2.8951      Z:    -2.2740     Total:     3.6816

*** Psi4 exiting successfully. Buy a developer a beer!
