                               Psi4 1.4a3.dev225

  ==> Input File <==

--------------------------------------------------------------------------
#psi4
#
memory 32 gb

molecule  {
0 1
  S       -0.2613620    -0.5930190    -0.1424790
  O       -0.2870700    -1.2499240     1.2262220
  C        2.3977240     0.0716980     0.1844310
  C        1.0365883     0.7148016    -0.0742926
  C       -1.6743200     0.5466190    -0.2136450
  C        2.8653030    -0.7972080    -0.9817560
  C        3.4104270     1.1761770     0.4821660
  C       -2.9771600    -0.2389800    -0.1306750
  C       -4.1937400     0.6821530    -0.1120660
  H        2.2947170    -0.5588030     1.0765090
  H        0.7552030     1.3745990     0.7353710
  H        1.0111040     1.2381230    -1.0301620
  H       -1.5863530     1.2355690     0.6350930
  H       -1.6018540     1.1165020    -1.1483330
  H        2.9531350    -0.1978260    -1.8953020
  H        3.8477320    -1.2283710    -0.7670690
  H        2.1762820    -1.6227130    -1.1817050
  H        3.5229730     1.8417250    -0.3809710
  H        4.3924350     0.7485930     0.7071400
  H        3.0997810     1.7802300     1.3402560
  H       -3.0432920    -0.9285740    -0.9804800
  H       -2.9504610    -0.8515990     0.7760110
  H       -4.1584820     1.3575060     0.7479640
  H       -4.2413300     1.2926870    -1.0190020
  H       -5.1195520     0.1037900    -0.0468840
units angstrom
no_reorient  #important for SAPT in psi4, default
symmetry c1  #important for SAPT in psi4, default
}

set PROPERTIES_ORIGIN ["COM"]
properties('MP2/aug-cc-pvtz', properties = ['dipole'])
--------------------------------------------------------------------------

    Molecular point group: c1
  Charge       = 0
  Multiplicity = 1
  Basis Set: AUG-CC-PVTZ
    Blend: AUG-CC-PVTZ
  Basis Set: (AUG-CC-PVTZ AUX)
    Blend: AUG-CC-PVTZ-JKFIT

    Orbital Energies [Eh]
    ---------------------

    Doubly Occupied:

       1A    -92.057059     2A    -20.497474     3A    -11.261397
       4A    -11.259379     5A    -11.237666     6A    -11.233201
       7A    -11.223545     8A    -11.220669     9A    -11.218118
      10A     -9.044337    11A     -6.725895    12A     -6.725701
      13A     -6.724441    14A     -1.316351    15A     -1.109057
      16A     -1.084829    17A     -1.005783    18A     -0.941898
      19A     -0.937243    20A     -0.845300    21A     -0.799291
      22A     -0.774509    23A     -0.665287    24A     -0.649602
      25A     -0.628744    26A     -0.611425    27A     -0.592945
      28A     -0.588007    29A     -0.566481    30A     -0.554252
      31A     -0.545307    32A     -0.533221    33A     -0.513626
      34A     -0.507127    35A     -0.499231    36A     -0.485822
      37A     -0.481182    38A     -0.476284    39A     -0.472704
      40A     -0.400959    41A     -0.358513

  @DF-RHF Final Energy:  -746.89117799865005

   => Energetics <=

    Nuclear Repulsion Energy =            574.8480502396564589
    One-Electron Energy =               -2164.7307285106512609
    Two-Electron Energy =                 842.9915002723447515
    Total Energy =                       -746.8911779986500505
  Basis Set: (AUG-CC-PVTZ AUX)
    Blend: AUG-CC-PVTZ-RI
    Molecular point group: c1

    Geometry (in Angstrom), charge = 0, multiplicity = 1:

       Center              X                  Y                   Z               Mass
    ------------   -----------------  -----------------  -----------------  -----------------
         S           -0.253208570064    -0.550238423075    -0.159072213054    31.972071174400
         O           -0.278916570064    -1.207143423075     1.209628786946    15.994914619570
         C            2.405877429936     0.114478576925     0.167837786946    12.000000000000
         C            1.044741729936     0.757582176925    -0.090885813054    12.000000000000
         C           -1.666166570064     0.589399576925    -0.230238213054    12.000000000000
         C            2.873456429936    -0.754427423075    -0.998349213054    12.000000000000
         C            3.418580429936     1.218957576925     0.465572786946    12.000000000000
         C           -2.969006570064    -0.196199423075    -0.147268213054    12.000000000000
         C           -4.185586570064     0.724933576925    -0.128659213054    12.000000000000
         H            2.302870429936    -0.516022423075     1.059915786946     1.007825032230
         H            0.763356429936     1.417379576925     0.718777786946     1.007825032230
         H            1.019257429936     1.280903576925    -1.046755213054     1.007825032230
         H           -1.578199570064     1.278349576925     0.618499786946     1.007825032230
         H           -1.593700570064     1.159282576925    -1.164926213054     1.007825032230
         H            2.961288429936    -0.155045423075    -1.911895213054     1.007825032230
         H            3.855885429936    -1.185590423075    -0.783662213054     1.007825032230
         H            2.184435429936    -1.579932423075    -1.198298213054     1.007825032230
         H            3.531126429936     1.884505576925    -0.397564213054     1.007825032230
         H            4.400588429936     0.791373576925     0.690546786946     1.007825032230
         H            3.107934429936     1.823010576925     1.323662786946     1.007825032230
         H           -3.035138570064    -0.885793423075    -0.997073213054     1.007825032230
         H           -2.942307570064    -0.808818423075     0.759417786946     1.007825032230
         H           -4.150328570064     1.400286576925     0.731370786946     1.007825032230
         H           -4.233176570064     1.335467576925    -1.035595213054     1.007825032230
         H           -5.111398570064     0.146570576925    -0.063477213054     1.007825032230

  Basis Set: AUG-CC-PVTZ
    Blend: AUG-CC-PVTZ
  Basis Set: (AUG-CC-PVTZ AUX)
    Blend: AUG-CC-PVTZ-JKFIT
	 Reference Energy          =    -746.8911779986500505 [Eh]
	 Singles Energy            =      -0.0000000000000000 [Eh]
	 Same-Spin Energy          =      -0.4272300394281114 [Eh]
	 Opposite-Spin Energy      =      -1.4583760219447712 [Eh]
	 Correlation Energy        =      -1.8856060613728827 [Eh]
	 Total Energy              =    -748.7767840600229192 [Eh]

	 ================> DF-SCS-MP2 Energies <==================
	-----------------------------------------------------------
	 SCS Same-Spin Scale       =       0.3333333333333333 [-]
	 SCS Opposite-Spin Scale   =       1.2000000000000000 [-]
	 SCS Same-Spin Energy      =      -0.1424100131427038 [Eh]
	 SCS Opposite-Spin Energy  =      -1.7500512263337253 [Eh]
	 SCS Correlation Energy    =      -1.8924612394764291 [Eh]
	 SCS Total Energy          =    -748.7836392381265114 [Eh]
	-----------------------------------------------------------

  Dipole Moment: [D]
     X:    -0.0605      Y:     2.8706      Z:    -2.2752     Total:     3.6634

*** Psi4 exiting successfully. Buy a developer a beer!
