                               Psi4 1.4a3.dev225

  ==> Input File <==

--------------------------------------------------------------------------
#psi4
#
memory 32 gb

molecule  {
0 1
  S       -0.2613620    -0.5930190    -0.1424790
  O       -0.2870700    -1.2499240     1.2262220
  C        2.3977240     0.0716980     0.1844310
  C        1.0261530     0.6905850    -0.0782140
  C       -1.6743200     0.5466190    -0.2136450
  C        2.8653030    -0.7972080    -0.9817560
  C        3.4104270     1.1761770     0.4821660
  C       -2.9771600    -0.2389800    -0.1306750
  C       -4.1937400     0.6821530    -0.1120660
  H        2.2947170    -0.5588030     1.0765090
  H        0.7552030     1.3745990     0.7353710
  H        1.0111040     1.2381230    -1.0301620
  H       -1.5863530     1.2355690     0.6350930
  H       -1.6018540     1.1165020    -1.1483330
  H        2.9531350    -0.1978260    -1.8953020
  H        3.8477320    -1.2283710    -0.7670690
  H        2.1762820    -1.6227130    -1.1817050
  H        3.5229730     1.8417250    -0.3809710
  H        4.3924350     0.7485930     0.7071400
  H        3.0997810     1.7802300     1.3402560
  H       -3.0432920    -0.9285740    -0.9804800
  H       -2.9504610    -0.8515990     0.7760110
  H       -4.1584820     1.3575060     0.7479640
  H       -4.2413300     1.2926870    -1.0190020
  H       -5.2042121     0.0509021    -0.0409235
units angstrom
no_reorient  #important for SAPT in psi4, default
symmetry c1  #important for SAPT in psi4, default
}

set PROPERTIES_ORIGIN ["COM"]
properties('MP2/aug-cc-pvtz', properties = ['dipole'])
--------------------------------------------------------------------------

    Molecular point group: c1
  Charge       = 0
  Multiplicity = 1
  Basis Set: AUG-CC-PVTZ
    Blend: AUG-CC-PVTZ
  Basis Set: (AUG-CC-PVTZ AUX)
    Blend: AUG-CC-PVTZ-JKFIT

    Orbital Energies [Eh]
    ---------------------

    Doubly Occupied:

       1A    -92.058276     2A    -20.497989     3A    -11.262576
       4A    -11.260311     5A    -11.238099     6A    -11.235744
       7A    -11.234396     8A    -11.221342     9A    -11.218090
      10A     -9.045718    11A     -6.727315    12A     -6.727127
      13A     -6.725839    14A     -1.317644    15A     -1.110040
      16A     -1.085032    17A     -1.006441    18A     -0.938959
      19A     -0.937474    20A     -0.842700    21A     -0.800441
      22A     -0.773271    23A     -0.665191    24A     -0.649850
      25A     -0.628337    26A     -0.611345    27A     -0.591458
      28A     -0.582864    29A     -0.567147    30A     -0.554088
      31A     -0.545161    32A     -0.532459    33A     -0.511598
      34A     -0.506837    35A     -0.495747    36A     -0.486504
      37A     -0.480367    38A     -0.474865    39A     -0.472180
      40A     -0.403708    41A     -0.359892

  @DF-RHF Final Energy:  -746.88518033732464

   => Energetics <=

    Nuclear Repulsion Energy =            574.8510766716601665
    One-Electron Energy =               -2164.7036708237706080
    Two-Electron Energy =                 842.9674138147858002
    Total Energy =                       -746.8851803373246412
  Basis Set: (AUG-CC-PVTZ AUX)
    Blend: AUG-CC-PVTZ-RI
    Molecular point group: c1

    Geometry (in Angstrom), charge = 0, multiplicity = 1:

       Center              X                  Y                   Z               Mass
    ------------   -----------------  -----------------  -----------------  -----------------
         S           -0.251786846384    -0.547916214469    -0.158795023150    31.972071174400
         O           -0.277494846384    -1.204821214469     1.209905976850    15.994914619570
         C            2.407299153616     0.116800785531     0.168114976850    12.000000000000
         C            1.035728153616     0.735687785531    -0.094530023150    12.000000000000
         C           -1.664744846384     0.591721785531    -0.229961023150    12.000000000000
         C            2.874878153616    -0.752105214469    -0.998072023150    12.000000000000
         C            3.420002153616     1.221279785531     0.465849976850    12.000000000000
         C           -2.967584846384    -0.193877214469    -0.146991023150    12.000000000000
         C           -4.184164846384     0.727255785531    -0.128382023150    12.000000000000
         H            2.304292153616    -0.513700214469     1.060192976850     1.007825032230
         H            0.764778153616     1.419701785531     0.719054976850     1.007825032230
         H            1.020679153616     1.283225785531    -1.046478023150     1.007825032230
         H           -1.576777846384     1.280671785531     0.618776976850     1.007825032230
         H           -1.592278846384     1.161604785531    -1.164649023150     1.007825032230
         H            2.962710153616    -0.152723214469    -1.911618023150     1.007825032230
         H            3.857307153616    -1.183268214469    -0.783385023150     1.007825032230
         H            2.185857153616    -1.577610214469    -1.198021023150     1.007825032230
         H            3.532548153616     1.886827785531    -0.397287023150     1.007825032230
         H            4.402010153616     0.793695785531     0.690823976850     1.007825032230
         H            3.109356153616     1.825332785531     1.323939976850     1.007825032230
         H           -3.033716846384    -0.883471214469    -0.996796023150     1.007825032230
         H           -2.940885846384    -0.806496214469     0.759694976850     1.007825032230
         H           -4.148906846384     1.402608785531     0.731647976850     1.007825032230
         H           -4.231754846384     1.337789785531    -1.035318023150     1.007825032230
         H           -5.194636946384     0.096004885531    -0.057239523150     1.007825032230

  Basis Set: AUG-CC-PVTZ
    Blend: AUG-CC-PVTZ
  Basis Set: (AUG-CC-PVTZ AUX)
    Blend: AUG-CC-PVTZ-JKFIT
	 Reference Energy          =    -746.8851803373246412 [Eh]
	 Singles Energy            =      -0.0000000000000000 [Eh]
	 Same-Spin Energy          =      -0.4272264445442432 [Eh]
	 Opposite-Spin Energy      =      -1.4589239945055748 [Eh]
	 Correlation Energy        =      -1.8861504390498181 [Eh]
	 Total Energy              =    -748.7713307763744979 [Eh]

	 ================> DF-SCS-MP2 Energies <==================
	-----------------------------------------------------------
	 SCS Same-Spin Scale       =       0.3333333333333333 [-]
	 SCS Opposite-Spin Scale   =       1.2000000000000000 [-]
	 SCS Same-Spin Energy      =      -0.1424088148480811 [Eh]
	 SCS Opposite-Spin Energy  =      -1.7507087934066896 [Eh]
	 SCS Correlation Energy    =      -1.8931176082547707 [Eh]
	 SCS Total Energy          =    -748.7782979455794248 [Eh]
	-----------------------------------------------------------

  Dipole Moment: [D]
     X:     0.0391      Y:     2.9023      Z:    -2.2790     Total:     3.6904

*** Psi4 exiting successfully. Buy a developer a beer!
