                               Psi4 1.4a3.dev225

  ==> Input File <==

--------------------------------------------------------------------------
#psi4
#
memory 32 gb

molecule  {
0 1
  S       -0.2613620    -0.5930190    -0.1424790
  O       -0.2870700    -1.2499240     1.2262220
  C        2.3977240     0.0716980     0.1844310
  C        1.0701090     0.6448135    -0.0759975
  C       -1.6743200     0.5466190    -0.2136450
  C        2.8653030    -0.7972080    -0.9817560
  C        3.4104270     1.1761770     0.4821660
  C       -2.9771600    -0.2389800    -0.1306750
  C       -4.1937400     0.6821530    -0.1120660
  H        2.2947170    -0.5588030     1.0765090
  H        0.7552030     1.3745990     0.7353710
  H        1.0111040     1.2381230    -1.0301620
  H       -1.5863530     1.2355690     0.6350930
  H       -1.6018540     1.1165020    -1.1483330
  H        2.9531350    -0.1978260    -1.8953020
  H        3.8477320    -1.2283710    -0.7670690
  H        2.1762820    -1.6227130    -1.1817050
  H        3.5229730     1.8417250    -0.3809710
  H        4.3924350     0.7485930     0.7071400
  H        3.0997810     1.7802300     1.3402560
  H       -3.0432920    -0.9285740    -0.9804800
  H       -2.9504610    -0.8515990     0.7760110
  H       -4.1584820     1.3575060     0.7479640
  H       -4.2413300     1.2926870    -1.0190020
  H       -5.1195520     0.1037900    -0.0468840
units angstrom
no_reorient  #important for SAPT in psi4, default
symmetry c1  #important for SAPT in psi4, default
}

set PROPERTIES_ORIGIN ["COM"]
properties('MP2/aug-cc-pvtz', properties = ['dipole'])
--------------------------------------------------------------------------

    Molecular point group: c1
  Charge       = 0
  Multiplicity = 1
  Basis Set: AUG-CC-PVTZ
    Blend: AUG-CC-PVTZ
  Basis Set: (AUG-CC-PVTZ AUX)
    Blend: AUG-CC-PVTZ-JKFIT

    Orbital Energies [Eh]
    ---------------------

    Doubly Occupied:

       1A    -92.057277     2A    -20.496248     3A    -11.263773
       4A    -11.262981     5A    -11.234652     6A    -11.234493
       7A    -11.224400     8A    -11.222004     9A    -11.217884
      10A     -9.044805    11A     -6.726387    12A     -6.726290
      13A     -6.724933    14A     -1.316537    15A     -1.116845
      16A     -1.086750    17A     -1.006256    18A     -0.942712
      19A     -0.938053    20A     -0.848791    21A     -0.801843
      22A     -0.770247    23A     -0.663822    24A     -0.651507
      25A     -0.630803    26A     -0.612540    27A     -0.593168
      28A     -0.586303    29A     -0.567052    30A     -0.552041
      31A     -0.544650    32A     -0.531461    33A     -0.515099
      34A     -0.504955    35A     -0.500495    36A     -0.487713
      37A     -0.483431    38A     -0.478547    39A     -0.468803
      40A     -0.404774    41A     -0.356454

  @DF-RHF Final Energy:  -746.88723178472958

   => Energetics <=

    Nuclear Repulsion Energy =            575.8048605970446943
    One-Electron Energy =               -2166.5886273827586592
    Two-Electron Energy =                 843.8965350009842723
    Total Energy =                       -746.8872317847295790
  Basis Set: (AUG-CC-PVTZ AUX)
    Blend: AUG-CC-PVTZ-RI
    Molecular point group: c1

    Geometry (in Angstrom), charge = 0, multiplicity = 1:

       Center              X                  Y                   Z               Mass
    ------------   -----------------  -----------------  -----------------  -----------------
         S           -0.255924772789    -0.544567244731    -0.158934063970    31.972071174400
         O           -0.281632772789    -1.201472244731     1.209766936030    15.994914619570
         C            2.403161227211     0.120149755269     0.167975936030    12.000000000000
         C            1.075546227211     0.693265255269    -0.092452563970    12.000000000000
         C           -1.668882772789     0.595070755269    -0.230100063970    12.000000000000
         C            2.870740227211    -0.748756244731    -0.998211063970    12.000000000000
         C            3.415864227211     1.224628755269     0.465710936030    12.000000000000
         C           -2.971722772789    -0.190528244731    -0.147130063970    12.000000000000
         C           -4.188302772789     0.730604755269    -0.128521063970    12.000000000000
         H            2.300154227211    -0.510351244731     1.060053936030     1.007825032230
         H            0.760640227211     1.423050755269     0.718915936030     1.007825032230
         H            1.016541227211     1.286574755269    -1.046617063970     1.007825032230
         H           -1.580915772789     1.284020755269     0.618637936030     1.007825032230
         H           -1.596416772789     1.164953755269    -1.164788063970     1.007825032230
         H            2.958572227211    -0.149374244731    -1.911757063970     1.007825032230
         H            3.853169227211    -1.179919244731    -0.783524063970     1.007825032230
         H            2.181719227211    -1.574261244731    -1.198160063970     1.007825032230
         H            3.528410227211     1.890176755269    -0.397426063970     1.007825032230
         H            4.397872227211     0.797044755269     0.690684936030     1.007825032230
         H            3.105218227211     1.828681755269     1.323800936030     1.007825032230
         H           -3.037854772789    -0.880122244731    -0.996935063970     1.007825032230
         H           -2.945023772789    -0.803147244731     0.759555936030     1.007825032230
         H           -4.153044772789     1.405957755269     0.731508936030     1.007825032230
         H           -4.235892772789     1.341138755269    -1.035457063970     1.007825032230
         H           -5.114114772789     0.152241755269    -0.063339063970     1.007825032230

  Basis Set: AUG-CC-PVTZ
    Blend: AUG-CC-PVTZ
  Basis Set: (AUG-CC-PVTZ AUX)
    Blend: AUG-CC-PVTZ-JKFIT
	 Reference Energy          =    -746.8872317847295790 [Eh]
	 Singles Energy            =      -0.0000000000000000 [Eh]
	 Same-Spin Energy          =      -0.4277746838126629 [Eh]
	 Opposite-Spin Energy      =      -1.4586827552707771 [Eh]
	 Correlation Energy        =      -1.8864574390834399 [Eh]
	 Total Energy              =    -748.7736892238129940 [Eh]

	 ================> DF-SCS-MP2 Energies <==================
	-----------------------------------------------------------
	 SCS Same-Spin Scale       =       0.3333333333333333 [-]
	 SCS Opposite-Spin Scale   =       1.2000000000000000 [-]
	 SCS Same-Spin Energy      =      -0.1425915612708876 [Eh]
	 SCS Opposite-Spin Energy  =      -1.7504193063249325 [Eh]
	 SCS Correlation Energy    =      -1.8930108675958202 [Eh]
	 SCS Total Energy          =    -748.7802426523254553 [Eh]
	-----------------------------------------------------------

  Dipole Moment: [D]
     X:    -0.0546      Y:     2.9086      Z:    -2.2802     Total:     3.6962

*** Psi4 exiting successfully. Buy a developer a beer!
