                               Psi4 1.4a3.dev225

  ==> Input File <==

--------------------------------------------------------------------------
#psi4
#
memory 32 gb

molecule  {
0 1
  S       -0.2613620    -0.5930190    -0.1424790
  O       -0.2870700    -1.2499240     1.2262220
  C        2.3977240     0.0716980     0.1844310
  C        1.0261530     0.6905850    -0.0782140
  C       -1.6743200     0.5466190    -0.2136450
  C        2.8872711    -0.7822386    -0.9837966
  C        3.4104270     1.1761770     0.4821660
  C       -2.9771600    -0.2389800    -0.1306750
  C       -4.1937400     0.6821530    -0.1120660
  H        2.2947170    -0.5588030     1.0765090
  H        0.7552030     1.3745990     0.7353710
  H        1.0111040     1.2381230    -1.0301620
  H       -1.5863530     1.2355690     0.6350930
  H       -1.6018540     1.1165020    -1.1483330
  H        2.9531350    -0.1978260    -1.8953020
  H        3.8477320    -1.2283710    -0.7670690
  H        2.1762820    -1.6227130    -1.1817050
  H        3.5229730     1.8417250    -0.3809710
  H        4.3924350     0.7485930     0.7071400
  H        3.0997810     1.7802300     1.3402560
  H       -3.0432920    -0.9285740    -0.9804800
  H       -2.9504610    -0.8515990     0.7760110
  H       -4.1584820     1.3575060     0.7479640
  H       -4.2413300     1.2926870    -1.0190020
  H       -5.1195520     0.1037900    -0.0468840
units angstrom
no_reorient  #important for SAPT in psi4, default
symmetry c1  #important for SAPT in psi4, default
}

set PROPERTIES_ORIGIN ["COM"]
properties('MP2/aug-cc-pvtz', properties = ['dipole'])
--------------------------------------------------------------------------

    Molecular point group: c1
  Charge       = 0
  Multiplicity = 1
  Basis Set: AUG-CC-PVTZ
    Blend: AUG-CC-PVTZ
  Basis Set: (AUG-CC-PVTZ AUX)
    Blend: AUG-CC-PVTZ-JKFIT

    Orbital Energies [Eh]
    ---------------------

    Doubly Occupied:

       1A    -92.057571     2A    -20.497441     3A    -11.261721
       4A    -11.260155     5A    -11.237735     6A    -11.233462
       7A    -11.223741     8A    -11.220568     9A    -11.217781
      10A     -9.045023    11A     -6.726620    12A     -6.726432
      13A     -6.725146    14A     -1.317084    15A     -1.109659
      16A     -1.085091    17A     -1.007932    18A     -0.942277
      19A     -0.936368    20A     -0.845719    21A     -0.800157
      22A     -0.773299    23A     -0.664744    24A     -0.649397
      25A     -0.629464    26A     -0.611034    27A     -0.591572
      28A     -0.588559    29A     -0.566098    30A     -0.554386
      31A     -0.546848    32A     -0.533927    33A     -0.514085
      34A     -0.506297    35A     -0.499493    36A     -0.486012
      37A     -0.477156    38A     -0.475363    39A     -0.474026
      40A     -0.403459    41A     -0.359212

  @DF-RHF Final Energy:  -746.89091306343130

   => Energetics <=

    Nuclear Repulsion Energy =            575.1305623200271384
    One-Electron Energy =               -2165.2787176667675340
    Two-Electron Energy =                 843.2572422833090968
    Total Energy =                       -746.8909130634312987
  Basis Set: (AUG-CC-PVTZ AUX)
    Blend: AUG-CC-PVTZ-RI
    Molecular point group: c1

    Geometry (in Angstrom), charge = 0, multiplicity = 1:

       Center              X                  Y                   Z               Mass
    ------------   -----------------  -----------------  -----------------  -----------------
         S           -0.254143079868    -0.549489116830    -0.158589108565    31.972071174400
         O           -0.279851079868    -1.206394116830     1.210111891435    15.994914619570
         C            2.404942920132     0.115227883170     0.168320891435    12.000000000000
         C            1.033371920132     0.734114883170    -0.094324108565    12.000000000000
         C           -1.667101079868     0.590148883170    -0.229755108565    12.000000000000
         C            2.894490020132    -0.738708716830    -0.999906708565    12.000000000000
         C            3.417645920132     1.219706883170     0.466055891435    12.000000000000
         C           -2.969941079868    -0.195450116830    -0.146785108565    12.000000000000
         C           -4.186521079868     0.725682883170    -0.128176108565    12.000000000000
         H            2.301935920132    -0.515273116830     1.060398891435     1.007825032230
         H            0.762421920132     1.418128883170     0.719260891435     1.007825032230
         H            1.018322920132     1.281652883170    -1.046272108565     1.007825032230
         H           -1.579134079868     1.279098883170     0.618982891435     1.007825032230
         H           -1.594635079868     1.160031883170    -1.164443108565     1.007825032230
         H            2.960353920132    -0.154296116830    -1.911412108565     1.007825032230
         H            3.854950920132    -1.184841116830    -0.783179108565     1.007825032230
         H            2.183500920132    -1.579183116830    -1.197815108565     1.007825032230
         H            3.530191920132     1.885254883170    -0.397081108565     1.007825032230
         H            4.399653920132     0.792122883170     0.691029891435     1.007825032230
         H            3.106999920132     1.823759883170     1.324145891435     1.007825032230
         H           -3.036073079868    -0.885044116830    -0.996590108565     1.007825032230
         H           -2.943242079868    -0.808069116830     0.759900891435     1.007825032230
         H           -4.151263079868     1.401035883170     0.731853891435     1.007825032230
         H           -4.234111079868     1.336216883170    -1.035112108565     1.007825032230
         H           -5.112333079868     0.147319883170    -0.062994108565     1.007825032230

  Basis Set: AUG-CC-PVTZ
    Blend: AUG-CC-PVTZ
  Basis Set: (AUG-CC-PVTZ AUX)
    Blend: AUG-CC-PVTZ-JKFIT
	 Reference Energy          =    -746.8909130634312987 [Eh]
	 Singles Energy            =      -0.0000000000000000 [Eh]
	 Same-Spin Energy          =      -0.4272695469760097 [Eh]
	 Opposite-Spin Energy      =      -1.4582673444827687 [Eh]
	 Correlation Energy        =      -1.8855368914587785 [Eh]
	 Total Energy              =    -748.7764499548900403 [Eh]

	 ================> DF-SCS-MP2 Energies <==================
	-----------------------------------------------------------
	 SCS Same-Spin Scale       =       0.3333333333333333 [-]
	 SCS Opposite-Spin Scale   =       1.2000000000000000 [-]
	 SCS Same-Spin Energy      =      -0.1424231823253366 [Eh]
	 SCS Opposite-Spin Energy  =      -1.7499208133793225 [Eh]
	 SCS Correlation Energy    =      -1.8923439957046591 [Eh]
	 SCS Total Energy          =    -748.7832570591359627 [Eh]
	-----------------------------------------------------------

  Dipole Moment: [D]
     X:    -0.0515      Y:     2.8876      Z:    -2.2844     Total:     3.6823

*** Psi4 exiting successfully. Buy a developer a beer!
