                               Psi4 1.4a3.dev225

  ==> Input File <==

--------------------------------------------------------------------------
#psi4
#
memory 32 gb

molecule  {
0 1
  S       -0.2613620    -0.5930190    -0.1424790
  O       -0.2870700    -1.2499240     1.2262220
  C        2.3977240     0.0716980     0.1844310
  C        1.0261530     0.6905850    -0.0782140
  C       -1.6743200     0.5466190    -0.2136450
  C        2.8653030    -0.7972080    -0.9817560
  C        3.4104270     1.1761770     0.4821660
  C       -2.9771600    -0.2389800    -0.1306750
  C       -4.1937400     0.6821530    -0.1120660
  H        2.2947170    -0.5588030     1.0765090
  H        0.7552030     1.3745990     0.7353710
  H        1.0111040     1.2381230    -1.0301620
  H       -1.5863530     1.2355690     0.6350930
  H       -1.6018540     1.1165020    -1.1483330
  H        2.9531350    -0.1978260    -1.8953020
  H        3.8477320    -1.2283710    -0.7670690
  H        2.1762820    -1.6227130    -1.1817050
  H        3.5229730     1.8417250    -0.3809710
  H        4.3924350     0.7485930     0.7071400
  H        3.0997810     1.7802300     1.3402560
  H       -3.0432920    -0.9285740    -0.9804800
  H       -2.9504610    -0.8515990     0.7760110
  H       -4.1584820     1.3575060     0.7479640
  H       -4.2413300     1.2926870    -1.0190020
  H       -5.1026200     0.1143676    -0.0480761
units angstrom
no_reorient  #important for SAPT in psi4, default
symmetry c1  #important for SAPT in psi4, default
}

set PROPERTIES_ORIGIN ["COM"]
properties('MP2/aug-cc-pvtz', properties = ['dipole'])
--------------------------------------------------------------------------

    Molecular point group: c1
  Charge       = 0
  Multiplicity = 1
  Basis Set: AUG-CC-PVTZ
    Blend: AUG-CC-PVTZ
  Basis Set: (AUG-CC-PVTZ AUX)
    Blend: AUG-CC-PVTZ-JKFIT

    Orbital Energies [Eh]
    ---------------------

    Doubly Occupied:

       1A    -92.057465     2A    -20.497363     3A    -11.261591
       4A    -11.259743     5A    -11.237678     6A    -11.233297
       7A    -11.221289     8A    -11.221004     9A    -11.217743
      10A     -9.044926    11A     -6.726524    12A     -6.726336
      13A     -6.725051    14A     -1.317014    15A     -1.109569
      16A     -1.085139    17A     -1.008025    18A     -0.942706
      19A     -0.937167    20A     -0.846368    21A     -0.800168
      22A     -0.772884    23A     -0.664384    24A     -0.649285
      25A     -0.630148    26A     -0.611085    27A     -0.594077
      28A     -0.588444    29A     -0.566305    30A     -0.554281
      31A     -0.545184    32A     -0.533387    33A     -0.514701
      34A     -0.506354    35A     -0.499809    36A     -0.486016
      37A     -0.479965    38A     -0.475768    39A     -0.472500
      40A     -0.403433    41A     -0.359261

  @DF-RHF Final Energy:  -746.89167097040649

   => Energetics <=

    Nuclear Repulsion Energy =            575.3626280372311612
    One-Electron Energy =               -2165.7417252008649484
    Two-Electron Energy =                 843.4874261932272930
    Total Energy =                       -746.8916709704064942
  Basis Set: (AUG-CC-PVTZ AUX)
    Blend: AUG-CC-PVTZ-RI
    Molecular point group: c1

    Geometry (in Angstrom), charge = 0, multiplicity = 1:

       Center              X                  Y                   Z               Mass
    ------------   -----------------  -----------------  -----------------  -----------------
         S           -0.252478220210    -0.548348121926    -0.158746346920    31.972071174400
         O           -0.278186220210    -1.205253121926     1.209954653080    15.994914619570
         C            2.406607779790     0.116368878074     0.168163653080    12.000000000000
         C            1.035036779790     0.735255878074    -0.094481346920    12.000000000000
         C           -1.665436220210     0.591289878074    -0.229912346920    12.000000000000
         C            2.874186779790    -0.752537121926    -0.998023346920    12.000000000000
         C            3.419310779790     1.220847878074     0.465898653080    12.000000000000
         C           -2.968276220210    -0.194309121926    -0.146942346920    12.000000000000
         C           -4.184856220210     0.726823878074    -0.128333346920    12.000000000000
         H            2.303600779790    -0.514132121926     1.060241653080     1.007825032230
         H            0.764086779790     1.419269878074     0.719103653080     1.007825032230
         H            1.019987779790     1.282793878074    -1.046429346920     1.007825032230
         H           -1.577469220210     1.280239878074     0.618825653080     1.007825032230
         H           -1.592970220210     1.161172878074    -1.164600346920     1.007825032230
         H            2.962018779790    -0.153155121926    -1.911569346920     1.007825032230
         H            3.856615779790    -1.183700121926    -0.783336346920     1.007825032230
         H            2.185165779790    -1.578042121926    -1.197972346920     1.007825032230
         H            3.531856779790     1.886395878074    -0.397238346920     1.007825032230
         H            4.401318779790     0.793263878074     0.690872653080     1.007825032230
         H            3.108664779790     1.824900878074     1.323988653080     1.007825032230
         H           -3.034408220210    -0.883903121926    -0.996747346920     1.007825032230
         H           -2.941577220210    -0.806928121926     0.759743653080     1.007825032230
         H           -4.149598220210     1.402176878074     0.731696653080     1.007825032230
         H           -4.232446220210     1.337357878074    -1.035269346920     1.007825032230
         H           -5.093736220210     0.159038478074    -0.064343446920     1.007825032230

  Basis Set: AUG-CC-PVTZ
    Blend: AUG-CC-PVTZ
  Basis Set: (AUG-CC-PVTZ AUX)
    Blend: AUG-CC-PVTZ-JKFIT
	 Reference Energy          =    -746.8916709704064942 [Eh]
	 Singles Energy            =      -0.0000000000000000 [Eh]
	 Same-Spin Energy          =      -0.4272718418855672 [Eh]
	 Opposite-Spin Energy      =      -1.4581275533454772 [Eh]
	 Correlation Energy        =      -1.8853993952310444 [Eh]
	 Total Energy              =    -748.7770703656375417 [Eh]

	 ================> DF-SCS-MP2 Energies <==================
	-----------------------------------------------------------
	 SCS Same-Spin Scale       =       0.3333333333333333 [-]
	 SCS Opposite-Spin Scale   =       1.2000000000000000 [-]
	 SCS Same-Spin Energy      =      -0.1424239472951890 [Eh]
	 SCS Opposite-Spin Energy  =      -1.7497530640145726 [Eh]
	 SCS Correlation Energy    =      -1.8921770113097618 [Eh]
	 SCS Total Energy          =    -748.7838479817162352 [Eh]
	-----------------------------------------------------------

  Dipole Moment: [D]
     X:    -0.0690      Y:     2.8841      Z:    -2.2778     Total:     3.6757

*** Psi4 exiting successfully. Buy a developer a beer!
