                               Psi4 1.4a3.dev225

  ==> Input File <==

--------------------------------------------------------------------------
#psi4
#
memory 32 gb

molecule  {
0 1
  S       -0.2613620    -0.5930190    -0.1424790
  O       -0.2870700    -1.2499240     1.2262220
  C        2.3977240     0.0716980     0.1844310
  C        1.0261530     0.6905850    -0.0782140
  C       -1.6743200     0.5466190    -0.2136450
  C        2.8653030    -0.7972080    -0.9817560
  C        3.4104270     1.1761770     0.4821660
  C       -2.9771600    -0.2389800    -0.1306750
  C       -4.1937400     0.6821530    -0.1120660
  H        2.2947170    -0.5588030     1.0765090
  H        0.7552030     1.3745990     0.7353710
  H        1.0111040     1.2381230    -1.0301620
  H       -1.5863530     1.2355690     0.6350930
  H       -1.6018540     1.1165020    -1.1483330
  H        2.9691606    -0.0884644    -2.0619850
  H        3.8477320    -1.2283710    -0.7670690
  H        2.1762820    -1.6227130    -1.1817050
  H        3.5229730     1.8417250    -0.3809710
  H        4.3924350     0.7485930     0.7071400
  H        3.0997810     1.7802300     1.3402560
  H       -3.0432920    -0.9285740    -0.9804800
  H       -2.9504610    -0.8515990     0.7760110
  H       -4.1584820     1.3575060     0.7479640
  H       -4.2413300     1.2926870    -1.0190020
  H       -5.1195520     0.1037900    -0.0468840
units angstrom
no_reorient  #important for SAPT in psi4, default
symmetry c1  #important for SAPT in psi4, default
}

set PROPERTIES_ORIGIN ["COM"]
properties('MP2/aug-cc-pvtz', properties = ['dipole'])
--------------------------------------------------------------------------

    Molecular point group: c1
  Charge       = 0
  Multiplicity = 1
  Basis Set: AUG-CC-PVTZ
    Blend: AUG-CC-PVTZ
  Basis Set: (AUG-CC-PVTZ AUX)
    Blend: AUG-CC-PVTZ-JKFIT

    Orbital Energies [Eh]
    ---------------------

    Doubly Occupied:

       1A    -92.058077     2A    -20.498051     3A    -11.262136
       4A    -11.260320     5A    -11.241831     6A    -11.240811
       7A    -11.233750     8A    -11.223946     9A    -11.221612
      10A     -9.045554    11A     -6.727150    12A     -6.726965
      13A     -6.725679    14A     -1.317758    15A     -1.109681
      16A     -1.085205    17A     -1.007397    18A     -0.941927
      19A     -0.929581    20A     -0.845338    21A     -0.800326
      22A     -0.768807    23A     -0.665047    24A     -0.649544
      25A     -0.630809    26A     -0.610654    27A     -0.593921
      28A     -0.586243    29A     -0.566528    30A     -0.554134
      31A     -0.536381    32A     -0.521643    33A     -0.515128
      34A     -0.505763    35A     -0.499737    36A     -0.486464
      37A     -0.482313    38A     -0.476325    39A     -0.463121
      40A     -0.404014    41A     -0.359974

  @DF-RHF Final Energy:  -746.87223916429855

   => Energetics <=

    Nuclear Repulsion Energy =            574.4667816704713914
    One-Electron Energy =               -2163.9187541409710320
    Two-Electron Energy =                 842.5797333062010921
    Total Energy =                       -746.8722391642985485
  Basis Set: (AUG-CC-PVTZ AUX)
    Blend: AUG-CC-PVTZ-RI
    Molecular point group: c1

    Geometry (in Angstrom), charge = 0, multiplicity = 1:

       Center              X                  Y                   Z               Mass
    ------------   -----------------  -----------------  -----------------  -----------------
         S           -0.252472051805    -0.549020385538    -0.157620116862    31.972071174400
         O           -0.278180051805    -1.205925385538     1.211080883138    15.994914619570
         C            2.406613948195     0.115696614462     0.169289883138    12.000000000000
         C            1.035042948195     0.734583614462    -0.093355116862    12.000000000000
         C           -1.665430051805     0.590617614462    -0.228786116862    12.000000000000
         C            2.874192948195    -0.753209385538    -0.996897116862    12.000000000000
         C            3.419316948195     1.220175614462     0.467024883138    12.000000000000
         C           -2.968270051805    -0.194981385538    -0.145816116862    12.000000000000
         C           -4.184850051805     0.726151614462    -0.127207116862    12.000000000000
         H            2.303606948195    -0.514804385538     1.061367883138     1.007825032230
         H            0.764092948195     1.418597614462     0.720229883138     1.007825032230
         H            1.019993948195     1.282121614462    -1.045303116862     1.007825032230
         H           -1.577463051805     1.279567614462     0.619951883138     1.007825032230
         H           -1.592964051805     1.160500614462    -1.163474116862     1.007825032230
         H            2.978050548195    -0.044465785538    -2.077126116862     1.007825032230
         H            3.856621948195    -1.184372385538    -0.782210116862     1.007825032230
         H            2.185171948195    -1.578714385538    -1.196846116862     1.007825032230
         H            3.531862948195     1.885723614462    -0.396112116862     1.007825032230
         H            4.401324948195     0.792591614462     0.691998883138     1.007825032230
         H            3.108670948195     1.824228614462     1.325114883138     1.007825032230
         H           -3.034402051805    -0.884575385538    -0.995621116862     1.007825032230
         H           -2.941571051805    -0.807600385538     0.760869883138     1.007825032230
         H           -4.149592051805     1.401504614462     0.732822883138     1.007825032230
         H           -4.232440051805     1.336685614462    -1.034143116862     1.007825032230
         H           -5.110662051805     0.147788614462    -0.062025116862     1.007825032230

  Basis Set: AUG-CC-PVTZ
    Blend: AUG-CC-PVTZ
  Basis Set: (AUG-CC-PVTZ AUX)
    Blend: AUG-CC-PVTZ-JKFIT
	 Reference Energy          =    -746.8722391642985485 [Eh]
	 Singles Energy            =      -0.0000000000000000 [Eh]
	 Same-Spin Energy          =      -0.4272146332980492 [Eh]
	 Opposite-Spin Energy      =      -1.4596943017865582 [Eh]
	 Correlation Energy        =      -1.8869089350846073 [Eh]
	 Total Energy              =    -748.7591480993831965 [Eh]

	 ================> DF-SCS-MP2 Energies <==================
	-----------------------------------------------------------
	 SCS Same-Spin Scale       =       0.3333333333333333 [-]
	 SCS Opposite-Spin Scale   =       1.2000000000000000 [-]
	 SCS Same-Spin Energy      =      -0.1424048777660164 [Eh]
	 SCS Opposite-Spin Energy  =      -1.7516331621438699 [Eh]
	 SCS Correlation Energy    =      -1.8940380399098862 [Eh]
	 SCS Total Energy          =    -748.7662772042084498 [Eh]
	-----------------------------------------------------------

  Dipole Moment: [D]
     X:    -0.0882      Y:     2.8329      Z:    -2.1335     Total:     3.5475

*** Psi4 exiting successfully. Buy a developer a beer!
