                               Psi4 1.4a3.dev225

  ==> Input File <==

--------------------------------------------------------------------------
#psi4
#
memory 32 gb

molecule  {
0 1
  S       -0.2613620    -0.5930190    -0.1424790
  O       -0.2870700    -1.2499240     1.2262220
  C        2.3977240     0.0716980     0.1844310
  C        1.0261530     0.6905850    -0.0782140
  C       -1.6743200     0.5466190    -0.2136450
  C        2.8653030    -0.7972080    -0.9817560
  C        3.4104270     1.1761770     0.4821660
  C       -2.9771600    -0.2389800    -0.1306750
  C       -4.1937400     0.6821530    -0.1120660
  H        2.2947170    -0.5588030     1.0765090
  H        0.7552030     1.3745990     0.7353710
  H        1.0111040     1.2381230    -1.0301620
  H       -1.5863530     1.2355690     0.6350930
  H       -1.5952489     1.1684458    -1.2335281
  H        2.9531350    -0.1978260    -1.8953020
  H        3.8477320    -1.2283710    -0.7670690
  H        2.1762820    -1.6227130    -1.1817050
  H        3.5229730     1.8417250    -0.3809710
  H        4.3924350     0.7485930     0.7071400
  H        3.0997810     1.7802300     1.3402560
  H       -3.0432920    -0.9285740    -0.9804800
  H       -2.9504610    -0.8515990     0.7760110
  H       -4.1584820     1.3575060     0.7479640
  H       -4.2413300     1.2926870    -1.0190020
  H       -5.1195520     0.1037900    -0.0468840
units angstrom
no_reorient  #important for SAPT in psi4, default
symmetry c1  #important for SAPT in psi4, default
}

set PROPERTIES_ORIGIN ["COM"]
properties('MP2/aug-cc-pvtz', properties = ['dipole'])
--------------------------------------------------------------------------

    Molecular point group: c1
  Charge       = 0
  Multiplicity = 1
  Basis Set: AUG-CC-PVTZ
    Blend: AUG-CC-PVTZ
  Basis Set: (AUG-CC-PVTZ AUX)
    Blend: AUG-CC-PVTZ-JKFIT

    Orbital Energies [Eh]
    ---------------------

    Doubly Occupied:

       1A    -92.058362     2A    -20.498334     3A    -11.272906
       4A    -11.259771     5A    -11.237723     6A    -11.234469
       7A    -11.223842     8A    -11.221052     9A    -11.217804
      10A     -9.045746    11A     -6.727336    12A     -6.727139
      13A     -6.725860    14A     -1.317836    15A     -1.109210
      16A     -1.083035    17A     -1.007339    18A     -0.939566
      19A     -0.937199    20A     -0.846033    21A     -0.794692
      22A     -0.772778    23A     -0.661066    24A     -0.645562
      25A     -0.630101    26A     -0.610997    27A     -0.592627
      28A     -0.588066    29A     -0.560331    30A     -0.554315
      31A     -0.544853    32A     -0.532635    33A     -0.514340
      34A     -0.506332    35A     -0.499597    36A     -0.482631
      37A     -0.479909    38A     -0.475800    39A     -0.472569
      40A     -0.403896    41A     -0.359956

  @DF-RHF Final Energy:  -746.88493307650981

   => Energetics <=

    Nuclear Repulsion Energy =            574.7774020609808758
    One-Electron Energy =               -2164.5774386295129261
    Two-Electron Energy =                 842.9151034920222401
    Total Energy =                       -746.8849330765098102
  Basis Set: (AUG-CC-PVTZ AUX)
    Blend: AUG-CC-PVTZ-RI
    Molecular point group: c1

    Geometry (in Angstrom), charge = 0, multiplicity = 1:

       Center              X                  Y                   Z               Mass
    ------------   -----------------  -----------------  -----------------  -----------------
         S           -0.252407941632    -0.548629635036    -0.158174673773    31.972071174400
         O           -0.278115941632    -1.205534635036     1.210526326227    15.994914619570
         C            2.406678058368     0.116087364964     0.168735326227    12.000000000000
         C            1.035107058368     0.734974364964    -0.093909673773    12.000000000000
         C           -1.665365941632     0.591008364964    -0.229340673773    12.000000000000
         C            2.874257058368    -0.752818635036    -0.997451673773    12.000000000000
         C            3.419381058368     1.220566364964     0.466470326227    12.000000000000
         C           -2.968205941632    -0.194590635036    -0.146370673773    12.000000000000
         C           -4.184785941632     0.726542364964    -0.127761673773    12.000000000000
         H            2.303671058368    -0.514413635036     1.060813326227     1.007825032230
         H            0.764157058368     1.418988364964     0.719675326227     1.007825032230
         H            1.020058058368     1.282512364964    -1.045857673773     1.007825032230
         H           -1.577398941632     1.279958364964     0.619397326227     1.007825032230
         H           -1.586294841632     1.212835164964    -1.249223773773     1.007825032230
         H            2.962089058368    -0.153436635036    -1.910997673773     1.007825032230
         H            3.856686058368    -1.183981635036    -0.782764673773     1.007825032230
         H            2.185236058368    -1.578323635036    -1.197400673773     1.007825032230
         H            3.531927058368     1.886114364964    -0.396666673773     1.007825032230
         H            4.401389058368     0.792982364964     0.691444326227     1.007825032230
         H            3.108735058368     1.824619364964     1.324560326227     1.007825032230
         H           -3.034337941632    -0.884184635036    -0.996175673773     1.007825032230
         H           -2.941506941632    -0.807209635036     0.760315326227     1.007825032230
         H           -4.149527941632     1.401895364964     0.732268326227     1.007825032230
         H           -4.232375941632     1.337076364964    -1.034697673773     1.007825032230
         H           -5.110597941632     0.148179364964    -0.062579673773     1.007825032230

  Basis Set: AUG-CC-PVTZ
    Blend: AUG-CC-PVTZ
  Basis Set: (AUG-CC-PVTZ AUX)
    Blend: AUG-CC-PVTZ-JKFIT
	 Reference Energy          =    -746.8849330765098102 [Eh]
	 Singles Energy            =      -0.0000000000000000 [Eh]
	 Same-Spin Energy          =      -0.4274302674418513 [Eh]
	 Opposite-Spin Energy      =      -1.4591037221874394 [Eh]
	 Correlation Energy        =      -1.8865339896292908 [Eh]
	 Total Energy              =    -748.7714670661390528 [Eh]

	 ================> DF-SCS-MP2 Energies <==================
	-----------------------------------------------------------
	 SCS Same-Spin Scale       =       0.3333333333333333 [-]
	 SCS Opposite-Spin Scale   =       1.2000000000000000 [-]
	 SCS Same-Spin Energy      =      -0.1424767558139504 [Eh]
	 SCS Opposite-Spin Energy  =      -1.7509244666249273 [Eh]
	 SCS Correlation Energy    =      -1.8934012224388777 [Eh]
	 SCS Total Energy          =    -748.7783342989487210 [Eh]
	-----------------------------------------------------------

  Dipole Moment: [D]
     X:    -0.0628      Y:     2.8513      Z:    -2.2415     Total:     3.6274

*** Psi4 exiting successfully. Buy a developer a beer!
