                               Psi4 1.4a3.dev225

  ==> Input File <==

--------------------------------------------------------------------------
#psi4
#
memory 32 gb

molecule  {
0 1
  S       -0.2613620    -0.5930190    -0.1424790
  O       -0.2870700    -1.2499240     1.2262220
  C        2.3977240     0.0716980     0.1844310
  C        1.0261530     0.6905850    -0.0782140
  C       -1.6743200     0.5466190    -0.2136450
  C        2.8653030    -0.7972080    -0.9817560
  C        3.4104270     1.1761770     0.4821660
  C       -3.1481781    -0.3421022    -0.1197839
  C       -4.1937400     0.6821530    -0.1120660
  H        2.2947170    -0.5588030     1.0765090
  H        0.7552030     1.3745990     0.7353710
  H        1.0111040     1.2381230    -1.0301620
  H       -1.5863530     1.2355690     0.6350930
  H       -1.6018540     1.1165020    -1.1483330
  H        2.9531350    -0.1978260    -1.8953020
  H        3.8477320    -1.2283710    -0.7670690
  H        2.1762820    -1.6227130    -1.1817050
  H        3.5229730     1.8417250    -0.3809710
  H        4.3924350     0.7485930     0.7071400
  H        3.0997810     1.7802300     1.3402560
  H       -3.0432920    -0.9285740    -0.9804800
  H       -2.9504610    -0.8515990     0.7760110
  H       -4.1584820     1.3575060     0.7479640
  H       -4.2413300     1.2926870    -1.0190020
  H       -5.1195520     0.1037900    -0.0468840
units angstrom
no_reorient  #important for SAPT in psi4, default
symmetry c1  #important for SAPT in psi4, default
}

set PROPERTIES_ORIGIN ["COM"]
properties('MP2/aug-cc-pvtz', properties = ['dipole'])
--------------------------------------------------------------------------

    Molecular point group: c1
  Charge       = 0
  Multiplicity = 1
  Basis Set: AUG-CC-PVTZ
    Blend: AUG-CC-PVTZ
  Basis Set: (AUG-CC-PVTZ AUX)
    Blend: AUG-CC-PVTZ-JKFIT

    Orbital Energies [Eh]
    ---------------------

    Doubly Occupied:

       1A    -92.054876     2A    -20.494963     3A    -11.262079
       4A    -11.257459     5A    -11.239188     6A    -11.235996
       7A    -11.224041     8A    -11.219768     9A    -11.216462
      10A     -9.042122    11A     -6.723737    12A     -6.723581
      13A     -6.722313    14A     -1.314338    15A     -1.106476
      16A     -1.074803    17A     -1.013069    18A     -0.936469
      19A     -0.935793    20A     -0.846100    21A     -0.803634
      22A     -0.770697    23A     -0.663456    24A     -0.650399
      25A     -0.624367    26A     -0.608820    27A     -0.592924
      28A     -0.585982    29A     -0.570768    30A     -0.557487
      31A     -0.543920    32A     -0.537061    33A     -0.527773
      34A     -0.512073    35A     -0.500303    36A     -0.489820
      37A     -0.478453    38A     -0.471817    39A     -0.439481
      40A     -0.394207    41A     -0.356638

  @DF-RHF Final Energy:  -746.86325768198401

   => Energetics <=

    Nuclear Repulsion Energy =            572.5913779113695909
    One-Electron Energy =               -2160.2618445775424334
    Two-Electron Energy =                 840.8072089841888328
    Total Energy =                       -746.8632576819840097
  Basis Set: (AUG-CC-PVTZ AUX)
    Blend: AUG-CC-PVTZ-RI
    Molecular point group: c1

    Geometry (in Angstrom), charge = 0, multiplicity = 1:

       Center              X                  Y                   Z               Mass
    ------------   -----------------  -----------------  -----------------  -----------------
         S           -0.238505290611    -0.539920082600    -0.159636972088    31.972071174400
         O           -0.264213290611    -1.196825082600     1.209064027912    15.994914619570
         C            2.420580709389     0.124796917400     0.167273027912    12.000000000000
         C            1.049009709389     0.743683917400    -0.095371972088    12.000000000000
         C           -1.651463290611     0.599717917400    -0.230802972088    12.000000000000
         C            2.888159709389    -0.744109082600    -0.998913972088    12.000000000000
         C            3.433283709389     1.229275917400     0.465008027912    12.000000000000
         C           -3.125321390611    -0.289003282600    -0.136941872088    12.000000000000
         C           -4.170883290611     0.735251917400    -0.129223972088    12.000000000000
         H            2.317573709389    -0.505704082600     1.059351027912     1.007825032230
         H            0.778059709389     1.427697917400     0.718213027912     1.007825032230
         H            1.033960709389     1.291221917400    -1.047319972088     1.007825032230
         H           -1.563496290611     1.288667917400     0.617935027912     1.007825032230
         H           -1.578997290611     1.169600917400    -1.165490972088     1.007825032230
         H            2.975991709389    -0.144727082600    -1.912459972088     1.007825032230
         H            3.870588709389    -1.175272082600    -0.784226972088     1.007825032230
         H            2.199138709389    -1.569614082600    -1.198862972088     1.007825032230
         H            3.545829709389     1.894823917400    -0.398128972088     1.007825032230
         H            4.415291709389     0.801691917400     0.689982027912     1.007825032230
         H            3.122637709389     1.833328917400     1.323098027912     1.007825032230
         H           -3.020435290611    -0.875475082600    -0.997637972088     1.007825032230
         H           -2.927604290611    -0.798500082600     0.758853027912     1.007825032230
         H           -4.135625290611     1.410604917400     0.730806027912     1.007825032230
         H           -4.218473290611     1.345785917400    -1.036159972088     1.007825032230
         H           -5.096695290611     0.156888917400    -0.064041972088     1.007825032230

  Basis Set: AUG-CC-PVTZ
    Blend: AUG-CC-PVTZ
  Basis Set: (AUG-CC-PVTZ AUX)
    Blend: AUG-CC-PVTZ-JKFIT
	 Reference Energy          =    -746.8632576819840097 [Eh]
	 Singles Energy            =      -0.0000000000000000 [Eh]
	 Same-Spin Energy          =      -0.4277262840889370 [Eh]
	 Opposite-Spin Energy      =      -1.4598094876776631 [Eh]
	 Correlation Energy        =      -1.8875357717666001 [Eh]
	 Total Energy              =    -748.7507934537505889 [Eh]

	 ================> DF-SCS-MP2 Energies <==================
	-----------------------------------------------------------
	 SCS Same-Spin Scale       =       0.3333333333333333 [-]
	 SCS Opposite-Spin Scale   =       1.2000000000000000 [-]
	 SCS Same-Spin Energy      =      -0.1425754280296457 [Eh]
	 SCS Opposite-Spin Energy  =      -1.7517713852131955 [Eh]
	 SCS Correlation Energy    =      -1.8943468132428412 [Eh]
	 SCS Total Energy          =    -748.7576044952268148 [Eh]
	-----------------------------------------------------------

  Dipole Moment: [D]
     X:    -0.2768      Y:     2.8935      Z:    -2.3038     Total:     3.7089

*** Psi4 exiting successfully. Buy a developer a beer!
