                               Psi4 1.4a3.dev225

  ==> Input File <==

--------------------------------------------------------------------------
#psi4
#
memory 32 gb

molecule  {
0 1
  S       -0.2613620    -0.5930190    -0.1424790
  O       -0.2870700    -1.2499240     1.2262220
  C        2.3977240     0.0716980     0.1844310
  C        1.0261530     0.6905850    -0.0782140
  C       -1.6743200     0.5466190    -0.2136450
  C        2.8653030    -0.7972080    -0.9817560
  C        3.4104270     1.1761770     0.4821660
  C       -2.9771600    -0.2389800    -0.1306750
  C       -4.1937400     0.6821530    -0.1120660
  H        2.2947170    -0.5588030     1.0765090
  H        0.7552030     1.3745990     0.7353710
  H        1.0111040     1.2381230    -1.0301620
  H       -1.5863530     1.2355690     0.6350930
  H       -1.6018540     1.1165020    -1.1483330
  H        2.9531350    -0.1978260    -1.8953020
  H        3.8477320    -1.2283710    -0.7670690
  H        2.1762820    -1.6227130    -1.1817050
  H        3.5229730     1.8417250    -0.3809710
  H        4.3924350     0.7485930     0.7071400
  H        3.0997810     1.7802300     1.3402560
  H       -3.0432920    -0.9285740    -0.9804800
  H       -2.9504610    -0.8515990     0.7760110
  H       -4.1584820     1.3575060     0.7479640
  H       -4.2413300     1.2926870    -1.0190020
  H       -5.0772219     0.1302340    -0.0498643
units angstrom
no_reorient  #important for SAPT in psi4, default
symmetry c1  #important for SAPT in psi4, default
}

set PROPERTIES_ORIGIN ["COM"]
properties('MP2/aug-cc-pvtz', properties = ['dipole'])
--------------------------------------------------------------------------

    Molecular point group: c1
  Charge       = 0
  Multiplicity = 1
  Basis Set: AUG-CC-PVTZ
    Blend: AUG-CC-PVTZ
  Basis Set: (AUG-CC-PVTZ AUX)
    Blend: AUG-CC-PVTZ-JKFIT

    Orbital Energies [Eh]
    ---------------------

    Doubly Occupied:

       1A    -92.057295     2A    -20.497235     3A    -11.261395
       4A    -11.259626     5A    -11.237591     6A    -11.233056
       7A    -11.220934     8A    -11.217672     9A    -11.217563
      10A     -9.044760    11A     -6.726359    12A     -6.726170
      13A     -6.724886    14A     -1.316885    15A     -1.109481
      16A     -1.085317    17A     -1.008680    18A     -0.943982
      19A     -0.937098    20A     -0.847535    21A     -0.800160
      22A     -0.772810    23A     -0.664222    24A     -0.649204
      25A     -0.631000    26A     -0.611081    27A     -0.596106
      28A     -0.588834    29A     -0.566144    30A     -0.554367
      31A     -0.545203    32A     -0.533683    33A     -0.515713
      34A     -0.506260    35A     -0.500252    36A     -0.485891
      37A     -0.479879    38A     -0.475889    39A     -0.472472
      40A     -0.403372    41A     -0.359131

  @DF-RHF Final Energy:  -746.89064844483642

   => Energetics <=

    Nuclear Repulsion Energy =            575.5026490414435330
    One-Electron Energy =               -2166.0162052146729366
    Two-Electron Energy =                 843.6229077283931019
    Total Energy =                       -746.8906484448364154
  Basis Set: (AUG-CC-PVTZ AUX)
    Blend: AUG-CC-PVTZ-RI
    Molecular point group: c1

    Geometry (in Angstrom), charge = 0, multiplicity = 1:

       Center              X                  Y                   Z               Mass
    ------------   -----------------  -----------------  -----------------  -----------------
         S           -0.252651064177    -0.548456098961    -0.158734177523    31.972071174400
         O           -0.278359064177    -1.205361098961     1.209966822477    15.994914619570
         C            2.406434935823     0.116260901039     0.168175822477    12.000000000000
         C            1.034863935823     0.735147901039    -0.094469177523    12.000000000000
         C           -1.665609064177     0.591181901039    -0.229900177523    12.000000000000
         C            2.874013935823    -0.752645098961    -0.998011177523    12.000000000000
         C            3.419137935823     1.220739901039     0.465910822477    12.000000000000
         C           -2.968449064177    -0.194417098961    -0.146930177523    12.000000000000
         C           -4.185029064177     0.726715901039    -0.128321177523    12.000000000000
         H            2.303427935823    -0.514240098961     1.060253822477     1.007825032230
         H            0.763913935823     1.419161901039     0.719115822477     1.007825032230
         H            1.019814935823     1.282685901039    -1.046417177523     1.007825032230
         H           -1.577642064177     1.280131901039     0.618837822477     1.007825032230
         H           -1.593143064177     1.161064901039    -1.164588177523     1.007825032230
         H            2.961845935823    -0.153263098961    -1.911557177523     1.007825032230
         H            3.856442935823    -1.183808098961    -0.783324177523     1.007825032230
         H            2.184992935823    -1.578150098961    -1.197960177523     1.007825032230
         H            3.531683935823     1.886287901039    -0.397226177523     1.007825032230
         H            4.401145935823     0.793155901039     0.690884822477     1.007825032230
         H            3.108491935823     1.824792901039     1.324000822477     1.007825032230
         H           -3.034581064177    -0.884011098961    -0.996735177523     1.007825032230
         H           -2.941750064177    -0.807036098961     0.759755822477     1.007825032230
         H           -4.149771064177     1.402068901039     0.731708822477     1.007825032230
         H           -4.232619064177     1.337249901039    -1.035257177523     1.007825032230
         H           -5.068510964177     0.174796901039    -0.066119477523     1.007825032230

  Basis Set: AUG-CC-PVTZ
    Blend: AUG-CC-PVTZ
  Basis Set: (AUG-CC-PVTZ AUX)
    Blend: AUG-CC-PVTZ-JKFIT
	 Reference Energy          =    -746.8906484448364154 [Eh]
	 Singles Energy            =      -0.0000000000000000 [Eh]
	 Same-Spin Energy          =      -0.4272874270780988 [Eh]
	 Opposite-Spin Energy      =      -1.4579781121606366 [Eh]
	 Correlation Energy        =      -1.8852655392387354 [Eh]
	 Total Energy              =    -748.7759139840751459 [Eh]

	 ================> DF-SCS-MP2 Energies <==================
	-----------------------------------------------------------
	 SCS Same-Spin Scale       =       0.3333333333333333 [-]
	 SCS Opposite-Spin Scale   =       1.2000000000000000 [-]
	 SCS Same-Spin Energy      =      -0.1424291423593663 [Eh]
	 SCS Opposite-Spin Energy  =      -1.7495737345927638 [Eh]
	 SCS Correlation Energy    =      -1.8920028769521300 [Eh]
	 SCS Total Energy          =    -748.7826513217885349 [Eh]
	-----------------------------------------------------------

  Dipole Moment: [D]
     X:    -0.0915      Y:     2.8808      Z:    -2.2776     Total:     3.6735

*** Psi4 exiting successfully. Buy a developer a beer!
