                               Psi4 1.4a3.dev225

  ==> Input File <==

--------------------------------------------------------------------------
#psi4
#
memory 32 gb

molecule  {
0 1
  S       -0.2613620    -0.5930190    -0.1424790
  O       -0.2870700    -1.2499240     1.2262220
  C        2.3977240     0.0716980     0.1844310
  C        1.0261530     0.6905850    -0.0782140
  C       -1.7520974     0.6093513    -0.2175624
  C        2.8653030    -0.7972080    -0.9817560
  C        3.4104270     1.1761770     0.4821660
  C       -2.9771600    -0.2389800    -0.1306750
  C       -4.1937400     0.6821530    -0.1120660
  H        2.2947170    -0.5588030     1.0765090
  H        0.7552030     1.3745990     0.7353710
  H        1.0111040     1.2381230    -1.0301620
  H       -1.5863530     1.2355690     0.6350930
  H       -1.6018540     1.1165020    -1.1483330
  H        2.9531350    -0.1978260    -1.8953020
  H        3.8477320    -1.2283710    -0.7670690
  H        2.1762820    -1.6227130    -1.1817050
  H        3.5229730     1.8417250    -0.3809710
  H        4.3924350     0.7485930     0.7071400
  H        3.0997810     1.7802300     1.3402560
  H       -3.0432920    -0.9285740    -0.9804800
  H       -2.9504610    -0.8515990     0.7760110
  H       -4.1584820     1.3575060     0.7479640
  H       -4.2413300     1.2926870    -1.0190020
  H       -5.1195520     0.1037900    -0.0468840
units angstrom
no_reorient  #important for SAPT in psi4, default
symmetry c1  #important for SAPT in psi4, default
}

set PROPERTIES_ORIGIN ["COM"]
properties('MP2/aug-cc-pvtz', properties = ['dipole'])
--------------------------------------------------------------------------

    Molecular point group: c1
  Charge       = 0
  Multiplicity = 1
  Basis Set: AUG-CC-PVTZ
    Blend: AUG-CC-PVTZ
  Basis Set: (AUG-CC-PVTZ AUX)
    Blend: AUG-CC-PVTZ-JKFIT

    Orbital Energies [Eh]
    ---------------------

    Doubly Occupied:

       1A    -92.054401     2A    -20.497003     3A    -11.262995
       4A    -11.258978     5A    -11.237016     6A    -11.232476
       7A    -11.223061     8A    -11.220462     9A    -11.217112
      10A     -9.041386    11A     -6.722847    12A     -6.722626
      13A     -6.721430    14A     -1.313864    15A     -1.107943
      16A     -1.088777    17A     -1.001828    18A     -0.940359
      19A     -0.936575    20A     -0.842371    21A     -0.806420
      22A     -0.771125    23A     -0.669569    24A     -0.649771
      25A     -0.626110    26A     -0.609727    27A     -0.596213
      28A     -0.587842    29A     -0.567439    30A     -0.554819
      31A     -0.544472    32A     -0.532139    33A     -0.511680
      34A     -0.507855    35A     -0.504558    36A     -0.490706
      37A     -0.479289    38A     -0.475733    39A     -0.471655
      40A     -0.393846    41A     -0.352874

  @DF-RHF Final Energy:  -746.88488549171984

   => Energetics <=

    Nuclear Repulsion Energy =            573.7520577807025575
    One-Electron Energy =               -2162.5791798386621849
    Two-Electron Energy =                 841.9422365662396714
    Total Energy =                       -746.8848854917198423
  Basis Set: (AUG-CC-PVTZ AUX)
    Blend: AUG-CC-PVTZ-RI
    Molecular point group: c1

    Geometry (in Angstrom), charge = 0, multiplicity = 1:

       Center              X                  Y                   Z               Mass
    ------------   -----------------  -----------------  -----------------  -----------------
         S           -0.246060641288    -0.553359373691    -0.158437030319    31.972071174400
         O           -0.271768641288    -1.210264373691     1.210263969681    15.994914619570
         C            2.413025358712     0.111357626309     0.168472969681    12.000000000000
         C            1.041454358712     0.730244626309    -0.094172030319    12.000000000000
         C           -1.736796041288     0.649010926309    -0.233520430319    12.000000000000
         C            2.880604358712    -0.757548373691    -0.997714030319    12.000000000000
         C            3.425728358712     1.215836626309     0.466207969681    12.000000000000
         C           -2.961858641288    -0.199320373691    -0.146633030319    12.000000000000
         C           -4.178438641288     0.721812626309    -0.128024030319    12.000000000000
         H            2.310018358712    -0.519143373691     1.060550969681     1.007825032230
         H            0.770504358712     1.414258626309     0.719412969681     1.007825032230
         H            1.026405358712     1.277782626309    -1.046120030319     1.007825032230
         H           -1.571051641288     1.275228626309     0.619134969681     1.007825032230
         H           -1.586552641288     1.156161626309    -1.164291030319     1.007825032230
         H            2.968436358712    -0.158166373691    -1.911260030319     1.007825032230
         H            3.863033358712    -1.188711373691    -0.783027030319     1.007825032230
         H            2.191583358712    -1.583053373691    -1.197663030319     1.007825032230
         H            3.538274358712     1.881384626309    -0.396929030319     1.007825032230
         H            4.407736358712     0.788252626309     0.691181969681     1.007825032230
         H            3.115082358712     1.819889626309     1.324297969681     1.007825032230
         H           -3.027990641288    -0.888914373691    -0.996438030319     1.007825032230
         H           -2.935159641288    -0.811939373691     0.760052969681     1.007825032230
         H           -4.143180641288     1.397165626309     0.732005969681     1.007825032230
         H           -4.226028641288     1.332346626309    -1.034960030319     1.007825032230
         H           -5.104250641288     0.143449626309    -0.062842030319     1.007825032230

  Basis Set: AUG-CC-PVTZ
    Blend: AUG-CC-PVTZ
  Basis Set: (AUG-CC-PVTZ AUX)
    Blend: AUG-CC-PVTZ-JKFIT
	 Reference Energy          =    -746.8848854917198423 [Eh]
	 Singles Energy            =      -0.0000000000000000 [Eh]
	 Same-Spin Energy          =      -0.4276594428593241 [Eh]
	 Opposite-Spin Energy      =      -1.4594063421718086 [Eh]
	 Correlation Energy        =      -1.8870657850311328 [Eh]
	 Total Energy              =    -748.7719512767509968 [Eh]

	 ================> DF-SCS-MP2 Energies <==================
	-----------------------------------------------------------
	 SCS Same-Spin Scale       =       0.3333333333333333 [-]
	 SCS Opposite-Spin Scale   =       1.2000000000000000 [-]
	 SCS Same-Spin Energy      =      -0.1425531476197747 [Eh]
	 SCS Opposite-Spin Energy  =      -1.7512876106061703 [Eh]
	 SCS Correlation Energy    =      -1.8938407582259451 [Eh]
	 SCS Total Energy          =    -748.7787262499457484 [Eh]
	-----------------------------------------------------------

  Dipole Moment: [D]
     X:    -0.0271      Y:     2.8404      Z:    -2.2555     Total:     3.6271

*** Psi4 exiting successfully. Buy a developer a beer!
