                               Psi4 1.4a3.dev225

  ==> Input File <==

--------------------------------------------------------------------------
#psi4
#
memory 32 gb

molecule  {
0 1
  S       -0.2613620    -0.5930190    -0.1424790
  O       -0.2870700    -1.2499240     1.2262220
  C        2.3977240     0.0716980     0.1844310
  C        1.0261530     0.6905850    -0.0782140
  C       -1.6743200     0.5466190    -0.2136450
  C        2.8653030    -0.7972080    -0.9817560
  C        3.4104270     1.1761770     0.4821660
  C       -2.9771600    -0.2389800    -0.1306750
  C       -4.1937400     0.6821530    -0.1120660
  H        2.2947170    -0.5588030     1.0765090
  H        0.7552030     1.3745990     0.7353710
  H        1.0111040     1.2381230    -1.0301620
  H       -1.5863530     1.2355690     0.6350930
  H       -1.6018540     1.1165020    -1.1483330
  H        2.9531350    -0.1978260    -1.8953020
  H        3.8477320    -1.2283710    -0.7670690
  H        2.1762820    -1.6227130    -1.1817050
  H        3.5229730     1.8417250    -0.3809710
  H        4.3924350     0.7485930     0.7071400
  H        3.0997810     1.7802300     1.3402560
  H       -3.0432920    -0.9285740    -0.9804800
  H       -2.9504610    -0.8515990     0.7760110
  H       -4.1552594     1.4192343     0.8265721
  H       -4.2413300     1.2926870    -1.0190020
  H       -5.1195520     0.1037900    -0.0468840
units angstrom
no_reorient  #important for SAPT in psi4, default
symmetry c1  #important for SAPT in psi4, default
}

set PROPERTIES_ORIGIN ["COM"]
properties('MP2/aug-cc-pvtz', properties = ['dipole'])
--------------------------------------------------------------------------

    Molecular point group: c1
  Charge       = 0
  Multiplicity = 1
  Basis Set: AUG-CC-PVTZ
    Blend: AUG-CC-PVTZ
  Basis Set: (AUG-CC-PVTZ AUX)
    Blend: AUG-CC-PVTZ-JKFIT

    Orbital Energies [Eh]
    ---------------------

    Doubly Occupied:

       1A    -92.057722     2A    -20.497591     3A    -11.261938
       4A    -11.259946     5A    -11.237821     6A    -11.236000
       7A    -11.234737     8A    -11.221104     9A    -11.217872
      10A     -9.045185    11A     -6.726785    12A     -6.726597
      13A     -6.725311    14A     -1.317250    15A     -1.109704
      16A     -1.084613    17A     -1.006357    18A     -0.939361
      19A     -0.937261    20A     -0.842742    21A     -0.799123
      22A     -0.773010    23A     -0.664276    24A     -0.648351
      25A     -0.629651    26A     -0.611298    27A     -0.593670
      28A     -0.585043    29A     -0.565973    30A     -0.549017
      31A     -0.545112    32A     -0.533154    33A     -0.514863
      34A     -0.505784    35A     -0.496604    36A     -0.482754
      37A     -0.480096    38A     -0.475309    39A     -0.472390
      40A     -0.403715    41A     -0.359480

  @DF-RHF Final Energy:  -746.88531698490692

   => Energetics <=

    Nuclear Repulsion Energy =            574.8946964878006156
    One-Electron Energy =               -2164.8108866187012609
    Two-Electron Energy =                 843.0308731459938372
    Total Energy =                       -746.8853169849069218
  Basis Set: (AUG-CC-PVTZ AUX)
    Blend: AUG-CC-PVTZ-RI
    Molecular point group: c1

    Geometry (in Angstrom), charge = 0, multiplicity = 1:

       Center              X                  Y                   Z               Mass
    ------------   -----------------  -----------------  -----------------  -----------------
         S           -0.252384922401    -0.548696222371    -0.159289418376    31.972071174400
         O           -0.278092922401    -1.205601222371     1.209411581624    15.994914619570
         C            2.406701077599     0.116020777629     0.167620581624    12.000000000000
         C            1.035130077599     0.734907777629    -0.095024418376    12.000000000000
         C           -1.665342922401     0.590941777629    -0.230455418376    12.000000000000
         C            2.874280077599    -0.752885222371    -0.998566418376    12.000000000000
         C            3.419404077599     1.220499777629     0.465355581624    12.000000000000
         C           -2.968182922401    -0.194657222371    -0.147485418376    12.000000000000
         C           -4.184762922401     0.726475777629    -0.128876418376    12.000000000000
         H            2.303694077599    -0.514480222371     1.059698581624     1.007825032230
         H            0.764180077599     1.418921777629     0.718560581624     1.007825032230
         H            1.020081077599     1.282445777629    -1.046972418376     1.007825032230
         H           -1.577375922401     1.279891777629     0.618282581624     1.007825032230
         H           -1.592876922401     1.160824777629    -1.165143418376     1.007825032230
         H            2.962112077599    -0.153503222371    -1.912112418376     1.007825032230
         H            3.856709077599    -1.184048222371    -0.783879418376     1.007825032230
         H            2.185259077599    -1.578390222371    -1.198515418376     1.007825032230
         H            3.531950077599     1.886047777629    -0.397781418376     1.007825032230
         H            4.401412077599     0.792915777629     0.690329581624     1.007825032230
         H            3.108758077599     1.824552777629     1.323445581624     1.007825032230
         H           -3.034314922401    -0.884251222371    -0.997290418376     1.007825032230
         H           -2.941483922401    -0.807276222371     0.759200581624     1.007825032230
         H           -4.146282322401     1.463557077629     0.809761681624     1.007825032230
         H           -4.232352922401     1.337009777629    -1.035812418376     1.007825032230
         H           -5.110574922401     0.148112777629    -0.063694418376     1.007825032230

  Basis Set: AUG-CC-PVTZ
    Blend: AUG-CC-PVTZ
  Basis Set: (AUG-CC-PVTZ AUX)
    Blend: AUG-CC-PVTZ-JKFIT
	 Reference Energy          =    -746.8853169849069218 [Eh]
	 Singles Energy            =      -0.0000000000000000 [Eh]
	 Same-Spin Energy          =      -0.4272121924289028 [Eh]
	 Opposite-Spin Energy      =      -1.4588802486868113 [Eh]
	 Correlation Energy        =      -1.8860924411157143 [Eh]
	 Total Energy              =    -748.7714094260226148 [Eh]

	 ================> DF-SCS-MP2 Energies <==================
	-----------------------------------------------------------
	 SCS Same-Spin Scale       =       0.3333333333333333 [-]
	 SCS Opposite-Spin Scale   =       1.2000000000000000 [-]
	 SCS Same-Spin Energy      =      -0.1424040641429676 [Eh]
	 SCS Opposite-Spin Energy  =      -1.7506562984241736 [Eh]
	 SCS Correlation Energy    =      -1.8930603625671412 [Eh]
	 SCS Total Energy          =    -748.7783773474740201 [Eh]
	-----------------------------------------------------------

  Dipole Moment: [D]
     X:    -0.0381      Y:     2.8390      Z:    -2.3253     Total:     3.6699

*** Psi4 exiting successfully. Buy a developer a beer!
