                               Psi4 1.4a3.dev225

  ==> Input File <==

--------------------------------------------------------------------------
#psi4
#
memory 32 gb

molecule  {
0 1
  S       -0.2613620    -0.5930190    -0.1424790
  O       -0.2870700    -1.2499240     1.2262220
  C        2.3977240     0.0716980     0.1844310
  C        1.0261530     0.6905850    -0.0782140
  C       -1.6743200     0.5466190    -0.2136450
  C        2.8653030    -0.7972080    -0.9817560
  C        3.4164325     1.1561580     0.5312261
  C       -2.9771600    -0.2389800    -0.1306750
  C       -4.1937400     0.6821530    -0.1120660
  H        2.2947170    -0.5588030     1.0765090
  H        0.7552030     1.3745990     0.7353710
  H        1.0111040     1.2381230    -1.0301620
  H       -1.5863530     1.2355690     0.6350930
  H       -1.6018540     1.1165020    -1.1483330
  H        2.9531350    -0.1978260    -1.8953020
  H        3.8477320    -1.2283710    -0.7670690
  H        2.1762820    -1.6227130    -1.1817050
  H        3.5229730     1.8417250    -0.3809710
  H        4.3924350     0.7485930     0.7071400
  H        3.0997810     1.7802300     1.3402560
  H       -3.0432920    -0.9285740    -0.9804800
  H       -2.9504610    -0.8515990     0.7760110
  H       -4.1584820     1.3575060     0.7479640
  H       -4.2413300     1.2926870    -1.0190020
  H       -5.1195520     0.1037900    -0.0468840
units angstrom
no_reorient  #important for SAPT in psi4, default
symmetry c1  #important for SAPT in psi4, default
}

set PROPERTIES_ORIGIN ["COM"]
properties('MP2/aug-cc-pvtz', properties = ['dipole'])
--------------------------------------------------------------------------

    Molecular point group: c1
  Charge       = 0
  Multiplicity = 1
  Basis Set: AUG-CC-PVTZ
    Blend: AUG-CC-PVTZ
  Basis Set: (AUG-CC-PVTZ AUX)
    Blend: AUG-CC-PVTZ-JKFIT

    Orbital Energies [Eh]
    ---------------------

    Doubly Occupied:

       1A    -92.057887     2A    -20.497506     3A    -11.261907
       4A    -11.260186     5A    -11.237776     6A    -11.233600
       7A    -11.223840     8A    -11.221687     9A    -11.218242
      10A     -9.045324    11A     -6.726922    12A     -6.726737
      13A     -6.725447    14A     -1.317173    15A     -1.109373
      16A     -1.085094    17A     -1.007825    18A     -0.942166
      19A     -0.938113    20A     -0.845822    21A     -0.800306
      22A     -0.772501    23A     -0.664276    24A     -0.649104
      25A     -0.629704    26A     -0.615458    27A     -0.594511
      28A     -0.586609    29A     -0.567129    30A     -0.553664
      31A     -0.541623    32A     -0.534003    33A     -0.514346
      34A     -0.507455    35A     -0.499712    36A     -0.486467
      37A     -0.483161    38A     -0.476834    39A     -0.464892
      40A     -0.404076    41A     -0.359509

  @DF-RHF Final Energy:  -746.88882632267587

   => Energetics <=

    Nuclear Repulsion Energy =            575.1598930042224538
    One-Electron Energy =               -2165.3215094519978265
    Two-Electron Energy =                 843.2727901250996183
    Total Energy =                       -746.8888263226758681
  Basis Set: (AUG-CC-PVTZ AUX)
    Blend: AUG-CC-PVTZ-RI
    Molecular point group: c1

    Geometry (in Angstrom), charge = 0, multiplicity = 1:

       Center              X                  Y                   Z               Mass
    ------------   -----------------  -----------------  -----------------  -----------------
         S           -0.252849620673    -0.546653985481    -0.162729829391    31.972071174400
         O           -0.278557620673    -1.203558985481     1.205971170609    15.994914619570
         C            2.406236379327     0.118063014519     0.164180170609    12.000000000000
         C            1.034665379327     0.736950014519    -0.098464829391    12.000000000000
         C           -1.665807620673     0.592984014519    -0.233895829391    12.000000000000
         C            2.873815379327    -0.750842985481    -1.002006829391    12.000000000000
         C            3.424944879327     1.202523014519     0.510975270609    12.000000000000
         C           -2.968647620673    -0.192614985481    -0.150925829391    12.000000000000
         C           -4.185227620673     0.728518014519    -0.132316829391    12.000000000000
         H            2.303229379327    -0.512437985481     1.056258170609     1.007825032230
         H            0.763715379327     1.420964014519     0.715120170609     1.007825032230
         H            1.019616379327     1.284488014519    -1.050412829391     1.007825032230
         H           -1.577840620673     1.281934014519     0.614842170609     1.007825032230
         H           -1.593341620673     1.162867014519    -1.168583829391     1.007825032230
         H            2.961647379327    -0.151460985481    -1.915552829391     1.007825032230
         H            3.856244379327    -1.182005985481    -0.787319829391     1.007825032230
         H            2.184794379327    -1.576347985481    -1.201955829391     1.007825032230
         H            3.531485379327     1.888090014519    -0.401221829391     1.007825032230
         H            4.400947379327     0.794958014519     0.686889170609     1.007825032230
         H            3.108293379327     1.826595014519     1.320005170609     1.007825032230
         H           -3.034779620673    -0.882208985481    -1.000730829391     1.007825032230
         H           -2.941948620673    -0.805233985481     0.755760170609     1.007825032230
         H           -4.149969620673     1.403871014519     0.727713170609     1.007825032230
         H           -4.232817620673     1.339052014519    -1.039252829391     1.007825032230
         H           -5.111039620673     0.150155014519    -0.067134829391     1.007825032230

  Basis Set: AUG-CC-PVTZ
    Blend: AUG-CC-PVTZ
  Basis Set: (AUG-CC-PVTZ AUX)
    Blend: AUG-CC-PVTZ-JKFIT
	 Reference Energy          =    -746.8888263226758681 [Eh]
	 Singles Energy            =      -0.0000000000000000 [Eh]
	 Same-Spin Energy          =      -0.4272691285326239 [Eh]
	 Opposite-Spin Energy      =      -1.4583197575678204 [Eh]
	 Correlation Energy        =      -1.8855888861004444 [Eh]
	 Total Energy              =    -748.7744152087763041 [Eh]

	 ================> DF-SCS-MP2 Energies <==================
	-----------------------------------------------------------
	 SCS Same-Spin Scale       =       0.3333333333333333 [-]
	 SCS Opposite-Spin Scale   =       1.2000000000000000 [-]
	 SCS Same-Spin Energy      =      -0.1424230428442080 [Eh]
	 SCS Opposite-Spin Energy  =      -1.7499837090813843 [Eh]
	 SCS Correlation Energy    =      -1.8924067519255923 [Eh]
	 SCS Total Energy          =    -748.7812330746014595 [Eh]
	-----------------------------------------------------------

  Dipole Moment: [D]
     X:    -0.0678      Y:     2.8611      Z:    -2.2508     Total:     3.6410

*** Psi4 exiting successfully. Buy a developer a beer!
