                               Psi4 1.4a3.dev225

  ==> Input File <==

--------------------------------------------------------------------------
#psi4
#
memory 32 gb

molecule  {
0 1
  S       -0.2613620    -0.5930190    -0.1424790
  O       -0.2870700    -1.2499240     1.2262220
  C        2.3977240     0.0716980     0.1844310
  C        1.0261530     0.6905850    -0.0782140
  C       -1.6743200     0.5466190    -0.2136450
  C        2.8653030    -0.7972080    -0.9817560
  C        3.3947233     1.2121554     0.3830177
  C       -2.9771600    -0.2389800    -0.1306750
  C       -4.1937400     0.6821530    -0.1120660
  H        2.2947170    -0.5588030     1.0765090
  H        0.7552030     1.3745990     0.7353710
  H        1.0111040     1.2381230    -1.0301620
  H       -1.5863530     1.2355690     0.6350930
  H       -1.6018540     1.1165020    -1.1483330
  H        2.9531350    -0.1978260    -1.8953020
  H        3.8477320    -1.2283710    -0.7670690
  H        2.1762820    -1.6227130    -1.1817050
  H        3.5229730     1.8417250    -0.3809710
  H        4.3924350     0.7485930     0.7071400
  H        3.0997810     1.7802300     1.3402560
  H       -3.0432920    -0.9285740    -0.9804800
  H       -2.9504610    -0.8515990     0.7760110
  H       -4.1584820     1.3575060     0.7479640
  H       -4.2413300     1.2926870    -1.0190020
  H       -5.1195520     0.1037900    -0.0468840
units angstrom
no_reorient  #important for SAPT in psi4, default
symmetry c1  #important for SAPT in psi4, default
}

set PROPERTIES_ORIGIN ["COM"]
properties('MP2/aug-cc-pvtz', properties = ['dipole'])
--------------------------------------------------------------------------

    Molecular point group: c1
  Charge       = 0
  Multiplicity = 1
  Basis Set: AUG-CC-PVTZ
    Blend: AUG-CC-PVTZ
  Basis Set: (AUG-CC-PVTZ AUX)
    Blend: AUG-CC-PVTZ-JKFIT

    Orbital Energies [Eh]
    ---------------------

    Doubly Occupied:

       1A    -92.057138     2A    -20.497550     3A    -11.261526
       4A    -11.259455     5A    -11.239139     6A    -11.233321
       7A    -11.223641     8A    -11.222721     9A    -11.217289
      10A     -9.044644    11A     -6.726244    12A     -6.726048
      13A     -6.724771    14A     -1.317177    15A     -1.110935
      16A     -1.085258    17A     -1.007769    18A     -0.941995
      19A     -0.937169    20A     -0.846146    21A     -0.800613
      22A     -0.775847    23A     -0.665126    24A     -0.649567
      25A     -0.632200    26A     -0.606410    27A     -0.592967
      28A     -0.589778    29A     -0.568882    30A     -0.562021
      31A     -0.552256    32A     -0.520771    33A     -0.513739
      34A     -0.504463    35A     -0.498640    36A     -0.487637
      37A     -0.484725    38A     -0.471806    39A     -0.467304
      40A     -0.402156    41A     -0.359204

  @DF-RHF Final Energy:  -746.87800022433157

   => Energetics <=

    Nuclear Repulsion Energy =            575.5411651857733659
    One-Electron Energy =               -2166.0662321231025089
    Two-Electron Energy =                 843.6470667129974572
    Total Energy =                       -746.8780002243315721
  Basis Set: (AUG-CC-PVTZ AUX)
    Blend: AUG-CC-PVTZ-RI
    Molecular point group: c1

    Geometry (in Angstrom), charge = 0, multiplicity = 1:

       Center              X                  Y                   Z               Mass
    ------------   -----------------  -----------------  -----------------  -----------------
         S           -0.251090510983    -0.551191488889    -0.150720412525    31.972071174400
         O           -0.276798510983    -1.208096488889     1.217980587475    15.994914619570
         C            2.407995489017     0.113525511111     0.176189587475    12.000000000000
         C            1.036424489017     0.732412511111    -0.086455412525    12.000000000000
         C           -1.664048510983     0.588446511111    -0.221886412525    12.000000000000
         C            2.875574489017    -0.755380488889    -0.989997412525    12.000000000000
         C            3.404994789017     1.253982911111     0.374776287475    12.000000000000
         C           -2.966888510983    -0.197152488889    -0.138916412525    12.000000000000
         C           -4.183468510983     0.723980511111    -0.120307412525    12.000000000000
         H            2.304988489017    -0.516975488889     1.068267587475     1.007825032230
         H            0.765474489017     1.416426511111     0.727129587475     1.007825032230
         H            1.021375489017     1.279950511111    -1.038403412525     1.007825032230
         H           -1.576081510983     1.277396511111     0.626851587475     1.007825032230
         H           -1.591582510983     1.158329511111    -1.156574412525     1.007825032230
         H            2.963406489017    -0.155998488889    -1.903543412525     1.007825032230
         H            3.858003489017    -1.186543488889    -0.775310412525     1.007825032230
         H            2.186553489017    -1.580885488889    -1.189946412525     1.007825032230
         H            3.533244489017     1.883552511111    -0.389212412525     1.007825032230
         H            4.402706489017     0.790420511111     0.698898587475     1.007825032230
         H            3.110052489017     1.822057511111     1.332014587475     1.007825032230
         H           -3.033020510983    -0.886746488889    -0.988721412525     1.007825032230
         H           -2.940189510983    -0.809771488889     0.767769587475     1.007825032230
         H           -4.148210510983     1.399333511111     0.739722587475     1.007825032230
         H           -4.231058510983     1.334514511111    -1.027243412525     1.007825032230
         H           -5.109280510983     0.145617511111    -0.055125412525     1.007825032230

  Basis Set: AUG-CC-PVTZ
    Blend: AUG-CC-PVTZ
  Basis Set: (AUG-CC-PVTZ AUX)
    Blend: AUG-CC-PVTZ-JKFIT
	 Reference Energy          =    -746.8780002243315721 [Eh]
	 Singles Energy            =      -0.0000000000000000 [Eh]
	 Same-Spin Energy          =      -0.4275327933450985 [Eh]
	 Opposite-Spin Energy      =      -1.4589477518118226 [Eh]
	 Correlation Energy        =      -1.8864805451569211 [Eh]
	 Total Energy              =    -748.7644807694885003 [Eh]

	 ================> DF-SCS-MP2 Energies <==================
	-----------------------------------------------------------
	 SCS Same-Spin Scale       =       0.3333333333333333 [-]
	 SCS Opposite-Spin Scale   =       1.2000000000000000 [-]
	 SCS Same-Spin Energy      =      -0.1425109311150328 [Eh]
	 SCS Opposite-Spin Energy  =      -1.7507373021741870 [Eh]
	 SCS Correlation Energy    =      -1.8932482332892198 [Eh]
	 SCS Total Energy          =    -748.7712484576207999 [Eh]
	-----------------------------------------------------------

  Dipole Moment: [D]
     X:    -0.0444      Y:     2.9062      Z:    -2.3227     Total:     3.7206

*** Psi4 exiting successfully. Buy a developer a beer!
