                               Psi4 1.4a3.dev225

  ==> Input File <==

--------------------------------------------------------------------------
#psi4
#
memory 32 gb

molecule  {
0 1
  S       -0.2613620    -0.5930190    -0.1424790
  O       -0.2870700    -1.2499240     1.2262220
  C        2.3977240     0.0716980     0.1844310
  C        1.0261530     0.6905850    -0.0782140
  C       -1.6354313     0.5152529    -0.2116863
  C        2.8653030    -0.7972080    -0.9817560
  C        3.4104270     1.1761770     0.4821660
  C       -2.9771600    -0.2389800    -0.1306750
  C       -4.1937400     0.6821530    -0.1120660
  H        2.2947170    -0.5588030     1.0765090
  H        0.7552030     1.3745990     0.7353710
  H        1.0111040     1.2381230    -1.0301620
  H       -1.5863530     1.2355690     0.6350930
  H       -1.6018540     1.1165020    -1.1483330
  H        2.9531350    -0.1978260    -1.8953020
  H        3.8477320    -1.2283710    -0.7670690
  H        2.1762820    -1.6227130    -1.1817050
  H        3.5229730     1.8417250    -0.3809710
  H        4.3924350     0.7485930     0.7071400
  H        3.0997810     1.7802300     1.3402560
  H       -3.0432920    -0.9285740    -0.9804800
  H       -2.9504610    -0.8515990     0.7760110
  H       -4.1584820     1.3575060     0.7479640
  H       -4.2413300     1.2926870    -1.0190020
  H       -5.1195520     0.1037900    -0.0468840
units angstrom
no_reorient  #important for SAPT in psi4, default
symmetry c1  #important for SAPT in psi4, default
}

set PROPERTIES_ORIGIN ["COM"]
properties('MP2/aug-cc-pvtz', properties = ['dipole'])
--------------------------------------------------------------------------

    Molecular point group: c1
  Charge       = 0
  Multiplicity = 1
  Basis Set: AUG-CC-PVTZ
    Blend: AUG-CC-PVTZ
  Basis Set: (AUG-CC-PVTZ AUX)
    Blend: AUG-CC-PVTZ-JKFIT

    Orbital Energies [Eh]
    ---------------------

    Doubly Occupied:

       1A    -92.058229     2A    -20.497407     3A    -11.262194
       4A    -11.260009     5A    -11.237873     6A    -11.234667
       7A    -11.224524     8A    -11.221193     9A    -11.217953
      10A     -9.046179    11A     -6.727909    12A     -6.727619
      13A     -6.726328    14A     -1.318739    15A     -1.110622
      16A     -1.084148    17A     -1.010872    18A     -0.942881
      19A     -0.937364    20A     -0.847450    21A     -0.796743
      22A     -0.773695    23A     -0.663067    24A     -0.649352
      25A     -0.631633    26A     -0.611673    27A     -0.593248
      28A     -0.586986    29A     -0.566101    30A     -0.553550
      31A     -0.545355    32A     -0.533742    33A     -0.515665
      34A     -0.505922    35A     -0.496534    36A     -0.483259
      37A     -0.480080    38A     -0.474584    39A     -0.472268
      40A     -0.407836    41A     -0.361079

  @DF-RHF Final Energy:  -746.88959386854674

   => Energetics <=

    Nuclear Repulsion Energy =            576.0809839765194056
    One-Electron Energy =               -2167.1480937743349386
    Two-Electron Energy =                 844.1775159292689068
    Total Energy =                       -746.8895938685467399
  Basis Set: (AUG-CC-PVTZ AUX)
    Blend: AUG-CC-PVTZ-RI
    Molecular point group: c1

    Geometry (in Angstrom), charge = 0, multiplicity = 1:

       Center              X                  Y                   Z               Mass
    ------------   -----------------  -----------------  -----------------  -----------------
         S           -0.255514166385    -0.545734523061    -0.158913174279    31.972071174400
         O           -0.281222166385    -1.202639523061     1.209787825721    15.994914619570
         C            2.403571833615     0.118982476939     0.167996825721    12.000000000000
         C            1.032000833615     0.737869476939    -0.094648174279    12.000000000000
         C           -1.629583466385     0.562537376939    -0.228120474279    12.000000000000
         C            2.871150833615    -0.749923523061    -0.998190174279    12.000000000000
         C            3.416274833615     1.223461476939     0.465731825721    12.000000000000
         C           -2.971312166385    -0.191695523061    -0.147109174279    12.000000000000
         C           -4.187892166385     0.729437476939    -0.128500174279    12.000000000000
         H            2.300564833615    -0.511518523061     1.060074825721     1.007825032230
         H            0.761050833615     1.421883476939     0.718936825721     1.007825032230
         H            1.016951833615     1.285407476939    -1.046596174279     1.007825032230
         H           -1.580505166385     1.282853476939     0.618658825721     1.007825032230
         H           -1.596006166385     1.163786476939    -1.164767174279     1.007825032230
         H            2.958982833615    -0.150541523061    -1.911736174279     1.007825032230
         H            3.853579833615    -1.181086523061    -0.783503174279     1.007825032230
         H            2.182129833615    -1.575428523061    -1.198139174279     1.007825032230
         H            3.528820833615     1.889009476939    -0.397405174279     1.007825032230
         H            4.398282833615     0.795877476939     0.690705825721     1.007825032230
         H            3.105628833615     1.827514476939     1.323821825721     1.007825032230
         H           -3.037444166385    -0.881289523061    -0.996914174279     1.007825032230
         H           -2.944613166385    -0.804314523061     0.759576825721     1.007825032230
         H           -4.152634166385     1.404790476939     0.731529825721     1.007825032230
         H           -4.235482166385     1.339971476939    -1.035436174279     1.007825032230
         H           -5.113704166385     0.151074476939    -0.063318174279     1.007825032230

  Basis Set: AUG-CC-PVTZ
    Blend: AUG-CC-PVTZ
  Basis Set: (AUG-CC-PVTZ AUX)
    Blend: AUG-CC-PVTZ-JKFIT
	 Reference Energy          =    -746.8895938685467399 [Eh]
	 Singles Energy            =      -0.0000000000000000 [Eh]
	 Same-Spin Energy          =      -0.4273811696950063 [Eh]
	 Opposite-Spin Energy      =      -1.4581686672134528 [Eh]
	 Correlation Energy        =      -1.8855498369084591 [Eh]
	 Total Energy              =    -748.7751437054552071 [Eh]

	 ================> DF-SCS-MP2 Energies <==================
	-----------------------------------------------------------
	 SCS Same-Spin Scale       =       0.3333333333333333 [-]
	 SCS Opposite-Spin Scale   =       1.2000000000000000 [-]
	 SCS Same-Spin Energy      =      -0.1424603898983354 [Eh]
	 SCS Opposite-Spin Energy  =      -1.7498024006561435 [Eh]
	 SCS Correlation Energy    =      -1.8922627905544789 [Eh]
	 SCS Total Energy          =    -748.7818566591012086 [Eh]
	-----------------------------------------------------------

  Dipole Moment: [D]
     X:    -0.0837      Y:     2.9103      Z:    -2.2904     Total:     3.7044

*** Psi4 exiting successfully. Buy a developer a beer!
