                               Psi4 1.4a3.dev225

  ==> Input File <==

--------------------------------------------------------------------------
#psi4
#
memory 32 gb

molecule  {
0 1
  S       -0.2613620    -0.5930190    -0.1424790
  O       -0.2870700    -1.2499240     1.2262220
  C        2.3977240     0.0716980     0.1844310
  C        1.0261530     0.6905850    -0.0782140
  C       -1.6743200     0.5466190    -0.2136450
  C        2.8653030    -0.7972080    -0.9817560
  C        3.4104270     1.1761770     0.4821660
  C       -2.9771600    -0.2389800    -0.1306750
  C       -4.1937400     0.6821530    -0.1120660
  H        2.2947170    -0.5588030     1.0765090
  H        0.7552030     1.3745990     0.7353710
  H        1.0111040     1.2381230    -1.0301620
  H       -1.5863530     1.2355690     0.6350930
  H       -1.6018540     1.1165020    -1.1483330
  H        2.9491286    -0.2251664    -1.8536312
  H        3.8477320    -1.2283710    -0.7670690
  H        2.1762820    -1.6227130    -1.1817050
  H        3.5229730     1.8417250    -0.3809710
  H        4.3924350     0.7485930     0.7071400
  H        3.0997810     1.7802300     1.3402560
  H       -3.0432920    -0.9285740    -0.9804800
  H       -2.9504610    -0.8515990     0.7760110
  H       -4.1584820     1.3575060     0.7479640
  H       -4.2413300     1.2926870    -1.0190020
  H       -5.1195520     0.1037900    -0.0468840
units angstrom
no_reorient  #important for SAPT in psi4, default
symmetry c1  #important for SAPT in psi4, default
}

set PROPERTIES_ORIGIN ["COM"]
properties('MP2/aug-cc-pvtz', properties = ['dipole'])
--------------------------------------------------------------------------

    Molecular point group: c1
  Charge       = 0
  Multiplicity = 1
  Basis Set: AUG-CC-PVTZ
    Blend: AUG-CC-PVTZ
  Basis Set: (AUG-CC-PVTZ AUX)
    Blend: AUG-CC-PVTZ-JKFIT

    Orbital Energies [Eh]
    ---------------------

    Doubly Occupied:

       1A    -92.057505     2A    -20.497353     3A    -11.261664
       4A    -11.259759     5A    -11.237122     6A    -11.233424
       7A    -11.223714     8A    -11.220972     9A    -11.211398
      10A     -9.044959    11A     -6.726558    12A     -6.726369
      13A     -6.725084    14A     -1.316993    15A     -1.109918
      16A     -1.085134    17A     -1.007952    18A     -0.942911
      19A     -0.939652    20A     -0.845850    21A     -0.800238
      22A     -0.774519    23A     -0.664413    24A     -0.649445
      25A     -0.629507    26A     -0.611787    27A     -0.593019
      28A     -0.588773    29A     -0.566821    30A     -0.554919
      31A     -0.549894    32A     -0.533395    33A     -0.513765
      34A     -0.506450    35A     -0.499348    36A     -0.486046
      37A     -0.479741    38A     -0.475993    39A     -0.472976
      40A     -0.403383    41A     -0.359247

  @DF-RHF Final Energy:  -746.89062632280616

   => Energetics <=

    Nuclear Repulsion Energy =            575.5014117701310852
    One-Electron Energy =               -2166.0081407124216639
    Two-Electron Energy =                 843.6161026194843089
    Total Energy =                       -746.8906263228061562
  Basis Set: (AUG-CC-PVTZ AUX)
    Blend: AUG-CC-PVTZ-RI
    Molecular point group: c1

    Geometry (in Angstrom), charge = 0, multiplicity = 1:

       Center              X                  Y                   Z               Mass
    ------------   -----------------  -----------------  -----------------  -----------------
         S           -0.252335726240    -0.548090075161    -0.159038045656    31.972071174400
         O           -0.278043726240    -1.204995075161     1.209662954344    15.994914619570
         C            2.406750273760     0.116626924839     0.167871954344    12.000000000000
         C            1.035179273760     0.735513924839    -0.094773045656    12.000000000000
         C           -1.665293726240     0.591547924839    -0.230204045656    12.000000000000
         C            2.874329273760    -0.752279075161    -0.998315045656    12.000000000000
         C            3.419453273760     1.221105924839     0.465606954344    12.000000000000
         C           -2.968133726240    -0.194051075161    -0.147234045656    12.000000000000
         C           -4.184713726240     0.727081924839    -0.128625045656    12.000000000000
         H            2.303743273760    -0.513874075161     1.059949954344     1.007825032230
         H            0.764229273760     1.419527924839     0.718811954344     1.007825032230
         H            1.020130273760     1.283051924839    -1.046721045656     1.007825032230
         H           -1.577326726240     1.280497924839     0.618533954344     1.007825032230
         H           -1.592827726240     1.161430924839    -1.164892045656     1.007825032230
         H            2.958154873760    -0.180237475161    -1.870190245656     1.007825032230
         H            3.856758273760    -1.183442075161    -0.783628045656     1.007825032230
         H            2.185308273760    -1.577784075161    -1.198264045656     1.007825032230
         H            3.531999273760     1.886653924839    -0.397530045656     1.007825032230
         H            4.401461273760     0.793521924839     0.690580954344     1.007825032230
         H            3.108807273760     1.825158924839     1.323696954344     1.007825032230
         H           -3.034265726240    -0.883645075161    -0.997039045656     1.007825032230
         H           -2.941434726240    -0.806670075161     0.759451954344     1.007825032230
         H           -4.149455726240     1.402434924839     0.731404954344     1.007825032230
         H           -4.232303726240     1.337615924839    -1.035561045656     1.007825032230
         H           -5.110525726240     0.148718924839    -0.063443045656     1.007825032230

  Basis Set: AUG-CC-PVTZ
    Blend: AUG-CC-PVTZ
  Basis Set: (AUG-CC-PVTZ AUX)
    Blend: AUG-CC-PVTZ-JKFIT
	 Reference Energy          =    -746.8906263228061562 [Eh]
	 Singles Energy            =      -0.0000000000000000 [Eh]
	 Same-Spin Energy          =      -0.4272749957869262 [Eh]
	 Opposite-Spin Energy      =      -1.4579851673025359 [Eh]
	 Correlation Energy        =      -1.8852601630894621 [Eh]
	 Total Energy              =    -748.7758864858956258 [Eh]

	 ================> DF-SCS-MP2 Energies <==================
	-----------------------------------------------------------
	 SCS Same-Spin Scale       =       0.3333333333333333 [-]
	 SCS Opposite-Spin Scale   =       1.2000000000000000 [-]
	 SCS Same-Spin Energy      =      -0.1424249985956421 [Eh]
	 SCS Opposite-Spin Energy  =      -1.7495822007630430 [Eh]
	 SCS Correlation Energy    =      -1.8920071993586851 [Eh]
	 SCS Total Energy          =    -748.7826335221648151 [Eh]
	-----------------------------------------------------------

  Dipole Moment: [D]
     X:    -0.0464      Y:     2.8971      Z:    -2.3057     Total:     3.7029

*** Psi4 exiting successfully. Buy a developer a beer!
