                               Psi4 1.4a3.dev225

  ==> Input File <==

--------------------------------------------------------------------------
#psi4
#
memory 32 gb

molecule  {
0 1
  S       -0.2613620    -0.5930190    -0.1424790
  O       -0.2870700    -1.2499240     1.2262220
  C        2.3977240     0.0716980     0.1844310
  C        1.0261530     0.6905850    -0.0782140
  C       -1.6743200     0.5466190    -0.2136450
  C        2.8653030    -0.7972080    -0.9817560
  C        3.4104270     1.1761770     0.4821660
  C       -2.9771600    -0.2389800    -0.1306750
  C       -4.2734596     0.7425127    -0.1108466
  H        2.2947170    -0.5588030     1.0765090
  H        0.7552030     1.3745990     0.7353710
  H        1.0111040     1.2381230    -1.0301620
  H       -1.5863530     1.2355690     0.6350930
  H       -1.6018540     1.1165020    -1.1483330
  H        2.9531350    -0.1978260    -1.8953020
  H        3.8477320    -1.2283710    -0.7670690
  H        2.1762820    -1.6227130    -1.1817050
  H        3.5229730     1.8417250    -0.3809710
  H        4.3924350     0.7485930     0.7071400
  H        3.0997810     1.7802300     1.3402560
  H       -3.0432920    -0.9285740    -0.9804800
  H       -2.9504610    -0.8515990     0.7760110
  H       -4.1584820     1.3575060     0.7479640
  H       -4.2413300     1.2926870    -1.0190020
  H       -5.1195520     0.1037900    -0.0468840
units angstrom
no_reorient  #important for SAPT in psi4, default
symmetry c1  #important for SAPT in psi4, default
}

set PROPERTIES_ORIGIN ["COM"]
properties('MP2/aug-cc-pvtz', properties = ['dipole'])
--------------------------------------------------------------------------

    Molecular point group: c1
  Charge       = 0
  Multiplicity = 1
  Basis Set: AUG-CC-PVTZ
    Blend: AUG-CC-PVTZ
  Basis Set: (AUG-CC-PVTZ AUX)
    Blend: AUG-CC-PVTZ-JKFIT

    Orbital Energies [Eh]
    ---------------------

    Doubly Occupied:

       1A    -92.057260     2A    -20.497166     3A    -11.261490
       4A    -11.259578     5A    -11.237574     6A    -11.236817
       7A    -11.221049     8A    -11.220930     9A    -11.217651
      10A     -9.044723    11A     -6.726318    12A     -6.726127
      13A     -6.724841    14A     -1.316789    15A     -1.108941
      16A     -1.077275    17A     -1.002816    18A     -0.942805
      19A     -0.937083    20A     -0.849501    21A     -0.799172
      22A     -0.772741    23A     -0.663160    24A     -0.647957
      25A     -0.628009    26A     -0.610573    27A     -0.595024
      28A     -0.589698    29A     -0.570905    30A     -0.556327
      31A     -0.545144    32A     -0.533217    33A     -0.515048
      34A     -0.509648    35A     -0.491534    36A     -0.487952
      37A     -0.479117    38A     -0.473886    39A     -0.468607
      40A     -0.401901    41A     -0.358895

  @DF-RHF Final Energy:  -746.88438063702426

   => Energetics <=

    Nuclear Repulsion Energy =            573.7726500957534199
    One-Electron Energy =               -2162.5835682789679595
    Two-Electron Energy =                 841.9265375461903886
    Total Energy =                       -746.8843806370242646
  Basis Set: (AUG-CC-PVTZ AUX)
    Blend: AUG-CC-PVTZ-RI
    Molecular point group: c1

    Geometry (in Angstrom), charge = 0, multiplicity = 1:

       Center              X                  Y                   Z               Mass
    ------------   -----------------  -----------------  -----------------  -----------------
         S           -0.245903263640    -0.553167120468    -0.158853268350    31.972071174400
         O           -0.271611263640    -1.210072120468     1.209847731650    15.994914619570
         C            2.413182736360     0.111549879532     0.168056731650    12.000000000000
         C            1.041611736360     0.730436879532    -0.094588268350    12.000000000000
         C           -1.658861263640     0.586470879532    -0.230019268350    12.000000000000
         C            2.880761736360    -0.757356120468    -0.998130268350    12.000000000000
         C            3.425885736360     1.216028879532     0.465791731650    12.000000000000
         C           -2.961701263640    -0.199128120468    -0.147049268350    12.000000000000
         C           -4.258000863640     0.782364579532    -0.127220868350    12.000000000000
         H            2.310175736360    -0.518951120468     1.060134731650     1.007825032230
         H            0.770661736360     1.414450879532     0.718996731650     1.007825032230
         H            1.026562736360     1.277974879532    -1.046536268350     1.007825032230
         H           -1.570894263640     1.275420879532     0.618718731650     1.007825032230
         H           -1.586395263640     1.156353879532    -1.164707268350     1.007825032230
         H            2.968593736360    -0.157974120468    -1.911676268350     1.007825032230
         H            3.863190736360    -1.188519120468    -0.783443268350     1.007825032230
         H            2.191740736360    -1.582861120468    -1.198079268350     1.007825032230
         H            3.538431736360     1.881576879532    -0.397345268350     1.007825032230
         H            4.407893736360     0.788444879532     0.690765731650     1.007825032230
         H            3.115239736360     1.820081879532     1.323881731650     1.007825032230
         H           -3.027833263640    -0.888722120468    -0.996854268350     1.007825032230
         H           -2.935002263640    -0.811747120468     0.759636731650     1.007825032230
         H           -4.143023263640     1.397357879532     0.731589731650     1.007825032230
         H           -4.225871263640     1.332538879532    -1.035376268350     1.007825032230
         H           -5.104093263640     0.143641879532    -0.063258268350     1.007825032230

  Basis Set: AUG-CC-PVTZ
    Blend: AUG-CC-PVTZ
  Basis Set: (AUG-CC-PVTZ AUX)
    Blend: AUG-CC-PVTZ-JKFIT
	 Reference Energy          =    -746.8843806370242646 [Eh]
	 Singles Energy            =      -0.0000000000000000 [Eh]
	 Same-Spin Energy          =      -0.4270131555048575 [Eh]
	 Opposite-Spin Energy      =      -1.4583767232445146 [Eh]
	 Correlation Energy        =      -1.8853898787493721 [Eh]
	 Total Energy              =    -748.7697705157736436 [Eh]

	 ================> DF-SCS-MP2 Energies <==================
	-----------------------------------------------------------
	 SCS Same-Spin Scale       =       0.3333333333333333 [-]
	 SCS Opposite-Spin Scale   =       1.2000000000000000 [-]
	 SCS Same-Spin Energy      =      -0.1423377185016191 [Eh]
	 SCS Opposite-Spin Energy  =      -1.7500520678934175 [Eh]
	 SCS Correlation Energy    =      -1.8923897863950367 [Eh]
	 SCS Total Energy          =    -748.7767704234192934 [Eh]
	-----------------------------------------------------------

  Dipole Moment: [D]
     X:    -0.0565      Y:     2.8917      Z:    -2.2801     Total:     3.6829

*** Psi4 exiting successfully. Buy a developer a beer!
