                               Psi4 1.4a3.dev225

  ==> Input File <==

--------------------------------------------------------------------------
#psi4
#
memory 32 gb

molecule  {
0 1
  S       -0.2613620    -0.5930190    -0.1424790
  O       -0.2870700    -1.2499240     1.2262220
  C        2.3977240     0.0716980     0.1844310
  C        1.0261530     0.6905850    -0.0782140
  C       -1.6743200     0.5466190    -0.2136450
  C        2.8653030    -0.7972080    -0.9817560
  C        3.4104270     1.1761770     0.4821660
  C       -2.9771600    -0.2389800    -0.1306750
  C       -4.1937400     0.6821530    -0.1120660
  H        2.2947170    -0.5588030     1.0765090
  H        0.7552030     1.3745990     0.7353710
  H        1.0111040     1.2381230    -1.0301620
  H       -1.5863530     1.2355690     0.6350930
  H       -1.6018540     1.1165020    -1.1483330
  H        2.9531350    -0.1978260    -1.8953020
  H        3.8477320    -1.2283710    -0.7670690
  H        2.1762820    -1.6227130    -1.1817050
  H        3.5229730     1.8417250    -0.3809710
  H        4.3878314     0.6990693     0.6039443
  H        3.0997810     1.7802300     1.3402560
  H       -3.0432920    -0.9285740    -0.9804800
  H       -2.9504610    -0.8515990     0.7760110
  H       -4.1584820     1.3575060     0.7479640
  H       -4.2413300     1.2926870    -1.0190020
  H       -5.1195520     0.1037900    -0.0468840
units angstrom
no_reorient  #important for SAPT in psi4, default
symmetry c1  #important for SAPT in psi4, default
}

set PROPERTIES_ORIGIN ["COM"]
properties('MP2/aug-cc-pvtz', properties = ['dipole'])
--------------------------------------------------------------------------

    Molecular point group: c1
  Charge       = 0
  Multiplicity = 1
  Basis Set: AUG-CC-PVTZ
    Blend: AUG-CC-PVTZ
  Basis Set: (AUG-CC-PVTZ AUX)
    Blend: AUG-CC-PVTZ-JKFIT

    Orbital Energies [Eh]
    ---------------------

    Doubly Occupied:

       1A    -92.057326     2A    -20.497321     3A    -11.261582
       4A    -11.259535     5A    -11.237231     6A    -11.233363
       7A    -11.223673     8A    -11.221309     9A    -11.218143
      10A     -9.044799    11A     -6.726399    12A     -6.726207
      13A     -6.724925    14A     -1.316965    15A     -1.109860
      16A     -1.085082    17A     -1.007868    18A     -0.942106
      19A     -0.936960    20A     -0.845521    21A     -0.799988
      22A     -0.772753    23A     -0.664196    24A     -0.648179
      25A     -0.629499    26A     -0.614816    27A     -0.594050
      28A     -0.587118    29A     -0.566061    30A     -0.554209
      31A     -0.545025    32A     -0.533081    33A     -0.514007
      34A     -0.506480    35A     -0.499339    36A     -0.485877
      37A     -0.481018    38A     -0.474125    39A     -0.472670
      40A     -0.402872    41A     -0.359198

  @DF-RHF Final Energy:  -746.89030828558828

   => Energetics <=

    Nuclear Repulsion Energy =            575.3821174694703586
    One-Electron Energy =               -2165.7833774247110341
    Two-Electron Energy =                 843.5109516696523997
    Total Energy =                       -746.8903082855882758
  Basis Set: (AUG-CC-PVTZ AUX)
    Blend: AUG-CC-PVTZ-RI
    Molecular point group: c1

    Geometry (in Angstrom), charge = 0, multiplicity = 1:

       Center              X                  Y                   Z               Mass
    ------------   -----------------  -----------------  -----------------  -----------------
         S           -0.252331662061    -0.547939109161    -0.158052172676    31.972071174400
         O           -0.278039662061    -1.204844109161     1.210648827324    15.994914619570
         C            2.406754337939     0.116777890839     0.168857827324    12.000000000000
         C            1.035183337939     0.735664890839    -0.093787172676    12.000000000000
         C           -1.665289662061     0.591698890839    -0.229218172676    12.000000000000
         C            2.874333337939    -0.752128109161    -0.997329172676    12.000000000000
         C            3.419457337939     1.221256890839     0.466592827324    12.000000000000
         C           -2.968129662061    -0.193900109161    -0.146248172676    12.000000000000
         C           -4.184709662061     0.727232890839    -0.127639172676    12.000000000000
         H            2.303747337939    -0.513723109161     1.060935827324     1.007825032230
         H            0.764233337939     1.419678890839     0.719797827324     1.007825032230
         H            1.020134337939     1.283202890839    -1.045735172676     1.007825032230
         H           -1.577322662061     1.280648890839     0.619519827324     1.007825032230
         H           -1.592823662061     1.161581890839    -1.163906172676     1.007825032230
         H            2.962165337939    -0.152746109161    -1.910875172676     1.007825032230
         H            3.856762337939    -1.183291109161    -0.782642172676     1.007825032230
         H            2.185312337939    -1.577633109161    -1.197278172676     1.007825032230
         H            3.532003337939     1.886804890839    -0.396544172676     1.007825032230
         H            4.396861737939     0.744149190839     0.588371127324     1.007825032230
         H            3.108811337939     1.825309890839     1.324682827324     1.007825032230
         H           -3.034261662061    -0.883494109161    -0.996053172676     1.007825032230
         H           -2.941430662061    -0.806519109161     0.760437827324     1.007825032230
         H           -4.149451662061     1.402585890839     0.732390827324     1.007825032230
         H           -4.232299662061     1.337766890839    -1.034575172676     1.007825032230
         H           -5.110521662061     0.148869890839    -0.062457172676     1.007825032230

  Basis Set: AUG-CC-PVTZ
    Blend: AUG-CC-PVTZ
  Basis Set: (AUG-CC-PVTZ AUX)
    Blend: AUG-CC-PVTZ-JKFIT
	 Reference Energy          =    -746.8903082855882758 [Eh]
	 Singles Energy            =      -0.0000000000000000 [Eh]
	 Same-Spin Energy          =      -0.4273857583659774 [Eh]
	 Opposite-Spin Energy      =      -1.4584363668608529 [Eh]
	 Correlation Energy        =      -1.8858221252268303 [Eh]
	 Total Energy              =    -748.7761304108150853 [Eh]

	 ================> DF-SCS-MP2 Energies <==================
	-----------------------------------------------------------
	 SCS Same-Spin Scale       =       0.3333333333333333 [-]
	 SCS Opposite-Spin Scale   =       1.2000000000000000 [-]
	 SCS Same-Spin Energy      =      -0.1424619194553258 [Eh]
	 SCS Opposite-Spin Energy  =      -1.7501236402330234 [Eh]
	 SCS Correlation Energy    =      -1.8925855596883492 [Eh]
	 SCS Total Energy          =    -748.7828938452765897 [Eh]
	-----------------------------------------------------------

  Dipole Moment: [D]
     X:    -0.0511      Y:     2.8823      Z:    -2.3131     Total:     3.6960

*** Psi4 exiting successfully. Buy a developer a beer!
