                               Psi4 1.4a3.dev225

  ==> Input File <==

--------------------------------------------------------------------------
#psi4
#
memory 32 gb

molecule  {
0 1
  S       -0.2613620    -0.5930190    -0.1424790
  O       -0.2870700    -1.2499240     1.2262220
  C        2.3977240     0.0716980     0.1844310
  C        1.0261530     0.6905850    -0.0782140
  C       -1.6743200     0.5466190    -0.2136450
  C        2.8653030    -0.7972080    -0.9817560
  C        3.4104270     1.1761770     0.4821660
  C       -2.9771600    -0.2389800    -0.1306750
  C       -4.1937400     0.6821530    -0.1120660
  H        2.2947170    -0.5588030     1.0765090
  H        0.7552030     1.3745990     0.7353710
  H        1.0111040     1.2381230    -1.0301620
  H       -1.5863530     1.2355690     0.6350930
  H       -1.6018540     1.1165020    -1.1483330
  H        2.9531350    -0.1978260    -1.8953020
  H        3.8477320    -1.2283710    -0.7670690
  H        2.1762820    -1.6227130    -1.1817050
  H        3.5229730     1.8417250    -0.3809710
  H        4.3924350     0.7485930     0.7071400
  H        3.0997810     1.7802300     1.3402560
  H       -3.0432920    -0.9285740    -0.9804800
  H       -2.9504610    -0.8515990     0.7760110
  H       -4.1584820     1.3575060     0.7479640
  H       -4.2404602     1.2815288    -1.0024268
  H       -5.1195520     0.1037900    -0.0468840
units angstrom
no_reorient  #important for SAPT in psi4, default
symmetry c1  #important for SAPT in psi4, default
}

set PROPERTIES_ORIGIN ["COM"]
properties('MP2/aug-cc-pvtz', properties = ['dipole'])
--------------------------------------------------------------------------

    Molecular point group: c1
  Charge       = 0
  Multiplicity = 1
  Basis Set: AUG-CC-PVTZ
    Blend: AUG-CC-PVTZ
  Basis Set: (AUG-CC-PVTZ AUX)
    Blend: AUG-CC-PVTZ-JKFIT

    Orbital Energies [Eh]
    ---------------------

    Doubly Occupied:

       1A    -92.057552     2A    -20.497417     3A    -11.261692
       4A    -11.259800     5A    -11.237720     6A    -11.233222
       7A    -11.221211     8A    -11.221039     9A    -11.217779
      10A     -9.045008    11A     -6.726607    12A     -6.726418
      13A     -6.725133    14A     -1.317064    15A     -1.109621
      16A     -1.085214    17A     -1.008019    18A     -0.942602
      19A     -0.937202    20A     -0.846376    21A     -0.800420
      22A     -0.772923    23A     -0.664686    24A     -0.649395
      25A     -0.629691    26A     -0.611316    27A     -0.593367
      28A     -0.587848    29A     -0.567981    30A     -0.554145
      31A     -0.545191    32A     -0.533236    33A     -0.513954
      34A     -0.506668    35A     -0.499561    36A     -0.486741
      37A     -0.480023    38A     -0.475620    39A     -0.472489
      40A     -0.403436    41A     -0.359314

  @DF-RHF Final Energy:  -746.89164257175469

   => Energetics <=

    Nuclear Repulsion Energy =            575.3553279283981965
    One-Electron Energy =               -2165.7245482695557257
    Two-Electron Energy =                 843.4775777694027283
    Total Energy =                       -746.8916425717546872
  Basis Set: (AUG-CC-PVTZ AUX)
    Blend: AUG-CC-PVTZ-RI
    Molecular point group: c1

    Geometry (in Angstrom), charge = 0, multiplicity = 1:

       Center              X                  Y                   Z               Mass
    ------------   -----------------  -----------------  -----------------  -----------------
         S           -0.252368910681    -0.548200201338    -0.158867260320    31.972071174400
         O           -0.278076910681    -1.205105201338     1.209833739680    15.994914619570
         C            2.406717089319     0.116516798662     0.168042739680    12.000000000000
         C            1.035146089319     0.735403798662    -0.094602260320    12.000000000000
         C           -1.665326910681     0.591437798662    -0.230033260320    12.000000000000
         C            2.874296089319    -0.752389201338    -0.998144260320    12.000000000000
         C            3.419420089319     1.220995798662     0.465777739680    12.000000000000
         C           -2.968166910681    -0.194161201338    -0.147063260320    12.000000000000
         C           -4.184746910681     0.726971798662    -0.128454260320    12.000000000000
         H            2.303710089319    -0.513984201338     1.060120739680     1.007825032230
         H            0.764196089319     1.419417798662     0.718982739680     1.007825032230
         H            1.020097089319     1.282941798662    -1.046550260320     1.007825032230
         H           -1.577359910681     1.280387798662     0.618704739680     1.007825032230
         H           -1.592860910681     1.161320798662    -1.164721260320     1.007825032230
         H            2.962128089319    -0.153007201338    -1.911690260320     1.007825032230
         H            3.856725089319    -1.183552201338    -0.783457260320     1.007825032230
         H            2.185275089319    -1.577894201338    -1.198093260320     1.007825032230
         H            3.531966089319     1.886543798662    -0.397359260320     1.007825032230
         H            4.401428089319     0.793411798662     0.690751739680     1.007825032230
         H            3.108774089319     1.825048798662     1.323867739680     1.007825032230
         H           -3.034298910681    -0.883755201338    -0.996868260320     1.007825032230
         H           -2.941467910681    -0.806780201338     0.759622739680     1.007825032230
         H           -4.149488910681     1.402324798662     0.731575739680     1.007825032230
         H           -4.231467110681     1.326347598662    -1.018815060320     1.007825032230
         H           -5.110558910681     0.148608798662    -0.063272260320     1.007825032230

  Basis Set: AUG-CC-PVTZ
    Blend: AUG-CC-PVTZ
  Basis Set: (AUG-CC-PVTZ AUX)
    Blend: AUG-CC-PVTZ-JKFIT
	 Reference Energy          =    -746.8916425717546872 [Eh]
	 Singles Energy            =      -0.0000000000000000 [Eh]
	 Same-Spin Energy          =      -0.4272779564253270 [Eh]
	 Opposite-Spin Energy      =      -1.4581386157037801 [Eh]
	 Correlation Energy        =      -1.8854165721291070 [Eh]
	 Total Energy              =    -748.7770591438837755 [Eh]

	 ================> DF-SCS-MP2 Energies <==================
	-----------------------------------------------------------
	 SCS Same-Spin Scale       =       0.3333333333333333 [-]
	 SCS Opposite-Spin Scale   =       1.2000000000000000 [-]
	 SCS Same-Spin Energy      =      -0.1424259854751090 [Eh]
	 SCS Opposite-Spin Energy  =      -1.7497663388445361 [Eh]
	 SCS Correlation Energy    =      -1.8921923243196450 [Eh]
	 SCS Total Energy          =    -748.7838348960743815 [Eh]
	-----------------------------------------------------------

  Dipole Moment: [D]
     X:    -0.0570      Y:     2.8947      Z:    -2.2873     Total:     3.6898

*** Psi4 exiting successfully. Buy a developer a beer!
