                               Psi4 1.4a3.dev225

  ==> Input File <==

--------------------------------------------------------------------------
#psi4
#
memory 32 gb

molecule  {
0 1
  S       -0.2613620    -0.5930190    -0.1424790
  O       -0.2870700    -1.2499240     1.2262220
  C        2.3977240     0.0716980     0.1844310
  C        1.0261530     0.6905850    -0.0782140
  C       -1.6743200     0.5466190    -0.2136450
  C        2.8653030    -0.7972080    -0.9817560
  C        3.4104270     1.1761770     0.4821660
  C       -2.9771600    -0.2389800    -0.1306750
  C       -4.1937400     0.6821530    -0.1120660
  H        2.2947170    -0.5588030     1.0765090
  H        0.7552030     1.3745990     0.7353710
  H        1.0111040     1.2381230    -1.0301620
  H       -1.5863530     1.2355690     0.6350930
  H       -1.5985514     1.1424739    -1.1909306
  H        2.9531350    -0.1978260    -1.8953020
  H        3.8477320    -1.2283710    -0.7670690
  H        2.1762820    -1.6227130    -1.1817050
  H        3.5229730     1.8417250    -0.3809710
  H        4.3924350     0.7485930     0.7071400
  H        3.0997810     1.7802300     1.3402560
  H       -3.0432920    -0.9285740    -0.9804800
  H       -2.9504610    -0.8515990     0.7760110
  H       -4.1584820     1.3575060     0.7479640
  H       -4.2413300     1.2926870    -1.0190020
  H       -5.1195520     0.1037900    -0.0468840
units angstrom
no_reorient  #important for SAPT in psi4, default
symmetry c1  #important for SAPT in psi4, default
}

set PROPERTIES_ORIGIN ["COM"]
properties('MP2/aug-cc-pvtz', properties = ['dipole'])
--------------------------------------------------------------------------

    Molecular point group: c1
  Charge       = 0
  Multiplicity = 1
  Basis Set: AUG-CC-PVTZ
    Blend: AUG-CC-PVTZ
  Basis Set: (AUG-CC-PVTZ AUX)
    Blend: AUG-CC-PVTZ-JKFIT

    Orbital Energies [Eh]
    ---------------------

    Doubly Occupied:

       1A    -92.057947     2A    -20.497866     3A    -11.267427
       4A    -11.259793     5A    -11.237726     6A    -11.233943
       7A    -11.223789     8A    -11.221049     9A    -11.217795
      10A     -9.045369    11A     -6.726963    12A     -6.726771
      13A     -6.725489    14A     -1.317444    15A     -1.109382
      16A     -1.083911    17A     -1.007463    18A     -0.940618
      19A     -0.937206    20A     -0.845824    21A     -0.797169
      22A     -0.772854    23A     -0.662463    24A     -0.647558
      25A     -0.629878    26A     -0.611043    27A     -0.592777
      28A     -0.587977    29A     -0.563311    30A     -0.554334
      31A     -0.545038    32A     -0.532942    33A     -0.514183
      34A     -0.506356    35A     -0.499488    36A     -0.484498
      37A     -0.480009    38A     -0.475749    39A     -0.472542
      40A     -0.403670    41A     -0.359632

  @DF-RHF Final Energy:  -746.88942799977917

   => Energetics <=

    Nuclear Repulsion Energy =            575.0189713715210473
    One-Electron Energy =               -2165.0623030694923727
    Two-Electron Energy =                 843.1539036981921527
    Total Energy =                       -746.8894279997791728
  Basis Set: (AUG-CC-PVTZ AUX)
    Blend: AUG-CC-PVTZ-RI
    Molecular point group: c1

    Geometry (in Angstrom), charge = 0, multiplicity = 1:

       Center              X                  Y                   Z               Mass
    ------------   -----------------  -----------------  -----------------  -----------------
         S           -0.252385466833    -0.548452886136    -0.158464566359    31.972071174400
         O           -0.278093466833    -1.205357886136     1.210236433641    15.994914619570
         C            2.406700533167     0.116264113864     0.168445433641    12.000000000000
         C            1.035129533167     0.735151113864    -0.094199566359    12.000000000000
         C           -1.665343466833     0.591185113864    -0.229630566359    12.000000000000
         C            2.874279533167    -0.752641886136    -0.997741566359    12.000000000000
         C            3.419403533167     1.220743113864     0.466180433641    12.000000000000
         C           -2.968183466833    -0.194413886136    -0.146660566359    12.000000000000
         C           -4.184763466833     0.726719113864    -0.128051566359    12.000000000000
         H            2.303693533167    -0.514236886136     1.060523433641     1.007825032230
         H            0.764179533167     1.419165113864     0.719385433641     1.007825032230
         H            1.020080533167     1.282689113864    -1.046147566359     1.007825032230
         H           -1.577376466833     1.280135113864     0.619107433641     1.007825032230
         H           -1.589574866833     1.187040013864    -1.206916166359     1.007825032230
         H            2.962111533167    -0.153259886136    -1.911287566359     1.007825032230
         H            3.856708533167    -1.183804886136    -0.783054566359     1.007825032230
         H            2.185258533167    -1.578146886136    -1.197690566359     1.007825032230
         H            3.531949533167     1.886291113864    -0.396956566359     1.007825032230
         H            4.401411533167     0.793159113864     0.691154433641     1.007825032230
         H            3.108757533167     1.824796113864     1.324270433641     1.007825032230
         H           -3.034315466833    -0.884007886136    -0.996465566359     1.007825032230
         H           -2.941484466833    -0.807032886136     0.760025433641     1.007825032230
         H           -4.149505466833     1.402072113864     0.731978433641     1.007825032230
         H           -4.232353466833     1.337253113864    -1.034987566359     1.007825032230
         H           -5.110575466833     0.148356113864    -0.062869566359     1.007825032230

  Basis Set: AUG-CC-PVTZ
    Blend: AUG-CC-PVTZ
  Basis Set: (AUG-CC-PVTZ AUX)
    Blend: AUG-CC-PVTZ-JKFIT
	 Reference Energy          =    -746.8894279997791728 [Eh]
	 Singles Energy            =      -0.0000000000000000 [Eh]
	 Same-Spin Energy          =      -0.4273440823998149 [Eh]
	 Opposite-Spin Energy      =      -1.4586440542557102 [Eh]
	 Correlation Energy        =      -1.8859881366555251 [Eh]
	 Total Energy              =    -748.7754161364347283 [Eh]

	 ================> DF-SCS-MP2 Energies <==================
	-----------------------------------------------------------
	 SCS Same-Spin Scale       =       0.3333333333333333 [-]
	 SCS Opposite-Spin Scale   =       1.2000000000000000 [-]
	 SCS Same-Spin Energy      =      -0.1424480274666050 [Eh]
	 SCS Opposite-Spin Energy  =      -1.7503728651068522 [Eh]
	 SCS Correlation Energy    =      -1.8928208925734571 [Eh]
	 SCS Total Energy          =    -748.7822488923526407 [Eh]
	-----------------------------------------------------------

  Dipole Moment: [D]
     X:    -0.0581      Y:     2.8701      Z:    -2.2612     Total:     3.6543

*** Psi4 exiting successfully. Buy a developer a beer!
