                               Psi4 1.4a3.dev225

  ==> Input File <==

--------------------------------------------------------------------------
#psi4
#
memory 32 gb

molecule  {
0 1
  S       -0.2613620    -0.5930190    -0.1424790
  O       -0.2870700    -1.2499240     1.2262220
  C        2.4301278     0.1133864     0.0918068
  C        1.0261530     0.6905850    -0.0782140
  C       -1.6743200     0.5466190    -0.2136450
  C        2.8653030    -0.7972080    -0.9817560
  C        3.4104270     1.1761770     0.4821660
  C       -2.9771600    -0.2389800    -0.1306750
  C       -4.1937400     0.6821530    -0.1120660
  H        2.2947170    -0.5588030     1.0765090
  H        0.7552030     1.3745990     0.7353710
  H        1.0111040     1.2381230    -1.0301620
  H       -1.5863530     1.2355690     0.6350930
  H       -1.6018540     1.1165020    -1.1483330
  H        2.9531350    -0.1978260    -1.8953020
  H        3.8477320    -1.2283710    -0.7670690
  H        2.1762820    -1.6227130    -1.1817050
  H        3.5229730     1.8417250    -0.3809710
  H        4.3924350     0.7485930     0.7071400
  H        3.0997810     1.7802300     1.3402560
  H       -3.0432920    -0.9285740    -0.9804800
  H       -2.9504610    -0.8515990     0.7760110
  H       -4.1584820     1.3575060     0.7479640
  H       -4.2413300     1.2926870    -1.0190020
  H       -5.1195520     0.1037900    -0.0468840
units angstrom
no_reorient  #important for SAPT in psi4, default
symmetry c1  #important for SAPT in psi4, default
}

set PROPERTIES_ORIGIN ["COM"]
properties('MP2/aug-cc-pvtz', properties = ['dipole'])
--------------------------------------------------------------------------

    Molecular point group: c1
  Charge       = 0
  Multiplicity = 1
  Basis Set: AUG-CC-PVTZ
    Blend: AUG-CC-PVTZ
  Basis Set: (AUG-CC-PVTZ AUX)
    Blend: AUG-CC-PVTZ-JKFIT

    Orbital Energies [Eh]
    ---------------------

    Doubly Occupied:

       1A    -92.058648     2A    -20.497328     3A    -11.262377
       4A    -11.260599     5A    -11.242183     6A    -11.233929
       7A    -11.224069     8A    -11.221224     9A    -11.217466
      10A     -9.045971    11A     -6.727558    12A     -6.727407
      13A     -6.726108    14A     -1.316906    15A     -1.115345
      16A     -1.086880    17A     -1.010638    18A     -0.946532
      19A     -0.943414    20A     -0.845657    21A     -0.799989
      22A     -0.760277    23A     -0.666036    24A     -0.652359
      25A     -0.631672    26A     -0.614530    27A     -0.596374
      28A     -0.588090    29A     -0.568671    30A     -0.553937
      31A     -0.544793    32A     -0.535909    33A     -0.514943
      34A     -0.510480    35A     -0.500363    36A     -0.497103
      37A     -0.486296    38A     -0.477040    39A     -0.436362
      40A     -0.404466    41A     -0.359574

  @DF-RHF Final Energy:  -746.87842576375351

   => Energetics <=

    Nuclear Repulsion Energy =            575.4423832519414646
    One-Electron Energy =               -2165.8226069310376261
    Two-Electron Energy =                 843.5017979153426495
    Total Energy =                       -746.8784257637535120
  Basis Set: (AUG-CC-PVTZ AUX)
    Blend: AUG-CC-PVTZ-RI
    Molecular point group: c1

    Geometry (in Angstrom), charge = 0, multiplicity = 1:

       Center              X                  Y                   Z               Mass
    ------------   -----------------  -----------------  -----------------  -----------------
         S           -0.254988690991    -0.551654173664    -0.151249064319    31.972071174400
         O           -0.280696690991    -1.208559173664     1.217451935681    15.994914619570
         C            2.436501109009     0.154751226336     0.083036735681    12.000000000000
         C            1.032526309009     0.731949826336    -0.086984064319    12.000000000000
         C           -1.667946690991     0.587983826336    -0.222415064319    12.000000000000
         C            2.871676309009    -0.755843173664    -0.990526064319    12.000000000000
         C            3.416800309009     1.217541826336     0.473395935681    12.000000000000
         C           -2.970786690991    -0.197615173664    -0.139445064319    12.000000000000
         C           -4.187366690991     0.723517826336    -0.120836064319    12.000000000000
         H            2.301090309009    -0.517438173664     1.067738935681     1.007825032230
         H            0.761576309009     1.415963826336     0.726600935681     1.007825032230
         H            1.017477309009     1.279487826336    -1.038932064319     1.007825032230
         H           -1.579979690991     1.276933826336     0.626322935681     1.007825032230
         H           -1.595480690991     1.157866826336    -1.157103064319     1.007825032230
         H            2.959508309009    -0.156461173664    -1.904072064319     1.007825032230
         H            3.854105309009    -1.187006173664    -0.775839064319     1.007825032230
         H            2.182655309009    -1.581348173664    -1.190475064319     1.007825032230
         H            3.529346309009     1.883089826336    -0.389741064319     1.007825032230
         H            4.398808309009     0.789957826336     0.698369935681     1.007825032230
         H            3.106154309009     1.821594826336     1.331485935681     1.007825032230
         H           -3.036918690991    -0.887209173664    -0.989250064319     1.007825032230
         H           -2.944087690991    -0.810234173664     0.767240935681     1.007825032230
         H           -4.152108690991     1.398870826336     0.739193935681     1.007825032230
         H           -4.234956690991     1.334051826336    -1.027772064319     1.007825032230
         H           -5.113178690991     0.145154826336    -0.055654064319     1.007825032230

  Basis Set: AUG-CC-PVTZ
    Blend: AUG-CC-PVTZ
  Basis Set: (AUG-CC-PVTZ AUX)
    Blend: AUG-CC-PVTZ-JKFIT
	 Reference Energy          =    -746.8784257637535120 [Eh]
	 Singles Energy            =      -0.0000000000000000 [Eh]
	 Same-Spin Energy          =      -0.4281870133770751 [Eh]
	 Opposite-Spin Energy      =      -1.4596294829575658 [Eh]
	 Correlation Energy        =      -1.8878164963346409 [Eh]
	 Total Energy              =    -748.7662422600881200 [Eh]

	 ================> DF-SCS-MP2 Energies <==================
	-----------------------------------------------------------
	 SCS Same-Spin Scale       =       0.3333333333333333 [-]
	 SCS Opposite-Spin Scale   =       1.2000000000000000 [-]
	 SCS Same-Spin Energy      =      -0.1427290044590250 [Eh]
	 SCS Opposite-Spin Energy  =      -1.7515553795490788 [Eh]
	 SCS Correlation Energy    =      -1.8942843840081038 [Eh]
	 SCS Total Energy          =    -748.7727101477615861 [Eh]
	-----------------------------------------------------------

  Dipole Moment: [D]
     X:    -0.0723      Y:     2.8742      Z:    -2.2973     Total:     3.6802

*** Psi4 exiting successfully. Buy a developer a beer!
