                               Psi4 1.4a3.dev225

  ==> Input File <==

--------------------------------------------------------------------------
#psi4
#
memory 32 gb

molecule  {
0 1
  S       -0.2613620    -0.5930190    -0.1424790
  O       -0.2870700    -1.2499240     1.2262220
  C        2.3977240     0.0716980     0.1844310
  C        1.0261530     0.6905850    -0.0782140
  C       -1.6743200     0.5466190    -0.2136450
  C        2.8209463    -0.8263483    -0.9766098
  C        3.4104270     1.1761770     0.4821660
  C       -2.9771600    -0.2389800    -0.1306750
  C       -4.1937400     0.6821530    -0.1120660
  H        2.2947170    -0.5588030     1.0765090
  H        0.7552030     1.3745990     0.7353710
  H        1.0111040     1.2381230    -1.0301620
  H       -1.5863530     1.2355690     0.6350930
  H       -1.6018540     1.1165020    -1.1483330
  H        2.9531350    -0.1978260    -1.8953020
  H        3.8477320    -1.2283710    -0.7670690
  H        2.1762820    -1.6227130    -1.1817050
  H        3.5229730     1.8417250    -0.3809710
  H        4.3924350     0.7485930     0.7071400
  H        3.0997810     1.7802300     1.3402560
  H       -3.0432920    -0.9285740    -0.9804800
  H       -2.9504610    -0.8515990     0.7760110
  H       -4.1584820     1.3575060     0.7479640
  H       -4.2413300     1.2926870    -1.0190020
  H       -5.1195520     0.1037900    -0.0468840
units angstrom
no_reorient  #important for SAPT in psi4, default
symmetry c1  #important for SAPT in psi4, default
}

set PROPERTIES_ORIGIN ["COM"]
properties('MP2/aug-cc-pvtz', properties = ['dipole'])
--------------------------------------------------------------------------

    Molecular point group: c1
  Charge       = 0
  Multiplicity = 1
  Basis Set: AUG-CC-PVTZ
    Blend: AUG-CC-PVTZ
  Basis Set: (AUG-CC-PVTZ AUX)
    Blend: AUG-CC-PVTZ-JKFIT

    Orbital Energies [Eh]
    ---------------------

    Doubly Occupied:

       1A    -92.057642     2A    -20.497514     3A    -11.261779
       4A    -11.259243     5A    -11.238099     6A    -11.233505
       7A    -11.223773     8A    -11.222197     9A    -11.218545
      10A     -9.045112    11A     -6.726712    12A     -6.726524
      13A     -6.725240    14A     -1.317185    15A     -1.109777
      16A     -1.085055    17A     -1.007197    18A     -0.941462
      19A     -0.939284    20A     -0.845609    21A     -0.800328
      22A     -0.772626    23A     -0.664330    24A     -0.650283
      25A     -0.630105    26A     -0.612465    27A     -0.595986
      28A     -0.586770    29A     -0.566803    30A     -0.554187
      31A     -0.543653    32A     -0.530144    33A     -0.514051
      34A     -0.506864    35A     -0.499219    36A     -0.488590
      37A     -0.485105    38A     -0.472163    39A     -0.468829
      40A     -0.403531    41A     -0.359631

  @DF-RHF Final Energy:  -746.88833316894522

   => Energetics <=

    Nuclear Repulsion Energy =            575.5739871165569639
    One-Electron Energy =               -2166.1504123392560359
    Two-Electron Energy =                 843.6880920537538486
    Total Energy =                       -746.8883331689452234
  Basis Set: (AUG-CC-PVTZ AUX)
    Blend: AUG-CC-PVTZ-RI
    Molecular point group: c1

    Geometry (in Angstrom), charge = 0, multiplicity = 1:

       Center              X                  Y                   Z               Mass
    ------------   -----------------  -----------------  -----------------  -----------------
         S           -0.248768740952    -0.545914880990    -0.159171459344    31.972071174400
         O           -0.274476740952    -1.202819880990     1.209529540656    15.994914619570
         C            2.410317259048     0.118802119010     0.167738540656    12.000000000000
         C            1.038746259048     0.737689119010    -0.094906459344    12.000000000000
         C           -1.661726740952     0.593723119010    -0.230337459344    12.000000000000
         C            2.833539559048    -0.779244180990    -0.993302259344    12.000000000000
         C            3.423020259048     1.223281119010     0.465473540656    12.000000000000
         C           -2.964566740952    -0.191875880990    -0.147367459344    12.000000000000
         C           -4.181146740952     0.729257119010    -0.128758459344    12.000000000000
         H            2.307310259048    -0.511698880990     1.059816540656     1.007825032230
         H            0.767796259048     1.421703119010     0.718678540656     1.007825032230
         H            1.023697259048     1.285227119010    -1.046854459344     1.007825032230
         H           -1.573759740952     1.282673119010     0.618400540656     1.007825032230
         H           -1.589260740952     1.163606119010    -1.165025459344     1.007825032230
         H            2.965728259048    -0.150721880990    -1.911994459344     1.007825032230
         H            3.860325259048    -1.181266880990    -0.783761459344     1.007825032230
         H            2.188875259048    -1.575608880990    -1.198397459344     1.007825032230
         H            3.535566259048     1.888829119010    -0.397663459344     1.007825032230
         H            4.405028259048     0.795697119010     0.690447540656     1.007825032230
         H            3.112374259048     1.827334119010     1.323563540656     1.007825032230
         H           -3.030698740952    -0.881469880990    -0.997172459344     1.007825032230
         H           -2.937867740952    -0.804494880990     0.759318540656     1.007825032230
         H           -4.145888740952     1.404610119010     0.731271540656     1.007825032230
         H           -4.228736740952     1.339791119010    -1.035694459344     1.007825032230
         H           -5.106958740952     0.150894119010    -0.063576459344     1.007825032230

  Basis Set: AUG-CC-PVTZ
    Blend: AUG-CC-PVTZ
  Basis Set: (AUG-CC-PVTZ AUX)
    Blend: AUG-CC-PVTZ-JKFIT
	 Reference Energy          =    -746.8883331689452234 [Eh]
	 Singles Energy            =      -0.0000000000000000 [Eh]
	 Same-Spin Energy          =      -0.4273340364920917 [Eh]
	 Opposite-Spin Energy      =      -1.4584197310583429 [Eh]
	 Correlation Energy        =      -1.8857537675504346 [Eh]
	 Total Energy              =    -748.7740869364956779 [Eh]

	 ================> DF-SCS-MP2 Energies <==================
	-----------------------------------------------------------
	 SCS Same-Spin Scale       =       0.3333333333333333 [-]
	 SCS Opposite-Spin Scale   =       1.2000000000000000 [-]
	 SCS Same-Spin Energy      =      -0.1424446788306972 [Eh]
	 SCS Opposite-Spin Energy  =      -1.7501036772700114 [Eh]
	 SCS Correlation Energy    =      -1.8925483561007086 [Eh]
	 SCS Total Energy          =    -748.7808815250459702 [Eh]
	-----------------------------------------------------------

  Dipole Moment: [D]
     X:    -0.0564      Y:     2.8915      Z:    -2.2596     Total:     3.6701

*** Psi4 exiting successfully. Buy a developer a beer!
