                               Psi4 1.4a3.dev225

  ==> Input File <==

--------------------------------------------------------------------------
#psi4
#
memory 32 gb

molecule  {
0 1
  S       -0.2613620    -0.5930190    -0.1424790
  O       -0.2870700    -1.2499240     1.2262220
  C        2.3977240     0.0716980     0.1844310
  C        1.0261530     0.6905850    -0.0782140
  C       -1.6743200     0.5466190    -0.2136450
  C        2.8653030    -0.7972080    -0.9817560
  C        3.4104270     1.1761770     0.4821660
  C       -2.9771600    -0.2389800    -0.1306750
  C       -4.1937400     0.6821530    -0.1120660
  H        2.2947170    -0.5588030     1.0765090
  H        0.7552030     1.3745990     0.7353710
  H        1.0111040     1.2381230    -1.0301620
  H       -1.5863530     1.2355690     0.6350930
  H       -1.6018540     1.1165020    -1.1483330
  H        2.9531350    -0.1978260    -1.8953020
  H        3.8477320    -1.2283710    -0.7670690
  H        2.1762820    -1.6227130    -1.1817050
  H        3.5229730     1.8417250    -0.3809710
  H        4.3924350     0.7485930     0.7071400
  H        3.0997810     1.7802300     1.3402560
  H       -3.0432920    -0.9285740    -0.9804800
  H       -2.9504610    -0.8515990     0.7760110
  H       -4.1584820     1.3575060     0.7479640
  H       -4.2413300     1.2926870    -1.0190020
  H       -5.2888723    -0.0019859    -0.0349630
units angstrom
no_reorient  #important for SAPT in psi4, default
symmetry c1  #important for SAPT in psi4, default
}

set PROPERTIES_ORIGIN ["COM"]
properties('MP2/aug-cc-pvtz', properties = ['dipole'])
--------------------------------------------------------------------------

    Molecular point group: c1
  Charge       = 0
  Multiplicity = 1
  Basis Set: AUG-CC-PVTZ
    Blend: AUG-CC-PVTZ
  Basis Set: (AUG-CC-PVTZ AUX)
    Blend: AUG-CC-PVTZ-JKFIT

    Orbital Energies [Eh]
    ---------------------

    Doubly Occupied:

       1A    -92.059109     2A    -20.498645     3A    -11.263642
       4A    -11.260906     5A    -11.246841     6A    -11.238541
       7A    -11.235720     8A    -11.221696     9A    -11.218453
      10A     -9.046535    11A     -6.728131    12A     -6.727943
      13A     -6.726651    14A     -1.318304    15A     -1.110570
      16A     -1.085525    17A     -1.006045    18A     -0.937992
      19A     -0.937047    20A     -0.840834    21A     -0.800987
      22A     -0.773706    23A     -0.666069    24A     -0.650548
      25A     -0.627999    26A     -0.611760    27A     -0.591905
      28A     -0.578390    29A     -0.568074    30A     -0.554194
      31A     -0.545237    32A     -0.532083    33A     -0.511148
      34A     -0.507514    35A     -0.491370    36A     -0.486170
      37A     -0.480754    38A     -0.474306    39A     -0.468852
      40A     -0.403906    41A     -0.360551

  @DF-RHF Final Energy:  -746.87169409686703

   => Energetics <=

    Nuclear Repulsion Energy =            574.4739305587066838
    One-Electron Energy =               -2163.9019460421000076
    Two-Electron Energy =                 842.5563213865261787
    Total Energy =                       -746.8716940968670315
  Basis Set: (AUG-CC-PVTZ AUX)
    Blend: AUG-CC-PVTZ-RI
    Molecular point group: c1

    Geometry (in Angstrom), charge = 0, multiplicity = 1:

       Center              X                  Y                   Z               Mass
    ------------   -----------------  -----------------  -----------------  -----------------
         S           -0.251210700735    -0.547556291021    -0.158835586675    31.972071174400
         O           -0.276918700735    -1.204461291021     1.209865413325    15.994914619570
         C            2.407875299265     0.117160708979     0.168074413325    12.000000000000
         C            1.036304299265     0.736047708979    -0.094570586675    12.000000000000
         C           -1.664168700735     0.592081708979    -0.230001586675    12.000000000000
         C            2.875454299265    -0.751745291021    -0.998112586675    12.000000000000
         C            3.420578299265     1.221639708979     0.465809413325    12.000000000000
         C           -2.967008700735    -0.193517291021    -0.147031586675    12.000000000000
         C           -4.183588700735     0.727615708979    -0.128422586675    12.000000000000
         H            2.304868299265    -0.513340291021     1.060152413325     1.007825032230
         H            0.765354299265     1.420061708979     0.719014413325     1.007825032230
         H            1.021255299265     1.283585708979    -1.046518586675     1.007825032230
         H           -1.576201700735     1.281031708979     0.618736413325     1.007825032230
         H           -1.591702700735     1.161964708979    -1.164689586675     1.007825032230
         H            2.963286299265    -0.152363291021    -1.911658586675     1.007825032230
         H            3.857883299265    -1.182908291021    -0.783425586675     1.007825032230
         H            2.186433299265    -1.577250291021    -1.198061586675     1.007825032230
         H            3.533124299265     1.887187708979    -0.397327586675     1.007825032230
         H            4.402586299265     0.794055708979     0.690783413325     1.007825032230
         H            3.109932299265     1.825692708979     1.323899413325     1.007825032230
         H           -3.033140700735    -0.883111291021    -0.996836586675     1.007825032230
         H           -2.940309700735    -0.806136291021     0.759654413325     1.007825032230
         H           -4.148330700735     1.402968708979     0.731607413325     1.007825032230
         H           -4.231178700735     1.338149708979    -1.035358586675     1.007825032230
         H           -5.278721000735     0.043476808979    -0.051319586675     1.007825032230

  Basis Set: AUG-CC-PVTZ
    Blend: AUG-CC-PVTZ
  Basis Set: (AUG-CC-PVTZ AUX)
    Blend: AUG-CC-PVTZ-JKFIT
	 Reference Energy          =    -746.8716940968670315 [Eh]
	 Singles Energy            =      -0.0000000000000000 [Eh]
	 Same-Spin Energy          =      -0.4271841721915854 [Eh]
	 Opposite-Spin Energy      =      -1.4597505737080430 [Eh]
	 Correlation Energy        =      -1.8869347458996284 [Eh]
	 Total Energy              =    -748.7586288427667114 [Eh]

	 ================> DF-SCS-MP2 Energies <==================
	-----------------------------------------------------------
	 SCS Same-Spin Scale       =       0.3333333333333333 [-]
	 SCS Opposite-Spin Scale   =       1.2000000000000000 [-]
	 SCS Same-Spin Energy      =      -0.1423947240638618 [Eh]
	 SCS Opposite-Spin Energy  =      -1.7517006884496515 [Eh]
	 SCS Correlation Energy    =      -1.8940954125135134 [Eh]
	 SCS Total Energy          =    -748.7657895093805109 [Eh]
	-----------------------------------------------------------

  Dipole Moment: [D]
     X:     0.1498      Y:     2.9233      Z:    -2.2806     Total:     3.7107

*** Psi4 exiting successfully. Buy a developer a beer!
