                               Psi4 1.4a3.dev225

  ==> Input File <==

--------------------------------------------------------------------------
#psi4
#
memory 32 gb

molecule  {
0 1
  S       -0.2613620    -0.5930190    -0.1424790
  O       -0.2870700    -1.2499240     1.2262220
  C        2.3977240     0.0716980     0.1844310
  C        1.0261530     0.6905850    -0.0782140
  C       -1.6743200     0.5466190    -0.2136450
  C        2.8653030    -0.7972080    -0.9817560
  C        3.4104270     1.1761770     0.4821660
  C       -2.9771600    -0.2389800    -0.1306750
  C       -4.1937400     0.6821530    -0.1120660
  H        2.2947170    -0.5588030     1.0765090
  H        0.7552030     1.3745990     0.7353710
  H        1.0111040     1.2381230    -1.0301620
  H       -1.5863530     1.2355690     0.6350930
  H       -1.6018540     1.1165020    -1.1483330
  H        2.9531350    -0.1978260    -1.8953020
  H        3.8477320    -1.2283710    -0.7670690
  H        2.1762820    -1.6227130    -1.1817050
  H        3.5229730     1.8417250    -0.3809710
  H        4.3924350     0.7485930     0.7071400
  H        3.0997810     1.7802300     1.3402560
  H       -3.0432920    -0.9285740    -0.9804800
  H       -2.9504610    -0.8515990     0.7760110
  H       -4.1584820     1.3575060     0.7479640
  H       -4.2500276     1.4042687    -1.1847544
  H       -5.1195520     0.1037900    -0.0468840
units angstrom
no_reorient  #important for SAPT in psi4, default
symmetry c1  #important for SAPT in psi4, default
}

set PROPERTIES_ORIGIN ["COM"]
properties('MP2/aug-cc-pvtz', properties = ['dipole'])
--------------------------------------------------------------------------

    Molecular point group: c1
  Charge       = 0
  Multiplicity = 1
  Basis Set: AUG-CC-PVTZ
    Blend: AUG-CC-PVTZ
  Basis Set: (AUG-CC-PVTZ AUX)
    Blend: AUG-CC-PVTZ-JKFIT

    Orbital Energies [Eh]
    ---------------------

    Doubly Occupied:

       1A    -92.058085     2A    -20.498006     3A    -11.262363
       4A    -11.260214     5A    -11.247676     6A    -11.238029
       7A    -11.236584     8A    -11.221265     9A    -11.218019
      10A     -9.045555    11A     -6.727152    12A     -6.726968
      13A     -6.725680    14A     -1.317710    15A     -1.109950
      16A     -1.084806    17A     -1.005946    18A     -0.938065
      19A     -0.937329    20A     -0.841019    21A     -0.798668
      22A     -0.773210    23A     -0.663576    24A     -0.649408
      25A     -0.630419    26A     -0.610206    27A     -0.591664
      28A     -0.589564    29A     -0.556268    30A     -0.553007
      31A     -0.544690    32A     -0.532947    33A     -0.515641
      34A     -0.505854    35A     -0.498427    36A     -0.480673
      37A     -0.476588    38A     -0.473623    39A     -0.470024
      40A     -0.404022    41A     -0.359914

  @DF-RHF Final Energy:  -746.87214514570792

   => Energetics <=

    Nuclear Repulsion Energy =            574.5383035469766355
    One-Electron Energy =               -2164.0632664194604331
    Two-Electron Energy =                 842.6528177267757655
    Total Energy =                       -746.8721451457079183
  Basis Set: (AUG-CC-PVTZ AUX)
    Blend: AUG-CC-PVTZ-RI
    Molecular point group: c1

    Geometry (in Angstrom), charge = 0, multiplicity = 1:

       Center              X                  Y                   Z               Mass
    ------------   -----------------  -----------------  -----------------  -----------------
         S           -0.252303800796    -0.549035494183    -0.157626449958    31.972071174400
         O           -0.278011800796    -1.205940494183     1.211074550042    15.994914619570
         C            2.406782199204     0.115681505817     0.169283550042    12.000000000000
         C            1.035211199204     0.734568505817    -0.093361449958    12.000000000000
         C           -1.665261800796     0.590602505817    -0.228792449958    12.000000000000
         C            2.874361199204    -0.753224494183    -0.996903449958    12.000000000000
         C            3.419485199204     1.220160505817     0.467018550042    12.000000000000
         C           -2.968101800796    -0.194996494183    -0.145822449958    12.000000000000
         C           -4.184681800796     0.726136505817    -0.127213449958    12.000000000000
         H            2.303775199204    -0.514819494183     1.061361550042     1.007825032230
         H            0.764261199204     1.418582505817     0.720223550042     1.007825032230
         H            1.020162199204     1.282106505817    -1.045309449958     1.007825032230
         H           -1.577294800796     1.279552505817     0.619945550042     1.007825032230
         H           -1.592795800796     1.160485505817    -1.163480449958     1.007825032230
         H            2.962193199204    -0.153842494183    -1.910449449958     1.007825032230
         H            3.856790199204    -1.184387494183    -0.782216449958     1.007825032230
         H            2.185340199204    -1.578729494183    -1.196852449958     1.007825032230
         H            3.532031199204     1.885708505817    -0.396118449958     1.007825032230
         H            4.401493199204     0.792576505817     0.691992550042     1.007825032230
         H            3.108839199204     1.824213505817     1.325108550042     1.007825032230
         H           -3.034233800796    -0.884590494183    -0.995627449958     1.007825032230
         H           -2.941402800796    -0.807615494183     0.760863550042     1.007825032230
         H           -4.149423800796     1.401489505817     0.732816550042     1.007825032230
         H           -4.240969400796     1.448252205817    -1.199901849958     1.007825032230
         H           -5.110493800796     0.147773505817    -0.062031449958     1.007825032230

  Basis Set: AUG-CC-PVTZ
    Blend: AUG-CC-PVTZ
  Basis Set: (AUG-CC-PVTZ AUX)
    Blend: AUG-CC-PVTZ-JKFIT
	 Reference Energy          =    -746.8721451457079183 [Eh]
	 Singles Energy            =      -0.0000000000000000 [Eh]
	 Same-Spin Energy          =      -0.4271119783243224 [Eh]
	 Opposite-Spin Energy      =      -1.4596199806179369 [Eh]
	 Correlation Energy        =      -1.8867319589422593 [Eh]
	 Total Energy              =    -748.7588771046501961 [Eh]

	 ================> DF-SCS-MP2 Energies <==================
	-----------------------------------------------------------
	 SCS Same-Spin Scale       =       0.3333333333333333 [-]
	 SCS Opposite-Spin Scale   =       1.2000000000000000 [-]
	 SCS Same-Spin Energy      =      -0.1423706594414408 [Eh]
	 SCS Opposite-Spin Energy  =      -1.7515439767415242 [Eh]
	 SCS Correlation Energy    =      -1.8939146361829651 [Eh]
	 SCS Total Energy          =    -748.7660597818909309 [Eh]
	-----------------------------------------------------------

  Dipole Moment: [D]
     X:    -0.0013      Y:     2.7841      Z:    -2.1579     Total:     3.5224

*** Psi4 exiting successfully. Buy a developer a beer!
