                               Psi4 1.4a3.dev225

  ==> Input File <==

--------------------------------------------------------------------------
#psi4
#
memory 32 gb

molecule  {
0 1
  S       -0.2613620    -0.5930190    -0.1424790
  O       -0.2870700    -1.2499240     1.2262220
  C        2.3977240     0.0716980     0.1844310
  C        1.0261530     0.6905850    -0.0782140
  C       -1.6743200     0.5466190    -0.2136450
  C        2.8653030    -0.7972080    -0.9817560
  C        3.4104270     1.1761770     0.4821660
  C       -2.9697772    -0.2482599    -0.1068735
  C       -4.1937400     0.6821530    -0.1120660
  H        2.2947170    -0.5588030     1.0765090
  H        0.7552030     1.3745990     0.7353710
  H        1.0111040     1.2381230    -1.0301620
  H       -1.5863530     1.2355690     0.6350930
  H       -1.6018540     1.1165020    -1.1483330
  H        2.9531350    -0.1978260    -1.8953020
  H        3.8477320    -1.2283710    -0.7670690
  H        2.1762820    -1.6227130    -1.1817050
  H        3.5229730     1.8417250    -0.3809710
  H        4.3924350     0.7485930     0.7071400
  H        3.0997810     1.7802300     1.3402560
  H       -3.0432920    -0.9285740    -0.9804800
  H       -2.9504610    -0.8515990     0.7760110
  H       -4.1584820     1.3575060     0.7479640
  H       -4.2413300     1.2926870    -1.0190020
  H       -5.1195520     0.1037900    -0.0468840
units angstrom
no_reorient  #important for SAPT in psi4, default
symmetry c1  #important for SAPT in psi4, default
}

set PROPERTIES_ORIGIN ["COM"]
properties('MP2/aug-cc-pvtz', properties = ['dipole'])
--------------------------------------------------------------------------

    Molecular point group: c1
  Charge       = 0
  Multiplicity = 1
  Basis Set: AUG-CC-PVTZ
    Blend: AUG-CC-PVTZ
  Basis Set: (AUG-CC-PVTZ AUX)
    Blend: AUG-CC-PVTZ-JKFIT

    Orbital Energies [Eh]
    ---------------------

    Doubly Occupied:

       1A    -92.057339     2A    -20.497504     3A    -11.261867
       4A    -11.259666     5A    -11.237635     6A    -11.233302
       7A    -11.224218     8A    -11.220980     9A    -11.217730
      10A     -9.044828    11A     -6.726428    12A     -6.726229
      13A     -6.724947    14A     -1.317162    15A     -1.109515
      16A     -1.084488    17A     -1.006850    18A     -0.941327
      19A     -0.937146    20A     -0.846215    21A     -0.801055
      22A     -0.772866    23A     -0.665089    24A     -0.649259
      25A     -0.629025    26A     -0.611430    27A     -0.593145
      28A     -0.587012    29A     -0.566985    30A     -0.553642
      31A     -0.545035    32A     -0.532718    33A     -0.512963
      34A     -0.506982    35A     -0.500426    36A     -0.487629
      37A     -0.479988    38A     -0.475287    39A     -0.472291
      40A     -0.403110    41A     -0.359328

  @DF-RHF Final Energy:  -746.89097079836472

   => Energetics <=

    Nuclear Repulsion Energy =            575.3167329531007681
    One-Electron Energy =               -2165.6541242381954362
    Two-Electron Energy =                 843.4464204867300623
    Total Energy =                       -746.8909707983647195
  Basis Set: (AUG-CC-PVTZ AUX)
    Blend: AUG-CC-PVTZ-RI
    Molecular point group: c1

    Geometry (in Angstrom), charge = 0, multiplicity = 1:

       Center              X                  Y                   Z               Mass
    ------------   -----------------  -----------------  -----------------  -----------------
         S           -0.252961224131    -0.547524181291    -0.160683109658    31.972071174400
         O           -0.278669224131    -1.204429181291     1.208017890342    15.994914619570
         C            2.406124775869     0.117192818709     0.166226890342    12.000000000000
         C            1.034553775869     0.736079818709    -0.096418109658    12.000000000000
         C           -1.665919224131     0.592113818709    -0.231849109658    12.000000000000
         C            2.873703775869    -0.751713181291    -0.999960109658    12.000000000000
         C            3.418827775869     1.221671818709     0.463961890342    12.000000000000
         C           -2.961376424131    -0.202765081291    -0.125077609658    12.000000000000
         C           -4.185339224131     0.727647818709    -0.130270109658    12.000000000000
         H            2.303117775869    -0.513308181291     1.058304890342     1.007825032230
         H            0.763603775869     1.420093818709     0.717166890342     1.007825032230
         H            1.019504775869     1.283617818709    -1.048366109658     1.007825032230
         H           -1.577952224131     1.281063818709     0.616888890342     1.007825032230
         H           -1.593453224131     1.161996818709    -1.166537109658     1.007825032230
         H            2.961535775869    -0.152331181291    -1.913506109658     1.007825032230
         H            3.856132775869    -1.182876181291    -0.785273109658     1.007825032230
         H            2.184682775869    -1.577218181291    -1.199909109658     1.007825032230
         H            3.531373775869     1.887219818709    -0.399175109658     1.007825032230
         H            4.400835775869     0.794087818709     0.688935890342     1.007825032230
         H            3.108181775869     1.825724818709     1.322051890342     1.007825032230
         H           -3.034891224131    -0.883079181291    -0.998684109658     1.007825032230
         H           -2.942060224131    -0.806104181291     0.757806890342     1.007825032230
         H           -4.150081224131     1.403000818709     0.729759890342     1.007825032230
         H           -4.232929224131     1.338181818709    -1.037206109658     1.007825032230
         H           -5.111151224131     0.149284818709    -0.065088109658     1.007825032230

  Basis Set: AUG-CC-PVTZ
    Blend: AUG-CC-PVTZ
  Basis Set: (AUG-CC-PVTZ AUX)
    Blend: AUG-CC-PVTZ-JKFIT
	 Reference Energy          =    -746.8909707983647195 [Eh]
	 Singles Energy            =      -0.0000000000000000 [Eh]
	 Same-Spin Energy          =      -0.4272147417765170 [Eh]
	 Opposite-Spin Energy      =      -1.4582242888651855 [Eh]
	 Correlation Energy        =      -1.8854390306417024 [Eh]
	 Total Energy              =    -748.7764098290064112 [Eh]

	 ================> DF-SCS-MP2 Energies <==================
	-----------------------------------------------------------
	 SCS Same-Spin Scale       =       0.3333333333333333 [-]
	 SCS Opposite-Spin Scale   =       1.2000000000000000 [-]
	 SCS Same-Spin Energy      =      -0.1424049139255056 [Eh]
	 SCS Opposite-Spin Energy  =      -1.7498691466382226 [Eh]
	 SCS Correlation Energy    =      -1.8922740605637283 [Eh]
	 SCS Total Energy          =    -748.7832448589284695 [Eh]
	-----------------------------------------------------------

  Dipole Moment: [D]
     X:    -0.0595      Y:     2.8892      Z:    -2.2719     Total:     3.6759

*** Psi4 exiting successfully. Buy a developer a beer!
