                               Psi4 1.4a3.dev225

  ==> Input File <==

--------------------------------------------------------------------------
#psi4
#
memory 32 gb

molecule  {
0 1
  S       -0.2613620    -0.5930190    -0.1424790
  O       -0.2870700    -1.2499240     1.2262220
  C        2.3977240     0.0716980     0.1844310
  C        1.0261530     0.6905850    -0.0782140
  C       -1.6743200     0.5466190    -0.2136450
  C        2.8653030    -0.7972080    -0.9817560
  C        3.4104270     1.1761770     0.4821660
  C       -2.9771600    -0.2389800    -0.1306750
  C       -4.1937400     0.6821530    -0.1120660
  H        2.2947170    -0.5588030     1.0765090
  H        0.7552030     1.3745990     0.7353710
  H        1.0111040     1.2381230    -1.0301620
  H       -1.5863530     1.2355690     0.6350930
  H       -1.6018540     1.1165020    -1.1483330
  H        2.9531350    -0.1978260    -1.8953020
  H        3.8477320    -1.2283710    -0.7670690
  H        2.1762820    -1.6227130    -1.1817050
  H        3.5229730     1.8417250    -0.3809710
  H        4.3924350     0.7485930     0.7071400
  H        3.0997810     1.7802300     1.3402560
  H       -3.0432920    -0.9285740    -0.9804800
  H       -2.9504610    -0.8515990     0.7760110
  H       -4.1584820     1.3575060     0.7479640
  H       -4.2413300     1.2926870    -1.0190020
  H       -5.0348919     0.1566779    -0.0528445
units angstrom
no_reorient  #important for SAPT in psi4, default
symmetry c1  #important for SAPT in psi4, default
}

set PROPERTIES_ORIGIN ["COM"]
properties('MP2/aug-cc-pvtz', properties = ['dipole'])
--------------------------------------------------------------------------

    Molecular point group: c1
  Charge       = 0
  Multiplicity = 1
  Basis Set: AUG-CC-PVTZ
    Blend: AUG-CC-PVTZ
  Basis Set: (AUG-CC-PVTZ AUX)
    Blend: AUG-CC-PVTZ-JKFIT

    Orbital Energies [Eh]
    ---------------------

    Doubly Occupied:

       1A    -92.057042     2A    -20.497044     3A    -11.261112
       4A    -11.259453     5A    -11.237463     6A    -11.232704
       7A    -11.220831     8A    -11.217567     9A    -11.211290
      10A     -9.044514    11A     -6.726113    12A     -6.725924
      13A     -6.724641    14A     -1.316693    15A     -1.109365
      16A     -1.085785    17A     -1.010071    18A     -0.946421
      19A     -0.936995    20A     -0.849689    21A     -0.800192
      22A     -0.772706    23A     -0.663987    24A     -0.649146
      25A     -0.632945    26A     -0.611169    27A     -0.599907
      28A     -0.589032    29A     -0.565921    30A     -0.554532
      31A     -0.545244    32A     -0.534208    33A     -0.517322
      34A     -0.506119    35A     -0.500693    36A     -0.485706
      37A     -0.479752    38A     -0.476031    39A     -0.472411
      40A     -0.403281    41A     -0.358938

  @DF-RHF Final Energy:  -746.88556250365002

   => Energetics <=

    Nuclear Repulsion Energy =            575.7487152523477789
    One-Electron Energy =               -2166.4886394119657780
    Two-Electron Energy =                 843.8543616559680913
    Total Energy =                       -746.8855625036500214
  Basis Set: (AUG-CC-PVTZ AUX)
    Blend: AUG-CC-PVTZ-RI
    Molecular point group: c1

    Geometry (in Angstrom), charge = 0, multiplicity = 1:

       Center              X                  Y                   Z               Mass
    ------------   -----------------  -----------------  -----------------  -----------------
         S           -0.252939136321    -0.548636060004    -0.158713896100    31.972071174400
         O           -0.278647136321    -1.205541060004     1.209987103900    15.994914619570
         C            2.406146863679     0.116080939996     0.168196103900    12.000000000000
         C            1.034575863679     0.734967939996    -0.094448896100    12.000000000000
         C           -1.665897136321     0.591001939996    -0.229879896100    12.000000000000
         C            2.873725863679    -0.752825060004    -0.997990896100    12.000000000000
         C            3.418849863679     1.220559939996     0.465931103900    12.000000000000
         C           -2.968737136321    -0.194597060004    -0.146909896100    12.000000000000
         C           -4.185317136321     0.726535939996    -0.128300896100    12.000000000000
         H            2.303139863679    -0.514420060004     1.060274103900     1.007825032230
         H            0.763625863679     1.418981939996     0.719136103900     1.007825032230
         H            1.019526863679     1.282505939996    -1.046396896100     1.007825032230
         H           -1.577930136321     1.279951939996     0.618858103900     1.007825032230
         H           -1.593431136321     1.160884939996    -1.164567896100     1.007825032230
         H            2.961557863679    -0.153443060004    -1.911536896100     1.007825032230
         H            3.856154863679    -1.183988060004    -0.783303896100     1.007825032230
         H            2.184704863679    -1.578330060004    -1.197939896100     1.007825032230
         H            3.531395863679     1.886107939996    -0.397205896100     1.007825032230
         H            4.400857863679     0.792975939996     0.690905103900     1.007825032230
         H            3.108203863679     1.824612939996     1.324021103900     1.007825032230
         H           -3.034869136321    -0.884191060004    -0.996714896100     1.007825032230
         H           -2.942038136321    -0.807216060004     0.759776103900     1.007825032230
         H           -4.150059136321     1.401888939996     0.731729103900     1.007825032230
         H           -4.232907136321     1.337069939996    -1.035236896100     1.007825032230
         H           -5.026469036321     0.201060839996    -0.069079396100     1.007825032230

  Basis Set: AUG-CC-PVTZ
    Blend: AUG-CC-PVTZ
  Basis Set: (AUG-CC-PVTZ AUX)
    Blend: AUG-CC-PVTZ-JKFIT
	 Reference Energy          =    -746.8855625036500214 [Eh]
	 Singles Energy            =      -0.0000000000000000 [Eh]
	 Same-Spin Energy          =      -0.4273222171385219 [Eh]
	 Opposite-Spin Energy      =      -1.4577901829335467 [Eh]
	 Correlation Energy        =      -1.8851124000720687 [Eh]
	 Total Energy              =    -748.7706749037221243 [Eh]

	 ================> DF-SCS-MP2 Energies <==================
	-----------------------------------------------------------
	 SCS Same-Spin Scale       =       0.3333333333333333 [-]
	 SCS Opposite-Spin Scale   =       1.2000000000000000 [-]
	 SCS Same-Spin Energy      =      -0.1424407390461740 [Eh]
	 SCS Opposite-Spin Energy  =      -1.7493482195202559 [Eh]
	 SCS Correlation Energy    =      -1.8917889585664298 [Eh]
	 SCS Total Energy          =    -748.7773514622164157 [Eh]
	-----------------------------------------------------------

  Dipole Moment: [D]
     X:    -0.1247      Y:     2.8766      Z:    -2.2774     Total:     3.6711

*** Psi4 exiting successfully. Buy a developer a beer!
