                               Psi4 1.4a3.dev225

  ==> Input File <==

--------------------------------------------------------------------------
#psi4
#
memory 32 gb

molecule  {
0 1
  S       -0.2613620    -0.5930190    -0.1424790
  O       -0.2870700    -1.2499240     1.2262220
  C        2.3977240     0.0716980     0.1844310
  C        1.0261530     0.6905850    -0.0782140
  C       -1.6743200     0.5466190    -0.2136450
  C        2.8653030    -0.7972080    -0.9817560
  C        3.3850442     1.2280710     0.3330503
  C       -2.9771600    -0.2389800    -0.1306750
  C       -4.1937400     0.6821530    -0.1120660
  H        2.2947170    -0.5588030     1.0765090
  H        0.7552030     1.3745990     0.7353710
  H        1.0111040     1.2381230    -1.0301620
  H       -1.5863530     1.2355690     0.6350930
  H       -1.6018540     1.1165020    -1.1483330
  H        2.9531350    -0.1978260    -1.8953020
  H        3.8477320    -1.2283710    -0.7670690
  H        2.1762820    -1.6227130    -1.1817050
  H        3.5229730     1.8417250    -0.3809710
  H        4.3924350     0.7485930     0.7071400
  H        3.0997810     1.7802300     1.3402560
  H       -3.0432920    -0.9285740    -0.9804800
  H       -2.9504610    -0.8515990     0.7760110
  H       -4.1584820     1.3575060     0.7479640
  H       -4.2413300     1.2926870    -1.0190020
  H       -5.1195520     0.1037900    -0.0468840
units angstrom
no_reorient  #important for SAPT in psi4, default
symmetry c1  #important for SAPT in psi4, default
}

set PROPERTIES_ORIGIN ["COM"]
properties('MP2/aug-cc-pvtz', properties = ['dipole'])
--------------------------------------------------------------------------

    Molecular point group: c1
  Charge       = 0
  Multiplicity = 1
  Basis Set: AUG-CC-PVTZ
    Blend: AUG-CC-PVTZ
  Basis Set: (AUG-CC-PVTZ AUX)
    Blend: AUG-CC-PVTZ-JKFIT

    Orbital Energies [Eh]
    ---------------------

    Doubly Occupied:

       1A    -92.056997     2A    -20.497699     3A    -11.261497
       4A    -11.259454     5A    -11.240612     6A    -11.233304
       7A    -11.224968     8A    -11.223629     9A    -11.217245
      10A     -9.044531    11A     -6.726132    12A     -6.725932
      13A     -6.724658    14A     -1.317315    15A     -1.111997
      16A     -1.085483    17A     -1.008077    18A     -0.942356
      19A     -0.938306    20A     -0.847014    21A     -0.801336
      22A     -0.778191    23A     -0.665443    24A     -0.649485
      25A     -0.635742    26A     -0.605359    27A     -0.596883
      28A     -0.588533    29A     -0.573424    30A     -0.562592
      31A     -0.552719    32A     -0.516280    33A     -0.513454
      34A     -0.503784    35A     -0.498202    36A     -0.491240
      37A     -0.485167    38A     -0.469048    39A     -0.460186
      40A     -0.401397    41A     -0.359211

  @DF-RHF Final Energy:  -746.85969957151269

   => Energetics <=

    Nuclear Repulsion Energy =            575.7031953330991882
    One-Electron Energy =               -2166.3360244879227139
    Two-Electron Energy =                 843.7731295833107197
    Total Energy =                       -746.8596995715126923
  Basis Set: (AUG-CC-PVTZ AUX)
    Blend: AUG-CC-PVTZ-RI
    Molecular point group: c1

    Geometry (in Angstrom), charge = 0, multiplicity = 1:

       Center              X                  Y                   Z               Mass
    ------------   -----------------  -----------------  -----------------  -----------------
         S           -0.250306207618    -0.552481139644    -0.146671523688    31.972071174400
         O           -0.276014207618    -1.209386139644     1.222029476312    15.994914619570
         C            2.408779792382     0.112235860356     0.180238476312    12.000000000000
         C            1.037208792382     0.731122860356    -0.082406523688    12.000000000000
         C           -1.663264207618     0.587156860356    -0.217837523688    12.000000000000
         C            2.876358792382    -0.756670139644    -0.985948523688    12.000000000000
         C            3.396099992382     1.268608860356     0.328857776312    12.000000000000
         C           -2.966104207618    -0.198442139644    -0.134867523688    12.000000000000
         C           -4.182684207618     0.722690860356    -0.116258523688    12.000000000000
         H            2.305772792382    -0.518265139644     1.072316476312     1.007825032230
         H            0.766258792382     1.415136860356     0.731178476312     1.007825032230
         H            1.022159792382     1.278660860356    -1.034354523688     1.007825032230
         H           -1.575297207618     1.276106860356     0.630900476312     1.007825032230
         H           -1.590798207618     1.157039860356    -1.152525523688     1.007825032230
         H            2.964190792382    -0.157288139644    -1.899494523688     1.007825032230
         H            3.858787792382    -1.187833139644    -0.771261523688     1.007825032230
         H            2.187337792382    -1.582175139644    -1.185897523688     1.007825032230
         H            3.534028792382     1.882262860356    -0.385163523688     1.007825032230
         H            4.403490792382     0.789130860356     0.702947476312     1.007825032230
         H            3.110836792382     1.820767860356     1.336063476312     1.007825032230
         H           -3.032236207618    -0.888036139644    -0.984672523688     1.007825032230
         H           -2.939405207618    -0.811061139644     0.771818476312     1.007825032230
         H           -4.147426207618     1.398043860356     0.743771476312     1.007825032230
         H           -4.230274207618     1.333224860356    -1.023194523688     1.007825032230
         H           -5.108496207618     0.144327860356    -0.051076523688     1.007825032230

  Basis Set: AUG-CC-PVTZ
    Blend: AUG-CC-PVTZ
  Basis Set: (AUG-CC-PVTZ AUX)
    Blend: AUG-CC-PVTZ-JKFIT
	 Reference Energy          =    -746.8596995715126923 [Eh]
	 Singles Energy            =      -0.0000000000000000 [Eh]
	 Same-Spin Energy          =      -0.4278194464248417 [Eh]
	 Opposite-Spin Energy      =      -1.4597872836128212 [Eh]
	 Correlation Energy        =      -1.8876067300376629 [Eh]
	 Total Energy              =    -748.7473063015503385 [Eh]

	 ================> DF-SCS-MP2 Energies <==================
	-----------------------------------------------------------
	 SCS Same-Spin Scale       =       0.3333333333333333 [-]
	 SCS Opposite-Spin Scale   =       1.2000000000000000 [-]
	 SCS Same-Spin Energy      =      -0.1426064821416139 [Eh]
	 SCS Opposite-Spin Energy  =      -1.7517447403353854 [Eh]
	 SCS Correlation Energy    =      -1.8943512224769994 [Eh]
	 SCS Total Energy          =    -748.7540507939896770 [Eh]
	-----------------------------------------------------------

  Dipole Moment: [D]
     X:    -0.0514      Y:     2.8998      Z:    -2.3407     Total:     3.7270

*** Psi4 exiting successfully. Buy a developer a beer!
