                               Psi4 1.4a3.dev225

  ==> Input File <==

--------------------------------------------------------------------------
#psi4
#
memory 32 gb

molecule  {
0 1
  S       -0.2613620    -0.5930190    -0.1424790
  O       -0.2870700    -1.2499240     1.2262220
  C        2.3977240     0.0716980     0.1844310
  C        1.0261530     0.6905850    -0.0782140
  C       -1.6743200     0.5466190    -0.2136450
  C        2.8653030    -0.7972080    -0.9817560
  C        3.4104270     1.1761770     0.4821660
  C       -2.9771600    -0.2389800    -0.1306750
  C       -4.1937400     0.6821530    -0.1120660
  H        2.2947170    -0.5588030     1.0765090
  H        0.7552030     1.3745990     0.7353710
  H        1.0111040     1.2381230    -1.0301620
  H       -1.5863530     1.2355690     0.6350930
  H       -1.6018540     1.1165020    -1.1483330
  H        2.9531350    -0.1978260    -1.8953020
  H        3.8477320    -1.2283710    -0.7670690
  H        2.1762820    -1.6227130    -1.1817050
  H        3.5229730     1.8417250    -0.3809710
  H        4.3924350     0.7485930     0.7071400
  H        3.0997810     1.7802300     1.3402560
  H       -3.0432920    -0.9285740    -0.9804800
  H       -2.9504610    -0.8515990     0.7760110
  H       -4.1600933     1.3266418     0.7086600
  H       -4.2413300     1.2926870    -1.0190020
  H       -5.1195520     0.1037900    -0.0468840
units angstrom
no_reorient  #important for SAPT in psi4, default
symmetry c1  #important for SAPT in psi4, default
}

set PROPERTIES_ORIGIN ["COM"]
properties('MP2/aug-cc-pvtz', properties = ['dipole'])
--------------------------------------------------------------------------

    Molecular point group: c1
  Charge       = 0
  Multiplicity = 1
  Basis Set: AUG-CC-PVTZ
    Blend: AUG-CC-PVTZ
  Basis Set: (AUG-CC-PVTZ AUX)
    Blend: AUG-CC-PVTZ-JKFIT

    Orbital Energies [Eh]
    ---------------------

    Doubly Occupied:

       1A    -92.057539     2A    -20.497406     3A    -11.261661
       4A    -11.259783     5A    -11.237710     6A    -11.232899
       7A    -11.221035     8A    -11.217766     9A    -11.217443
      10A     -9.044995    11A     -6.726592    12A     -6.726403
      13A     -6.725118    14A     -1.317056    15A     -1.109629
      16A     -1.085529    17A     -1.008683    18A     -0.943726
      19A     -0.937196    20A     -0.847569    21A     -0.800835
      22A     -0.772918    23A     -0.664742    24A     -0.650087
      25A     -0.629776    26A     -0.611051    27A     -0.592895
      28A     -0.590144    29A     -0.567038    30A     -0.556579
      31A     -0.545159    32A     -0.533222    33A     -0.513747
      34A     -0.507187    35A     -0.500590    36A     -0.486800
      37A     -0.479985    38A     -0.475680    39A     -0.472502
      40A     -0.403384    41A     -0.359309

  @DF-RHF Final Energy:  -746.89059997863535

   => Energetics <=

    Nuclear Repulsion Energy =            575.4790820747571161
    One-Electron Energy =               -2165.9606307963667859
    Two-Electron Energy =                 843.5909487429743194
    Total Energy =                       -746.8905999786353505
  Basis Set: (AUG-CC-PVTZ AUX)
    Blend: AUG-CC-PVTZ-RI
    Molecular point group: c1

    Geometry (in Angstrom), charge = 0, multiplicity = 1:

       Center              X                  Y                   Z               Mass
    ------------   -----------------  -----------------  -----------------  -----------------
         S           -0.252352025828    -0.548066094329    -0.158486980590    31.972071174400
         O           -0.278060025828    -1.204971094329     1.210214019410    15.994914619570
         C            2.406733974172     0.116650905671     0.168423019410    12.000000000000
         C            1.035162974172     0.735537905671    -0.094221980590    12.000000000000
         C           -1.665310025828     0.591571905671    -0.229652980590    12.000000000000
         C            2.874312974172    -0.752255094329    -0.997763980590    12.000000000000
         C            3.419436974172     1.221129905671     0.466158019410    12.000000000000
         C           -2.968150025828    -0.194027094329    -0.146682980590    12.000000000000
         C           -4.184730025828     0.727105905671    -0.128073980590    12.000000000000
         H            2.303726974172    -0.513850094329     1.060501019410     1.007825032230
         H            0.764212974172     1.419551905671     0.719363019410     1.007825032230
         H            1.020113974172     1.283075905671    -1.046169980590     1.007825032230
         H           -1.577343025828     1.280521905671     0.619085019410     1.007825032230
         H           -1.592844025828     1.161454905671    -1.164340980590     1.007825032230
         H            2.962144974172    -0.152873094329    -1.911309980590     1.007825032230
         H            3.856741974172    -1.183418094329    -0.783076980590     1.007825032230
         H            2.185291974172    -1.577760094329    -1.197712980590     1.007825032230
         H            3.531982974172     1.886677905671    -0.396978980590     1.007825032230
         H            4.401444974172     0.793545905671     0.691132019410     1.007825032230
         H            3.108790974172     1.825182905671     1.324248019410     1.007825032230
         H           -3.034282025828    -0.883621094329    -0.996487980590     1.007825032230
         H           -2.941451025828    -0.806646094329     0.760003019410     1.007825032230
         H           -4.151083325828     1.371594705671     0.692652019410     1.007825032230
         H           -4.232320025828     1.337639905671    -1.035009980590     1.007825032230
         H           -5.110542025828     0.148742905671    -0.062891980590     1.007825032230

  Basis Set: AUG-CC-PVTZ
    Blend: AUG-CC-PVTZ
  Basis Set: (AUG-CC-PVTZ AUX)
    Blend: AUG-CC-PVTZ-JKFIT
	 Reference Energy          =    -746.8905999786353505 [Eh]
	 Singles Energy            =      -0.0000000000000000 [Eh]
	 Same-Spin Energy          =      -0.4272934305763712 [Eh]
	 Opposite-Spin Energy      =      -1.4579983399513705 [Eh]
	 Correlation Energy        =      -1.8852917705277417 [Eh]
	 Total Energy              =    -748.7758917491630655 [Eh]

	 ================> DF-SCS-MP2 Energies <==================
	-----------------------------------------------------------
	 SCS Same-Spin Scale       =       0.3333333333333333 [-]
	 SCS Opposite-Spin Scale   =       1.2000000000000000 [-]
	 SCS Same-Spin Energy      =      -0.1424311435254570 [Eh]
	 SCS Opposite-Spin Energy  =      -1.7495980079416447 [Eh]
	 SCS Correlation Energy    =      -1.8920291514671017 [Eh]
	 SCS Total Energy          =    -748.7826291301024639 [Eh]
	-----------------------------------------------------------

  Dipole Moment: [D]
     X:    -0.0590      Y:     2.9065      Z:    -2.2584     Total:     3.6812

*** Psi4 exiting successfully. Buy a developer a beer!
