                               Psi4 1.4a3.dev225

  ==> Input File <==

--------------------------------------------------------------------------
#psi4
#
memory 32 gb

molecule  {
0 1
  S       -0.2613620    -0.5930190    -0.1424790
  O       -0.2870700    -1.2499240     1.2262220
  C        2.3977240     0.0716980     0.1844310
  C        1.0261530     0.6905850    -0.0782140
  C       -1.8298747     0.6720835    -0.2214798
  C        2.8653030    -0.7972080    -0.9817560
  C        3.4104270     1.1761770     0.4821660
  C       -2.9771600    -0.2389800    -0.1306750
  C       -4.1937400     0.6821530    -0.1120660
  H        2.2947170    -0.5588030     1.0765090
  H        0.7552030     1.3745990     0.7353710
  H        1.0111040     1.2381230    -1.0301620
  H       -1.5863530     1.2355690     0.6350930
  H       -1.6018540     1.1165020    -1.1483330
  H        2.9531350    -0.1978260    -1.8953020
  H        3.8477320    -1.2283710    -0.7670690
  H        2.1762820    -1.6227130    -1.1817050
  H        3.5229730     1.8417250    -0.3809710
  H        4.3924350     0.7485930     0.7071400
  H        3.0997810     1.7802300     1.3402560
  H       -3.0432920    -0.9285740    -0.9804800
  H       -2.9504610    -0.8515990     0.7760110
  H       -4.1584820     1.3575060     0.7479640
  H       -4.2413300     1.2926870    -1.0190020
  H       -5.1195520     0.1037900    -0.0468840
units angstrom
no_reorient  #important for SAPT in psi4, default
symmetry c1  #important for SAPT in psi4, default
}

set PROPERTIES_ORIGIN ["COM"]
properties('MP2/aug-cc-pvtz', properties = ['dipole'])
--------------------------------------------------------------------------

    Molecular point group: c1
  Charge       = 0
  Multiplicity = 1
  Basis Set: AUG-CC-PVTZ
    Blend: AUG-CC-PVTZ
  Basis Set: (AUG-CC-PVTZ AUX)
    Blend: AUG-CC-PVTZ-JKFIT

    Orbital Energies [Eh]
    ---------------------

    Doubly Occupied:

       1A    -92.049130     2A    -20.495944     3A    -11.267431
       4A    -11.257550     5A    -11.235737     6A    -11.233190
       7A    -11.223591     8A    -11.219492     9A    -11.215988
      10A     -9.036162    11A     -6.717527    12A     -6.717219
      13A     -6.716111    14A     -1.310546    15A     -1.106677
      16A     -1.094058    17A     -0.996724    18A     -0.939267
      19A     -0.935510    20A     -0.839784    21A     -0.811510
      22A     -0.768996    23A     -0.676505    24A     -0.649290
      25A     -0.626257    26A     -0.608126    27A     -0.601034
      28A     -0.586052    29A     -0.569032    30A     -0.553401
      31A     -0.543343    32A     -0.530830    33A     -0.516127
      34A     -0.507856    35A     -0.503463    36A     -0.494518
      37A     -0.478077    38A     -0.474222    39A     -0.470047
      40A     -0.385038    41A     -0.341743

  @DF-RHF Final Energy:  -746.86729068410807

   => Energetics <=

    Nuclear Repulsion Energy =            572.3263376114800849
    One-Electron Energy =               -2159.7810437707239544
    Two-Electron Energy =                 840.5874154751357992
    Total Energy =                       -746.8672906841080703
  Basis Set: (AUG-CC-PVTZ AUX)
    Blend: AUG-CC-PVTZ-RI
    Molecular point group: c1

    Geometry (in Angstrom), charge = 0, multiplicity = 1:

       Center              X                  Y                   Z               Mass
    ------------   -----------------  -----------------  -----------------  -----------------
         S           -0.239758299326    -0.558442602042    -0.158119601012    31.972071174400
         O           -0.265466299326    -1.215347602042     1.210581398988    15.994914619570
         C            2.419327700674     0.106274397958     0.168790398988    12.000000000000
         C            1.047756700674     0.725161397958    -0.093854601012    12.000000000000
         C           -1.808270999326     0.706659897958    -0.237120401012    12.000000000000
         C            2.886906700674    -0.762631602042    -0.997396601012    12.000000000000
         C            3.432030700674     1.210753397958     0.466525398988    12.000000000000
         C           -2.955556299326    -0.204403602042    -0.146315601012    12.000000000000
         C           -4.172136299326     0.716729397958    -0.127706601012    12.000000000000
         H            2.316320700674    -0.524226602042     1.060868398988     1.007825032230
         H            0.776806700674     1.409175397958     0.719730398988     1.007825032230
         H            1.032707700674     1.272699397958    -1.045802601012     1.007825032230
         H           -1.564749299326     1.270145397958     0.619452398988     1.007825032230
         H           -1.580250299326     1.151078397958    -1.163973601012     1.007825032230
         H            2.974738700674    -0.163249602042    -1.910942601012     1.007825032230
         H            3.869335700674    -1.193794602042    -0.782709601012     1.007825032230
         H            2.197885700674    -1.588136602042    -1.197345601012     1.007825032230
         H            3.544576700674     1.876301397958    -0.396611601012     1.007825032230
         H            4.414038700674     0.783169397958     0.691499398988     1.007825032230
         H            3.121384700674     1.814806397958     1.324615398988     1.007825032230
         H           -3.021688299326    -0.893997602042    -0.996120601012     1.007825032230
         H           -2.928857299326    -0.817022602042     0.760370398988     1.007825032230
         H           -4.136878299326     1.392082397958     0.732323398988     1.007825032230
         H           -4.219726299326     1.327263397958    -1.034642601012     1.007825032230
         H           -5.097948299326     0.138366397958    -0.062524601012     1.007825032230

  Basis Set: AUG-CC-PVTZ
    Blend: AUG-CC-PVTZ
  Basis Set: (AUG-CC-PVTZ AUX)
    Blend: AUG-CC-PVTZ-JKFIT
	 Reference Energy          =    -746.8672906841080703 [Eh]
	 Singles Energy            =      -0.0000000000000000 [Eh]
	 Same-Spin Energy          =      -0.4287792236155488 [Eh]
	 Opposite-Spin Energy      =      -1.4617950160046509 [Eh]
	 Correlation Energy        =      -1.8905742396201997 [Eh]
	 Total Energy              =    -748.7578649237282207 [Eh]

	 ================> DF-SCS-MP2 Energies <==================
	-----------------------------------------------------------
	 SCS Same-Spin Scale       =       0.3333333333333333 [-]
	 SCS Opposite-Spin Scale   =       1.2000000000000000 [-]
	 SCS Same-Spin Energy      =      -0.1429264078718496 [Eh]
	 SCS Opposite-Spin Energy  =      -1.7541540192055811 [Eh]
	 SCS Correlation Energy    =      -1.8970804270774306 [Eh]
	 SCS Total Energy          =    -748.7643711111854827 [Eh]
	-----------------------------------------------------------

  Dipole Moment: [D]
     X:    -0.0217      Y:     2.7855      Z:    -2.2309     Total:     3.5688

*** Psi4 exiting successfully. Buy a developer a beer!
