                               Psi4 1.4a3.dev225

  ==> Input File <==

--------------------------------------------------------------------------
#psi4
#
memory 32 gb

molecule  {
0 1
  S       -0.2613620    -0.5930190    -0.1424790
  O       -0.2870700    -1.2499240     1.2262220
  C        2.3977240     0.0716980     0.1844310
  C        1.0261530     0.6905850    -0.0782140
  C       -1.6743200     0.5466190    -0.2136450
  C        2.8653030    -0.7972080    -0.9817560
  C        3.4104270     1.1761770     0.4821660
  C       -2.9771600    -0.2389800    -0.1306750
  C       -4.1937400     0.6821530    -0.1120660
  H        2.2947170    -0.5588030     1.0765090
  H        0.7552030     1.3745990     0.7353710
  H        1.0111040     1.2381230    -1.0301620
  H       -1.5863530     1.2355690     0.6350930
  H       -1.6018540     1.1165020    -1.1483330
  H        2.9371094    -0.3071876    -1.7286190
  H        3.8477320    -1.2283710    -0.7670690
  H        2.1762820    -1.6227130    -1.1817050
  H        3.5229730     1.8417250    -0.3809710
  H        4.3924350     0.7485930     0.7071400
  H        3.0997810     1.7802300     1.3402560
  H       -3.0432920    -0.9285740    -0.9804800
  H       -2.9504610    -0.8515990     0.7760110
  H       -4.1584820     1.3575060     0.7479640
  H       -4.2413300     1.2926870    -1.0190020
  H       -5.1195520     0.1037900    -0.0468840
units angstrom
no_reorient  #important for SAPT in psi4, default
symmetry c1  #important for SAPT in psi4, default
}

set PROPERTIES_ORIGIN ["COM"]
properties('MP2/aug-cc-pvtz', properties = ['dipole'])
--------------------------------------------------------------------------

    Molecular point group: c1
  Charge       = 0
  Multiplicity = 1
  Basis Set: AUG-CC-PVTZ
    Blend: AUG-CC-PVTZ
  Basis Set: (AUG-CC-PVTZ AUX)
    Blend: AUG-CC-PVTZ-JKFIT

    Orbital Energies [Eh]
    ---------------------

    Doubly Occupied:

       1A    -92.057348     2A    -20.497141     3A    -11.261524
       4A    -11.259653     5A    -11.235710     6A    -11.233330
       7A    -11.223648     8A    -11.220831     9A    -11.192128
      10A     -9.044792    11A     -6.726392    12A     -6.726202
      13A     -6.724917    14A     -1.316754    15A     -1.111842
      16A     -1.085697    17A     -1.009928    18A     -0.956115
      19A     -0.940918    20A     -0.846761    21A     -0.800684
      22A     -0.780279    23A     -0.664246    24A     -0.650184
      25A     -0.629208    26A     -0.616740    27A     -0.595285
      28A     -0.590931    29A     -0.571249    30A     -0.561561
      31A     -0.553082    32A     -0.533372    33A     -0.513187
      34A     -0.506482    35A     -0.499229    36A     -0.485932
      37A     -0.479762    38A     -0.476740    39A     -0.472946
      40A     -0.403194    41A     -0.359028

  @DF-RHF Final Energy:  -746.85795052305957

   => Energetics <=

    Nuclear Repulsion Energy =            576.2836369784266708
    One-Electron Energy =               -2167.4532712511104364
    Two-Electron Energy =                 844.3116837496240805
    Total Energy =                       -746.8579505230595714
  Basis Set: (AUG-CC-PVTZ AUX)
    Blend: AUG-CC-PVTZ-RI
    Molecular point group: c1

    Geometry (in Angstrom), charge = 0, multiplicity = 1:

       Center              X                  Y                   Z               Mass
    ------------   -----------------  -----------------  -----------------  -----------------
         S           -0.252253930900    -0.547531888936    -0.159888802389    31.972071174400
         O           -0.277961930900    -1.204436888936     1.208812197611    15.994914619570
         C            2.406832069100     0.117185111064     0.167021197611    12.000000000000
         C            1.035261069100     0.736072111064    -0.095623802389    12.000000000000
         C           -1.665211930900     0.592106111064    -0.231054802389    12.000000000000
         C            2.874411069100    -0.751720888936    -0.999165802389    12.000000000000
         C            3.419535069100     1.221664111064     0.464756197611    12.000000000000
         C           -2.968051930900    -0.193492888936    -0.148084802389    12.000000000000
         C           -4.184631930900     0.727640111064    -0.129475802389    12.000000000000
         H            2.303825069100    -0.513315888936     1.059099197611     1.007825032230
         H            0.764311069100     1.420086111064     0.717961197611     1.007825032230
         H            1.020212069100     1.283610111064    -1.047571802389     1.007825032230
         H           -1.577244930900     1.281056111064     0.617683197611     1.007825032230
         H           -1.592745930900     1.161989111064    -1.165742802389     1.007825032230
         H            2.946217469100    -0.261700488936    -1.746028802389     1.007825032230
         H            3.856840069100    -1.182883888936    -0.784478802389     1.007825032230
         H            2.185390069100    -1.577225888936    -1.199114802389     1.007825032230
         H            3.532081069100     1.887212111064    -0.398380802389     1.007825032230
         H            4.401543069100     0.794080111064     0.689730197611     1.007825032230
         H            3.108889069100     1.825717111064     1.322846197611     1.007825032230
         H           -3.034183930900    -0.883086888936    -0.997889802389     1.007825032230
         H           -2.941352930900    -0.806111888936     0.758601197611     1.007825032230
         H           -4.149373930900     1.402993111064     0.730554197611     1.007825032230
         H           -4.232221930900     1.338174111064    -1.036411802389     1.007825032230
         H           -5.110443930900     0.149277111064    -0.064293802389     1.007825032230

  Basis Set: AUG-CC-PVTZ
    Blend: AUG-CC-PVTZ
  Basis Set: (AUG-CC-PVTZ AUX)
    Blend: AUG-CC-PVTZ-JKFIT
	 Reference Energy          =    -746.8579505230595714 [Eh]
	 Singles Energy            =      -0.0000000000000000 [Eh]
	 Same-Spin Energy          =      -0.4273777725294612 [Eh]
	 Opposite-Spin Energy      =      -1.4577034524728330 [Eh]
	 Correlation Energy        =      -1.8850812250022941 [Eh]
	 Total Energy              =    -748.7430317480618669 [Eh]

	 ================> DF-SCS-MP2 Energies <==================
	-----------------------------------------------------------
	 SCS Same-Spin Scale       =       0.3333333333333333 [-]
	 SCS Opposite-Spin Scale   =       1.2000000000000000 [-]
	 SCS Same-Spin Energy      =      -0.1424592575098204 [Eh]
	 SCS Opposite-Spin Energy  =      -1.7492441429673995 [Eh]
	 SCS Correlation Energy    =      -1.8917034004772200 [Eh]
	 SCS Total Energy          =    -748.7496539235368118 [Eh]
	-----------------------------------------------------------

  Dipole Moment: [D]
     X:    -0.0317      Y:     2.9203      Z:    -2.3679     Total:     3.7598

*** Psi4 exiting successfully. Buy a developer a beer!
