                               Psi4 1.4a3.dev225

  ==> Input File <==

--------------------------------------------------------------------------
#psi4
#
memory 32 gb

molecule  {
0 1
  S       -0.2613620    -0.5930190    -0.1424790
  O       -0.2870700    -1.2499240     1.2262220
  C        2.3977240     0.0716980     0.1844310
  C        1.0261530     0.6905850    -0.0782140
  C       -1.6743200     0.5466190    -0.2136450
  C        2.8653030    -0.7972080    -0.9817560
  C        3.4104270     1.1761770     0.4821660
  C       -2.9771600    -0.2389800    -0.1306750
  C       -4.1937400     0.6821530    -0.1120660
  H        2.2947170    -0.5588030     1.0765090
  H        0.7552030     1.3745990     0.7353710
  H        1.0111040     1.2381230    -1.0301620
  H       -1.5863530     1.2355690     0.6350930
  H       -1.6018540     1.1165020    -1.1483330
  H        2.9515324    -0.2087622    -1.8786337
  H        3.8477320    -1.2283710    -0.7670690
  H        2.1762820    -1.6227130    -1.1817050
  H        3.5229730     1.8417250    -0.3809710
  H        4.3924350     0.7485930     0.7071400
  H        3.0997810     1.7802300     1.3402560
  H       -3.0432920    -0.9285740    -0.9804800
  H       -2.9504610    -0.8515990     0.7760110
  H       -4.1584820     1.3575060     0.7479640
  H       -4.2413300     1.2926870    -1.0190020
  H       -5.1195520     0.1037900    -0.0468840
units angstrom
no_reorient  #important for SAPT in psi4, default
symmetry c1  #important for SAPT in psi4, default
}

set PROPERTIES_ORIGIN ["COM"]
properties('MP2/aug-cc-pvtz', properties = ['dipole'])
--------------------------------------------------------------------------

    Molecular point group: c1
  Charge       = 0
  Multiplicity = 1
  Basis Set: AUG-CC-PVTZ
    Blend: AUG-CC-PVTZ
  Basis Set: (AUG-CC-PVTZ AUX)
    Blend: AUG-CC-PVTZ-JKFIT

    Orbital Energies [Eh]
    ---------------------

    Doubly Occupied:

       1A    -92.057551     2A    -20.497412     3A    -11.261704
       4A    -11.259797     5A    -11.237484     6A    -11.233451
       7A    -11.223734     8A    -11.221018     9A    -11.215251
      10A     -9.045008    11A     -6.726606    12A     -6.726417
      13A     -6.725132    14A     -1.317059    15A     -1.109730
      16A     -1.085082    17A     -1.007758    18A     -0.942146
      19A     -0.938286    20A     -0.845720    21A     -0.800202
      22A     -0.773546    23A     -0.664463    24A     -0.649383
      25A     -0.629611    26A     -0.611337    27A     -0.592994
      28A     -0.588256    29A     -0.566544    30A     -0.554397
      31A     -0.547200    32A     -0.533314    33A     -0.513926
      34A     -0.506435    35A     -0.499382    36A     -0.486079
      37A     -0.479894    38A     -0.475779    39A     -0.472761
      40A     -0.403437    41A     -0.359309

  @DF-RHF Final Energy:  -746.89165462240555

   => Energetics <=

    Nuclear Repulsion Energy =            575.3622911098716486
    One-Electron Energy =               -2165.7386972413605690
    Two-Electron Energy =                 843.4847515090833667
    Total Energy =                       -746.8916546224055537
  Basis Set: (AUG-CC-PVTZ AUX)
    Blend: AUG-CC-PVTZ-RI
    Molecular point group: c1

    Geometry (in Angstrom), charge = 0, multiplicity = 1:

       Center              X                  Y                   Z               Mass
    ------------   -----------------  -----------------  -----------------  -----------------
         S           -0.252352085035    -0.548201712134    -0.158867893902    31.972071174400
         O           -0.278060085035    -1.205106712134     1.209833106098    15.994914619570
         C            2.406733914965     0.116515287866     0.168042106098    12.000000000000
         C            1.035162914965     0.735402287866    -0.094602893902    12.000000000000
         C           -1.665310085035     0.591436287866    -0.230033893902    12.000000000000
         C            2.874312914965    -0.752390712134    -0.998144893902    12.000000000000
         C            3.419436914965     1.220994287866     0.465777106098    12.000000000000
         C           -2.968150085035    -0.194162712134    -0.147063893902    12.000000000000
         C           -4.184730085035     0.726970287866    -0.128454893902    12.000000000000
         H            2.303726914965    -0.513985712134     1.060120106098     1.007825032230
         H            0.764212914965     1.419416287866     0.718982106098     1.007825032230
         H            1.020113914965     1.282940287866    -1.046550893902     1.007825032230
         H           -1.577343085035     1.280386287866     0.618704106098     1.007825032230
         H           -1.592844085035     1.161319287866    -1.164721893902     1.007825032230
         H            2.960542314965    -0.163944912134    -1.895022593902     1.007825032230
         H            3.856741914965    -1.183553712134    -0.783457893902     1.007825032230
         H            2.185291914965    -1.577895712134    -1.198093893902     1.007825032230
         H            3.531982914965     1.886542287866    -0.397359893902     1.007825032230
         H            4.401444914965     0.793410287866     0.690751106098     1.007825032230
         H            3.108790914965     1.825047287866     1.323867106098     1.007825032230
         H           -3.034282085035    -0.883756712134    -0.996868893902     1.007825032230
         H           -2.941451085035    -0.806781712134     0.759622106098     1.007825032230
         H           -4.149472085035     1.402323287866     0.731575106098     1.007825032230
         H           -4.232320085035     1.337504287866    -1.035390893902     1.007825032230
         H           -5.110542085035     0.148607287866    -0.063272893902     1.007825032230

  Basis Set: AUG-CC-PVTZ
    Blend: AUG-CC-PVTZ
  Basis Set: (AUG-CC-PVTZ AUX)
    Blend: AUG-CC-PVTZ-JKFIT
	 Reference Energy          =    -746.8916546224055537 [Eh]
	 Singles Energy            =      -0.0000000000000000 [Eh]
	 Same-Spin Energy          =      -0.4272671392497869 [Eh]
	 Opposite-Spin Energy      =      -1.4581306568632320 [Eh]
	 Correlation Energy        =      -1.8853977961130188 [Eh]
	 Total Energy              =    -748.7770524185185650 [Eh]

	 ================> DF-SCS-MP2 Energies <==================
	-----------------------------------------------------------
	 SCS Same-Spin Scale       =       0.3333333333333333 [-]
	 SCS Opposite-Spin Scale   =       1.2000000000000000 [-]
	 SCS Same-Spin Energy      =      -0.1424223797499290 [Eh]
	 SCS Opposite-Spin Energy  =      -1.7497567882358782 [Eh]
	 SCS Correlation Energy    =      -1.8921791679858071 [Eh]
	 SCS Total Energy          =    -748.7838337903913271 [Eh]
	-----------------------------------------------------------

  Dipole Moment: [D]
     X:    -0.0503      Y:     2.8909      Z:    -2.2895     Total:     3.6880

*** Psi4 exiting successfully. Buy a developer a beer!
