                               Psi4 1.4a3.dev225

  ==> Input File <==

--------------------------------------------------------------------------
#psi4
#
memory 32 gb

molecule  {
0 1
  S       -0.3317599    -0.6742321    -0.2993459
  O       -0.2870700    -1.2499240     1.2262220
  C        2.3977240     0.0716980     0.1844310
  C        1.0261530     0.6905850    -0.0782140
  C       -1.6743200     0.5466190    -0.2136450
  C        2.8653030    -0.7972080    -0.9817560
  C        3.4104270     1.1761770     0.4821660
  C       -2.9771600    -0.2389800    -0.1306750
  C       -4.1937400     0.6821530    -0.1120660
  H        2.2947170    -0.5588030     1.0765090
  H        0.7552030     1.3745990     0.7353710
  H        1.0111040     1.2381230    -1.0301620
  H       -1.5863530     1.2355690     0.6350930
  H       -1.6018540     1.1165020    -1.1483330
  H        2.9531350    -0.1978260    -1.8953020
  H        3.8477320    -1.2283710    -0.7670690
  H        2.1762820    -1.6227130    -1.1817050
  H        3.5229730     1.8417250    -0.3809710
  H        4.3924350     0.7485930     0.7071400
  H        3.0997810     1.7802300     1.3402560
  H       -3.0432920    -0.9285740    -0.9804800
  H       -2.9504610    -0.8515990     0.7760110
  H       -4.1584820     1.3575060     0.7479640
  H       -4.2413300     1.2926870    -1.0190020
  H       -5.1195520     0.1037900    -0.0468840
units angstrom
no_reorient  #important for SAPT in psi4, default
symmetry c1  #important for SAPT in psi4, default
}

set PROPERTIES_ORIGIN ["COM"]
properties('MP2/aug-cc-pvtz', properties = ['dipole'])
--------------------------------------------------------------------------

    Molecular point group: c1
  Charge       = 0
  Multiplicity = 1
  Basis Set: AUG-CC-PVTZ
    Blend: AUG-CC-PVTZ
  Basis Set: (AUG-CC-PVTZ AUX)
    Blend: AUG-CC-PVTZ-JKFIT

    Orbital Energies [Eh]
    ---------------------

    Doubly Occupied:

       1A    -92.062865     2A    -20.491993     3A    -11.271182
       4A    -11.266753     5A    -11.236026     6A    -11.233353
       7A    -11.223708     8A    -11.221291     9A    -11.218199
      10A     -9.049718    11A     -6.730944    12A     -6.730508
      13A     -6.729278    14A     -1.258204    15A     -1.102176
      16A     -1.086637    17A     -0.999784    18A     -0.937696
      19A     -0.936608    20A     -0.850701    21A     -0.805647
      22A     -0.773624    23A     -0.661078    24A     -0.644393
      25A     -0.622553    26A     -0.608242    27A     -0.590353
      28A     -0.581394    29A     -0.563984    30A     -0.548462
      31A     -0.541420    32A     -0.524907    33A     -0.507836
      34A     -0.500097    35A     -0.492846    36A     -0.481779
      37A     -0.476599    38A     -0.469661    39A     -0.465497
      40A     -0.386905    41A     -0.369529

  @DF-RHF Final Energy:  -746.86265335474297

   => Energetics <=

    Nuclear Repulsion Energy =            569.3035781020325885
    One-Electron Energy =               -2153.8235998136938179
    Two-Electron Energy =                 837.6573683569182549
    Total Energy =                       -746.8626533547429744
  Basis Set: (AUG-CC-PVTZ AUX)
    Blend: AUG-CC-PVTZ-RI
    Molecular point group: c1

    Geometry (in Angstrom), charge = 0, multiplicity = 1:

       Center              X                  Y                   Z               Mass
    ------------   -----------------  -----------------  -----------------  -----------------
         S           -0.307562475248    -0.611955894808    -0.281754888904    31.972071174400
         O           -0.262872575248    -1.187647794808     1.243813011096    15.994914619570
         C            2.421921424752     0.133974205192     0.202022011096    12.000000000000
         C            1.050350424752     0.752861205192    -0.060622988904    12.000000000000
         C           -1.650122575248     0.608895205192    -0.196053988904    12.000000000000
         C            2.889500424752    -0.734931794808    -0.964164988904    12.000000000000
         C            3.434624424752     1.238453205192     0.499757011096    12.000000000000
         C           -2.952962575248    -0.176703794808    -0.113083988904    12.000000000000
         C           -4.169542575248     0.744429205192    -0.094474988904    12.000000000000
         H            2.318914424752    -0.496526794808     1.094100011096     1.007825032230
         H            0.779400424752     1.436875205192     0.752962011096     1.007825032230
         H            1.035301424752     1.300399205192    -1.012570988904     1.007825032230
         H           -1.562155575248     1.297845205192     0.652684011096     1.007825032230
         H           -1.577656575248     1.178778205192    -1.130741988904     1.007825032230
         H            2.977332424752    -0.135549794808    -1.877710988904     1.007825032230
         H            3.871929424752    -1.166094794808    -0.749477988904     1.007825032230
         H            2.200479424752    -1.560436794808    -1.164113988904     1.007825032230
         H            3.547170424752     1.904001205192    -0.363379988904     1.007825032230
         H            4.416632424752     0.810869205192     0.724731011096     1.007825032230
         H            3.123978424752     1.842506205192     1.357847011096     1.007825032230
         H           -3.019094575248    -0.866297794808    -0.962888988904     1.007825032230
         H           -2.926263575248    -0.789322794808     0.793602011096     1.007825032230
         H           -4.134284575248     1.419782205192     0.765555011096     1.007825032230
         H           -4.217132575248     1.354963205192    -1.001410988904     1.007825032230
         H           -5.095354575248     0.166066205192    -0.029292988904     1.007825032230

  Basis Set: AUG-CC-PVTZ
    Blend: AUG-CC-PVTZ
  Basis Set: (AUG-CC-PVTZ AUX)
    Blend: AUG-CC-PVTZ-JKFIT
	 Reference Energy          =    -746.8626533547429744 [Eh]
	 Singles Energy            =      -0.0000000000000000 [Eh]
	 Same-Spin Energy          =      -0.4282803770776035 [Eh]
	 Opposite-Spin Energy      =      -1.4641222250696950 [Eh]
	 Correlation Energy        =      -1.8924026021472986 [Eh]
	 Total Energy              =    -748.7550559568902599 [Eh]

	 ================> DF-SCS-MP2 Energies <==================
	-----------------------------------------------------------
	 SCS Same-Spin Scale       =       0.3333333333333333 [-]
	 SCS Opposite-Spin Scale   =       1.2000000000000000 [-]
	 SCS Same-Spin Energy      =      -0.1427601256925345 [Eh]
	 SCS Opposite-Spin Energy  =      -1.7569466700836340 [Eh]
	 SCS Correlation Energy    =      -1.8997067957761686 [Eh]
	 SCS Total Energy          =    -748.7623601505191573 [Eh]
	-----------------------------------------------------------

  Dipole Moment: [D]
     X:    -0.1887      Y:     3.0015      Z:    -2.7041     Total:     4.0444

*** Psi4 exiting successfully. Buy a developer a beer!
