                               Psi4 1.4a3.dev225

  ==> Input File <==

--------------------------------------------------------------------------
#psi4
#
memory 32 gb

molecule  {
0 1
  S       -0.2613620    -0.5930190    -0.1424790
  O       -0.2836838    -1.1633978     1.0459396
  C        2.3977240     0.0716980     0.1844310
  C        1.0261530     0.6905850    -0.0782140
  C       -1.6743200     0.5466190    -0.2136450
  C        2.8653030    -0.7972080    -0.9817560
  C        3.4104270     1.1761770     0.4821660
  C       -2.9771600    -0.2389800    -0.1306750
  C       -4.1937400     0.6821530    -0.1120660
  H        2.2947170    -0.5588030     1.0765090
  H        0.7552030     1.3745990     0.7353710
  H        1.0111040     1.2381230    -1.0301620
  H       -1.5863530     1.2355690     0.6350930
  H       -1.6018540     1.1165020    -1.1483330
  H        2.9531350    -0.1978260    -1.8953020
  H        3.8477320    -1.2283710    -0.7670690
  H        2.1762820    -1.6227130    -1.1817050
  H        3.5229730     1.8417250    -0.3809710
  H        4.3924350     0.7485930     0.7071400
  H        3.0997810     1.7802300     1.3402560
  H       -3.0432920    -0.9285740    -0.9804800
  H       -2.9504610    -0.8515990     0.7760110
  H       -4.1584820     1.3575060     0.7479640
  H       -4.2413300     1.2926870    -1.0190020
  H       -5.1195520     0.1037900    -0.0468840
units angstrom
no_reorient  #important for SAPT in psi4, default
symmetry c1  #important for SAPT in psi4, default
}

set PROPERTIES_ORIGIN ["COM"]
properties('MP2/aug-cc-pvtz', properties = ['dipole'])
--------------------------------------------------------------------------

    Molecular point group: c1
  Charge       = 0
  Multiplicity = 1
  Basis Set: AUG-CC-PVTZ
    Blend: AUG-CC-PVTZ
  Basis Set: (AUG-CC-PVTZ AUX)
    Blend: AUG-CC-PVTZ-JKFIT

    Orbital Energies [Eh]
    ---------------------

    Doubly Occupied:

       1A    -92.042795     2A    -20.499693     3A    -11.244097
       4A    -11.242360     5A    -11.234564     6A    -11.229916
       7A    -11.220552     8A    -11.218020     9A    -11.215012
      10A     -9.035533    11A     -6.718953    12A     -6.716123
      13A     -6.714920    14A     -1.450540    15A     -1.103419
      16A     -1.078850    17A     -0.996677    18A     -0.936376
      19A     -0.934213    20A     -0.836943    21A     -0.790823
      22A     -0.764886    23A     -0.667078    24A     -0.663125
      25A     -0.636251    26A     -0.619715    27A     -0.607555
      28A     -0.596091    29A     -0.578132    30A     -0.562306
      31A     -0.543205    32A     -0.541268    33A     -0.531193
      34A     -0.518005    35A     -0.497278    36A     -0.486931
      37A     -0.483309    38A     -0.474615    39A     -0.470607
      40A     -0.406068    41A     -0.343843

  @DF-RHF Final Energy:  -746.85759222194724

   => Energetics <=

    Nuclear Repulsion Energy =            584.5108249580646316
    One-Electron Energy =               -2183.8331538139027543
    Two-Electron Energy =                 852.4647366338908796
    Total Energy =                       -746.8575922219472432
  Basis Set: (AUG-CC-PVTZ AUX)
    Blend: AUG-CC-PVTZ-RI
    Molecular point group: c1

    Geometry (in Angstrom), charge = 0, multiplicity = 1:

       Center              X                  Y                   Z               Mass
    ------------   -----------------  -----------------  -----------------  -----------------
         S           -0.252728722869    -0.557621526861    -0.139282793582    31.972071174400
         O           -0.275050522869    -1.128000326861     1.049135806418    15.994914619570
         C            2.406357277131     0.107095473139     0.187627206418    12.000000000000
         C            1.034786277131     0.725982473139    -0.075017793582    12.000000000000
         C           -1.665686722869     0.582016473139    -0.210448793582    12.000000000000
         C            2.873936277131    -0.761810526861    -0.978559793582    12.000000000000
         C            3.419060277131     1.211574473139     0.485362206418    12.000000000000
         C           -2.968526722869    -0.203582526861    -0.127478793582    12.000000000000
         C           -4.185106722869     0.717550473139    -0.108869793582    12.000000000000
         H            2.303350277131    -0.523405526861     1.079705206418     1.007825032230
         H            0.763836277131     1.409996473139     0.738567206418     1.007825032230
         H            1.019737277131     1.273520473139    -1.026965793582     1.007825032230
         H           -1.577719722869     1.270966473139     0.638289206418     1.007825032230
         H           -1.593220722869     1.151899473139    -1.145136793582     1.007825032230
         H            2.961768277131    -0.162428526861    -1.892105793582     1.007825032230
         H            3.856365277131    -1.192973526861    -0.763872793582     1.007825032230
         H            2.184915277131    -1.587315526861    -1.178508793582     1.007825032230
         H            3.531606277131     1.877122473139    -0.377774793582     1.007825032230
         H            4.401068277131     0.783990473139     0.710336206418     1.007825032230
         H            3.108414277131     1.815627473139     1.343452206418     1.007825032230
         H           -3.034658722869    -0.893176526861    -0.977283793582     1.007825032230
         H           -2.941827722869    -0.816201526861     0.779207206418     1.007825032230
         H           -4.149848722869     1.392903473139     0.751160206418     1.007825032230
         H           -4.232696722869     1.328084473139    -1.015805793582     1.007825032230
         H           -5.110918722869     0.139187473139    -0.043687793582     1.007825032230

  Basis Set: AUG-CC-PVTZ
    Blend: AUG-CC-PVTZ
  Basis Set: (AUG-CC-PVTZ AUX)
    Blend: AUG-CC-PVTZ-JKFIT
	 Reference Energy          =    -746.8575922219472432 [Eh]
	 Singles Energy            =      -0.0000000000000000 [Eh]
	 Same-Spin Energy          =      -0.4238898219044203 [Eh]
	 Opposite-Spin Energy      =      -1.4495323478522144 [Eh]
	 Correlation Energy        =      -1.8734221697566347 [Eh]
	 Total Energy              =    -748.7310143917038658 [Eh]

	 ================> DF-SCS-MP2 Energies <==================
	-----------------------------------------------------------
	 SCS Same-Spin Scale       =       0.3333333333333333 [-]
	 SCS Opposite-Spin Scale   =       1.2000000000000000 [-]
	 SCS Same-Spin Energy      =      -0.1412966073014734 [Eh]
	 SCS Opposite-Spin Energy  =      -1.7394388174226572 [Eh]
	 SCS Correlation Energy    =      -1.8807354247241306 [Eh]
	 SCS Total Energy          =    -748.7383276466713369 [Eh]
	-----------------------------------------------------------

  Dipole Moment: [D]
     X:    -0.0606      Y:     2.1177      Z:    -1.3993     Total:     2.5390

*** Psi4 exiting successfully. Buy a developer a beer!
