                               Psi4 1.4a3.dev225

  ==> Input File <==

--------------------------------------------------------------------------
#psi4
#
memory 32 gb

molecule  {
0 1
  S       -0.2613620    -0.5930190    -0.1424790
  O       -0.2870700    -1.2499240     1.2262220
  C        2.3977240     0.0716980     0.1844310
  C        1.0261530     0.6905850    -0.0782140
  C       -1.6743200     0.5466190    -0.2136450
  C        2.8653030    -0.7972080    -0.9817560
  C        3.4135845     1.1663342     0.5067452
  C       -2.9771600    -0.2389800    -0.1306750
  C       -4.1937400     0.6821530    -0.1120660
  H        2.2947170    -0.5588030     1.0765090
  H        0.7552030     1.3745990     0.7353710
  H        1.0111040     1.2381230    -1.0301620
  H       -1.5863530     1.2355690     0.6350930
  H       -1.6018540     1.1165020    -1.1483330
  H        2.9531350    -0.1978260    -1.8953020
  H        3.8477320    -1.2283710    -0.7670690
  H        2.1762820    -1.6227130    -1.1817050
  H        3.5229730     1.8417250    -0.3809710
  H        4.3924350     0.7485930     0.7071400
  H        3.0997810     1.7802300     1.3402560
  H       -3.0432920    -0.9285740    -0.9804800
  H       -2.9504610    -0.8515990     0.7760110
  H       -4.1584820     1.3575060     0.7479640
  H       -4.2413300     1.2926870    -1.0190020
  H       -5.1195520     0.1037900    -0.0468840
units angstrom
no_reorient  #important for SAPT in psi4, default
symmetry c1  #important for SAPT in psi4, default
}

set PROPERTIES_ORIGIN ["COM"]
properties('MP2/aug-cc-pvtz', properties = ['dipole'])
--------------------------------------------------------------------------

    Molecular point group: c1
  Charge       = 0
  Multiplicity = 1
  Basis Set: AUG-CC-PVTZ
    Blend: AUG-CC-PVTZ
  Basis Set: (AUG-CC-PVTZ AUX)
    Blend: AUG-CC-PVTZ-JKFIT

    Orbital Energies [Eh]
    ---------------------

    Doubly Occupied:

       1A    -92.057730     2A    -20.497473     3A    -11.261814
       4A    -11.259993     5A    -11.237699     6A    -11.233531
       7A    -11.223791     8A    -11.221245     9A    -11.218003
      10A     -9.045177    11A     -6.726775    12A     -6.726588
      13A     -6.725301    14A     -1.317132    15A     -1.109472
      16A     -1.085064    17A     -1.007721    18A     -0.942025
      19A     -0.937611    20A     -0.845706    21A     -0.800225
      22A     -0.772639    23A     -0.664377    24A     -0.649237
      25A     -0.629627    26A     -0.613088    27A     -0.593793
      28A     -0.587213    29A     -0.566732    30A     -0.553815
      31A     -0.541635    32A     -0.535480    33A     -0.514175
      34A     -0.506945    35A     -0.499562    36A     -0.486234
      37A     -0.481584    38A     -0.476177    39A     -0.469193
      40A     -0.403780    41A     -0.359425

  @DF-RHF Final Energy:  -746.89094315230545

   => Energetics <=

    Nuclear Repulsion Energy =            575.2145156868087952
    One-Electron Energy =               -2165.4413418767794610
    Two-Electron Energy =                 843.3358830376653259
    Total Energy =                       -746.8909431523054536
  Basis Set: (AUG-CC-PVTZ AUX)
    Blend: AUG-CC-PVTZ-RI
    Molecular point group: c1

    Geometry (in Angstrom), charge = 0, multiplicity = 1:

       Center              X                  Y                   Z               Mass
    ------------   -----------------  -----------------  -----------------  -----------------
         S           -0.252618845500    -0.547478569161    -0.160746127163    31.972071174400
         O           -0.278326845500    -1.204383569161     1.207954872837    15.994914619570
         C            2.406467154500     0.117238430839     0.166163872837    12.000000000000
         C            1.034896154500     0.736125430839    -0.096481127163    12.000000000000
         C           -1.665576845500     0.592159430839    -0.231912127163    12.000000000000
         C            2.874046154500    -0.751667569161    -1.000023127163    12.000000000000
         C            3.422327654500     1.211874630839     0.488478072837    12.000000000000
         C           -2.968416845500    -0.193439569161    -0.148942127163    12.000000000000
         C           -4.184996845500     0.727693430839    -0.130333127163    12.000000000000
         H            2.303460154500    -0.513262569161     1.058241872837     1.007825032230
         H            0.763946154500     1.420139430839     0.717103872837     1.007825032230
         H            1.019847154500     1.283663430839    -1.048429127163     1.007825032230
         H           -1.577609845500     1.281109430839     0.616825872837     1.007825032230
         H           -1.593110845500     1.162042430839    -1.166600127163     1.007825032230
         H            2.961878154500    -0.152285569161    -1.913569127163     1.007825032230
         H            3.856475154500    -1.182830569161    -0.785336127163     1.007825032230
         H            2.185025154500    -1.577172569161    -1.199972127163     1.007825032230
         H            3.531716154500     1.887265430839    -0.399238127163     1.007825032230
         H            4.401178154500     0.794133430839     0.688872872837     1.007825032230
         H            3.108524154500     1.825770430839     1.321988872837     1.007825032230
         H           -3.034548845500    -0.883033569161    -0.998747127163     1.007825032230
         H           -2.941717845500    -0.806058569161     0.757743872837     1.007825032230
         H           -4.149738845500     1.403046430839     0.729696872837     1.007825032230
         H           -4.232586845500     1.338227430839    -1.037269127163     1.007825032230
         H           -5.110808845500     0.149330430839    -0.065151127163     1.007825032230

  Basis Set: AUG-CC-PVTZ
    Blend: AUG-CC-PVTZ
  Basis Set: (AUG-CC-PVTZ AUX)
    Blend: AUG-CC-PVTZ-JKFIT
	 Reference Energy          =    -746.8909431523054536 [Eh]
	 Singles Energy            =      -0.0000000000000000 [Eh]
	 Same-Spin Energy          =      -0.4272548510568746 [Eh]
	 Opposite-Spin Energy      =      -1.4582462594350729 [Eh]
	 Correlation Energy        =      -1.8855011104919475 [Eh]
	 Total Energy              =    -748.7764442627974404 [Eh]

	 ================> DF-SCS-MP2 Energies <==================
	-----------------------------------------------------------
	 SCS Same-Spin Scale       =       0.3333333333333333 [-]
	 SCS Opposite-Spin Scale   =       1.2000000000000000 [-]
	 SCS Same-Spin Energy      =      -0.1424182836856249 [Eh]
	 SCS Opposite-Spin Energy  =      -1.7498955113220875 [Eh]
	 SCS Correlation Energy    =      -1.8923137950077125 [Eh]
	 SCS Total Energy          =    -748.7832569473131343 [Eh]
	-----------------------------------------------------------

  Dipole Moment: [D]
     X:    -0.0596      Y:     2.8751      Z:    -2.2648     Total:     3.6604

*** Psi4 exiting successfully. Buy a developer a beer!
