                               Psi4 1.4a3.dev225

  ==> Input File <==

--------------------------------------------------------------------------
#psi4
#
memory 32 gb

molecule  {
0 1
  S       -0.2613620    -0.5930190    -0.1424790
  O       -0.2870700    -1.2499240     1.2262220
  C        2.3977240     0.0716980     0.1844310
  C        1.0261530     0.6905850    -0.0782140
  C       -1.6743200     0.5466190    -0.2136450
  C        2.8653030    -0.7972080    -0.9817560
  C        3.4104270     1.1761770     0.4821660
  C       -2.8916509    -0.1874189    -0.1361206
  C       -4.1937400     0.6821530    -0.1120660
  H        2.2947170    -0.5588030     1.0765090
  H        0.7552030     1.3745990     0.7353710
  H        1.0111040     1.2381230    -1.0301620
  H       -1.5863530     1.2355690     0.6350930
  H       -1.6018540     1.1165020    -1.1483330
  H        2.9531350    -0.1978260    -1.8953020
  H        3.8477320    -1.2283710    -0.7670690
  H        2.1762820    -1.6227130    -1.1817050
  H        3.5229730     1.8417250    -0.3809710
  H        4.3924350     0.7485930     0.7071400
  H        3.0997810     1.7802300     1.3402560
  H       -3.0432920    -0.9285740    -0.9804800
  H       -2.9504610    -0.8515990     0.7760110
  H       -4.1584820     1.3575060     0.7479640
  H       -4.2413300     1.2926870    -1.0190020
  H       -5.1195520     0.1037900    -0.0468840
units angstrom
no_reorient  #important for SAPT in psi4, default
symmetry c1  #important for SAPT in psi4, default
}

set PROPERTIES_ORIGIN ["COM"]
properties('MP2/aug-cc-pvtz', properties = ['dipole'])
--------------------------------------------------------------------------

    Molecular point group: c1
  Charge       = 0
  Multiplicity = 1
  Basis Set: AUG-CC-PVTZ
    Blend: AUG-CC-PVTZ
  Basis Set: (AUG-CC-PVTZ AUX)
    Blend: AUG-CC-PVTZ-JKFIT

    Orbital Energies [Eh]
    ---------------------

    Doubly Occupied:

       1A    -92.058587     2A    -20.498574     3A    -11.260559
       4A    -11.258808     5A    -11.238291     6A    -11.235093
       7A    -11.225801     8A    -11.221460     9A    -11.218242
      10A     -9.046164    11A     -6.727755    12A     -6.727527
      13A     -6.726239    14A     -1.318376    15A     -1.113334
      16A     -1.095754    17A     -1.004559    18A     -0.944280
      19A     -0.937662    20A     -0.847961    21A     -0.795706
      22A     -0.773779    23A     -0.667160    24A     -0.650562
      25A     -0.633728    26A     -0.613458    27A     -0.594995
      28A     -0.589470    29A     -0.566013    30A     -0.554997
      31A     -0.545774    32A     -0.535793    33A     -0.524987
      34A     -0.507660    35A     -0.489162    36A     -0.479966
      37A     -0.478268    38A     -0.473993    39A     -0.466994
      40A     -0.404211    41A     -0.360257

  @DF-RHF Final Energy:  -746.87999455784950

   => Energetics <=

    Nuclear Repulsion Energy =            576.7106434854708823
    One-Electron Energy =               -2168.3573567521643781
    Two-Electron Energy =                 844.7667187088439960
    Total Energy =                       -746.8799945578494999
  Basis Set: (AUG-CC-PVTZ AUX)
    Blend: AUG-CC-PVTZ-RI
    Molecular point group: c1

    Geometry (in Angstrom), charge = 0, multiplicity = 1:

       Center              X                  Y                   Z               Mass
    ------------   -----------------  -----------------  -----------------  -----------------
         S           -0.259291845775    -0.552454164555    -0.158313199343    31.972071174400
         O           -0.284999845775    -1.209359164555     1.210387800657    15.994914619570
         C            2.399794154225     0.112262835445     0.168596800657    12.000000000000
         C            1.028223154225     0.731149835445    -0.094048199343    12.000000000000
         C           -1.672249845775     0.587183835445    -0.229479199343    12.000000000000
         C            2.867373154225    -0.756643164555    -0.997590199343    12.000000000000
         C            3.412497154225     1.216741835445     0.466331800657    12.000000000000
         C           -2.889580745775    -0.146854064555    -0.151954799343    12.000000000000
         C           -4.191669845775     0.722717835445    -0.127900199343    12.000000000000
         H            2.296787154225    -0.518238164555     1.060674800657     1.007825032230
         H            0.757273154225     1.415163835445     0.719536800657     1.007825032230
         H            1.013174154225     1.278687835445    -1.045996199343     1.007825032230
         H           -1.584282845775     1.276133835445     0.619258800657     1.007825032230
         H           -1.599783845775     1.157066835445    -1.164167199343     1.007825032230
         H            2.955205154225    -0.157261164555    -1.911136199343     1.007825032230
         H            3.849802154225    -1.187806164555    -0.782903199343     1.007825032230
         H            2.178352154225    -1.582148164555    -1.197539199343     1.007825032230
         H            3.525043154225     1.882289835445    -0.396805199343     1.007825032230
         H            4.394505154225     0.789157835445     0.691305800657     1.007825032230
         H            3.101851154225     1.820794835445     1.324421800657     1.007825032230
         H           -3.041221845775    -0.888009164555    -0.996314199343     1.007825032230
         H           -2.948390845775    -0.811034164555     0.760176800657     1.007825032230
         H           -4.156411845775     1.398070835445     0.732129800657     1.007825032230
         H           -4.239259845775     1.333251835445    -1.034836199343     1.007825032230
         H           -5.117481845775     0.144354835445    -0.062718199343     1.007825032230

  Basis Set: AUG-CC-PVTZ
    Blend: AUG-CC-PVTZ
  Basis Set: (AUG-CC-PVTZ AUX)
    Blend: AUG-CC-PVTZ-JKFIT
	 Reference Energy          =    -746.8799945578494999 [Eh]
	 Singles Energy            =      -0.0000000000000000 [Eh]
	 Same-Spin Energy          =      -0.4282105403798340 [Eh]
	 Opposite-Spin Energy      =      -1.4595191006525119 [Eh]
	 Correlation Energy        =      -1.8877296410323459 [Eh]
	 Total Energy              =    -748.7677241988818650 [Eh]

	 ================> DF-SCS-MP2 Energies <==================
	-----------------------------------------------------------
	 SCS Same-Spin Scale       =       0.3333333333333333 [-]
	 SCS Opposite-Spin Scale   =       1.2000000000000000 [-]
	 SCS Same-Spin Energy      =      -0.1427368467932780 [Eh]
	 SCS Opposite-Spin Energy  =      -1.7514229207830143 [Eh]
	 SCS Correlation Energy    =      -1.8941597675762922 [Eh]
	 SCS Total Energy          =    -748.7741543254257977 [Eh]
	-----------------------------------------------------------

  Dipole Moment: [D]
     X:     0.0238      Y:     2.8858      Z:    -2.2577     Total:     3.6641

*** Psi4 exiting successfully. Buy a developer a beer!
