                               Psi4 1.4a3.dev225

  ==> Input File <==

--------------------------------------------------------------------------
#psi4
#
memory 32 gb

molecule  {
0 1
  S       -0.2613620    -0.5930190    -0.1424790
  O       -0.2870700    -1.2499240     1.2262220
  C        2.3977240     0.0716980     0.1844310
  C        1.0261530     0.6905850    -0.0782140
  C       -1.6743200     0.5466190    -0.2136450
  C        2.7307406    -0.8813122    -0.9620817
  C        3.4104270     1.1761770     0.4821660
  C       -2.9771600    -0.2389800    -0.1306750
  C       -4.1937400     0.6821530    -0.1120660
  H        2.2947170    -0.5588030     1.0765090
  H        0.7552030     1.3745990     0.7353710
  H        1.0111040     1.2381230    -1.0301620
  H       -1.5863530     1.2355690     0.6350930
  H       -1.6018540     1.1165020    -1.1483330
  H        2.9531350    -0.1978260    -1.8953020
  H        3.8477320    -1.2283710    -0.7670690
  H        2.1762820    -1.6227130    -1.1817050
  H        3.5229730     1.8417250    -0.3809710
  H        4.3924350     0.7485930     0.7071400
  H        3.0997810     1.7802300     1.3402560
  H       -3.0432920    -0.9285740    -0.9804800
  H       -2.9504610    -0.8515990     0.7760110
  H       -4.1584820     1.3575060     0.7479640
  H       -4.2413300     1.2926870    -1.0190020
  H       -5.1195520     0.1037900    -0.0468840
units angstrom
no_reorient  #important for SAPT in psi4, default
symmetry c1  #important for SAPT in psi4, default
}

set PROPERTIES_ORIGIN ["COM"]
properties('MP2/aug-cc-pvtz', properties = ['dipole'])
--------------------------------------------------------------------------

    Molecular point group: c1
  Charge       = 0
  Multiplicity = 1
  Basis Set: AUG-CC-PVTZ
    Blend: AUG-CC-PVTZ
  Basis Set: (AUG-CC-PVTZ AUX)
    Blend: AUG-CC-PVTZ-JKFIT

    Orbital Energies [Eh]
    ---------------------

    Doubly Occupied:

       1A    -92.057891     2A    -20.497780     3A    -11.261982
       4A    -11.258395     5A    -11.240293     6A    -11.233646
       7A    -11.225132     8A    -11.223880     9A    -11.222832
      10A     -9.045390    11A     -6.726992    12A     -6.726805
      13A     -6.725523    14A     -1.317498    15A     -1.110844
      16A     -1.085315    17A     -1.006689    18A     -0.946079
      19A     -0.940642    20A     -0.846194    21A     -0.801083
      22A     -0.774502    23A     -0.666338    24A     -0.655839
      25A     -0.630283    26A     -0.618775    27A     -0.598411
      28A     -0.585554    29A     -0.566561    30A     -0.554658
      31A     -0.544774    32A     -0.525793    33A     -0.516155
      34A     -0.507592    35A     -0.499388    36A     -0.494056
      37A     -0.485554    38A     -0.461805    39A     -0.458396
      40A     -0.403748    41A     -0.360228

  @DF-RHF Final Energy:  -746.85955299851287

   => Energetics <=

    Nuclear Repulsion Energy =            576.2611909319743972
    One-Electron Energy =               -2167.4229060691964150
    Two-Electron Energy =                 844.3021621387091500
    Total Energy =                       -746.8595529985128678
  Basis Set: (AUG-CC-PVTZ AUX)
    Blend: AUG-CC-PVTZ-RI
    Molecular point group: c1

    Geometry (in Angstrom), charge = 0, multiplicity = 1:

       Center              X                  Y                   Z               Mass
    ------------   -----------------  -----------------  -----------------  -----------------
         S           -0.241459318173    -0.541461122717    -0.160348680130    31.972071174400
         O           -0.267167318173    -1.198366122717     1.208352319870    15.994914619570
         C            2.417626681827     0.123255877283     0.166561319870    12.000000000000
         C            1.046055681827     0.742142877283    -0.096083680130    12.000000000000
         C           -1.654417318173     0.598176877283    -0.231514680130    12.000000000000
         C            2.750643281827    -0.829754322717    -0.979951380130    12.000000000000
         C            3.430329681827     1.227734877283     0.464296319870    12.000000000000
         C           -2.957257318173    -0.187422122717    -0.148544680130    12.000000000000
         C           -4.173837318173     0.733710877283    -0.129935680130    12.000000000000
         H            2.314619681827    -0.507245122717     1.058639319870     1.007825032230
         H            0.775105681827     1.426156877283     0.717501319870     1.007825032230
         H            1.031006681827     1.289680877283    -1.048031680130     1.007825032230
         H           -1.566450318173     1.287126877283     0.617223319870     1.007825032230
         H           -1.581951318173     1.168059877283    -1.166202680130     1.007825032230
         H            2.973037681827    -0.146268122717    -1.913171680130     1.007825032230
         H            3.867634681827    -1.176813122717    -0.784938680130     1.007825032230
         H            2.196184681827    -1.571155122717    -1.199574680130     1.007825032230
         H            3.542875681827     1.893282877283    -0.398840680130     1.007825032230
         H            4.412337681827     0.800150877283     0.689270319870     1.007825032230
         H            3.119683681827     1.831787877283     1.322386319870     1.007825032230
         H           -3.023389318173    -0.877016122717    -0.998349680130     1.007825032230
         H           -2.930558318173    -0.800041122717     0.758141319870     1.007825032230
         H           -4.138579318173     1.409063877283     0.730094319870     1.007825032230
         H           -4.221427318173     1.344244877283    -1.036871680130     1.007825032230
         H           -5.099649318173     0.155347877283    -0.064753680130     1.007825032230

  Basis Set: AUG-CC-PVTZ
    Blend: AUG-CC-PVTZ
  Basis Set: (AUG-CC-PVTZ AUX)
    Blend: AUG-CC-PVTZ-JKFIT
	 Reference Energy          =    -746.8595529985128678 [Eh]
	 Singles Energy            =      -0.0000000000000000 [Eh]
	 Same-Spin Energy          =      -0.4278290860681808 [Eh]
	 Opposite-Spin Energy      =      -1.4597919889927613 [Eh]
	 Correlation Energy        =      -1.8876210750609421 [Eh]
	 Total Energy              =    -748.7471740735737740 [Eh]

	 ================> DF-SCS-MP2 Energies <==================
	-----------------------------------------------------------
	 SCS Same-Spin Scale       =       0.3333333333333333 [-]
	 SCS Opposite-Spin Scale   =       1.2000000000000000 [-]
	 SCS Same-Spin Energy      =      -0.1426096953560603 [Eh]
	 SCS Opposite-Spin Energy  =      -1.7517503867913136 [Eh]
	 SCS Correlation Energy    =      -1.8943600821473738 [Eh]
	 SCS Total Energy          =    -748.7539130806602543 [Eh]
	-----------------------------------------------------------

  Dipole Moment: [D]
     X:    -0.0672      Y:     2.9295      Z:    -2.2000     Total:     3.6642

*** Psi4 exiting successfully. Buy a developer a beer!
