                               Psi4 1.4a3.dev225

  ==> Input File <==

--------------------------------------------------------------------------
#psi4
#
memory 32 gb

molecule  {
0 1
  S       -0.2613620    -0.5930190    -0.1424790
  O       -0.2870700    -1.2499240     1.2262220
  C        2.3977240     0.0716980     0.1844310
  C        1.0261530     0.6905850    -0.0782140
  C       -1.6743200     0.5466190    -0.2136450
  C        2.8431925    -0.8119127    -0.9793601
  C        3.4104270     1.1761770     0.4821660
  C       -2.9771600    -0.2389800    -0.1306750
  C       -4.1937400     0.6821530    -0.1120660
  H        2.2947170    -0.5588030     1.0765090
  H        0.7552030     1.3745990     0.7353710
  H        1.0111040     1.2381230    -1.0301620
  H       -1.5863530     1.2355690     0.6350930
  H       -1.6018540     1.1165020    -1.1483330
  H        2.9531350    -0.1978260    -1.8953020
  H        3.8477320    -1.2283710    -0.7670690
  H        2.1762820    -1.6227130    -1.1817050
  H        3.5229730     1.8417250    -0.3809710
  H        4.3924350     0.7485930     0.7071400
  H        3.0997810     1.7802300     1.3402560
  H       -3.0432920    -0.9285740    -0.9804800
  H       -2.9504610    -0.8515990     0.7760110
  H       -4.1584820     1.3575060     0.7479640
  H       -4.2413300     1.2926870    -1.0190020
  H       -5.1195520     0.1037900    -0.0468840
units angstrom
no_reorient  #important for SAPT in psi4, default
symmetry c1  #important for SAPT in psi4, default
}

set PROPERTIES_ORIGIN ["COM"]
properties('MP2/aug-cc-pvtz', properties = ['dipole'])
--------------------------------------------------------------------------

    Molecular point group: c1
  Charge       = 0
  Multiplicity = 1
  Basis Set: AUG-CC-PVTZ
    Blend: AUG-CC-PVTZ
  Basis Set: (AUG-CC-PVTZ AUX)
    Blend: AUG-CC-PVTZ-JKFIT

    Orbital Energies [Eh]
    ---------------------

    Doubly Occupied:

       1A    -92.057609     2A    -20.497479     3A    -11.261752
       4A    -11.259522     5A    -11.237860     6A    -11.233485
       7A    -11.223758     8A    -11.221597     9A    -11.218050
      10A     -9.045072    11A     -6.726672    12A     -6.726483
      13A     -6.725199    14A     -1.317140    15A     -1.109673
      16A     -1.085045    17A     -1.007408    18A     -0.941650
      19A     -0.938194    20A     -0.845605    21A     -0.800242
      22A     -0.772705    23A     -0.664359    24A     -0.649635
      25A     -0.629909    26A     -0.611569    27A     -0.594579
      28A     -0.587314    29A     -0.566662    30A     -0.554176
      31A     -0.544113    32A     -0.531863    33A     -0.514005
      34A     -0.506609    35A     -0.499313    36A     -0.486609
      37A     -0.483646    38A     -0.474094    39A     -0.470725
      40A     -0.403500    41A     -0.359492

  @DF-RHF Final Energy:  -746.89082995023580

   => Energetics <=

    Nuclear Repulsion Energy =            575.4198779221669611
    One-Electron Energy =               -2165.8526715288685409
    Two-Electron Energy =                 843.5419636564657822
    Total Energy =                       -746.8908299502357977
  Basis Set: (AUG-CC-PVTZ AUX)
    Blend: AUG-CC-PVTZ-RI
    Molecular point group: c1

    Geometry (in Angstrom), charge = 0, multiplicity = 1:

       Center              X                  Y                   Z               Mass
    ------------   -----------------  -----------------  -----------------  -----------------
         S           -0.250571364079    -0.547084606445    -0.158948600861    31.972071174400
         O           -0.276279364079    -1.203989606445     1.209752399139    15.994914619570
         C            2.408514635921     0.117632393555     0.167961399139    12.000000000000
         C            1.036943635921     0.736519393555    -0.094683600861    12.000000000000
         C           -1.663529364079     0.592553393555    -0.230114600861    12.000000000000
         C            2.853983135921    -0.765978306445    -0.995829700861    12.000000000000
         C            3.421217635921     1.222111393555     0.465696399139    12.000000000000
         C           -2.966369364079    -0.193045606445    -0.147144600861    12.000000000000
         C           -4.182949364079     0.728087393555    -0.128535600861    12.000000000000
         H            2.305507635921    -0.512868606445     1.060039399139     1.007825032230
         H            0.765993635921     1.420533393555     0.718901399139     1.007825032230
         H            1.021894635921     1.284057393555    -1.046631600861     1.007825032230
         H           -1.575562364079     1.281503393555     0.618623399139     1.007825032230
         H           -1.591063364079     1.162436393555    -1.164802600861     1.007825032230
         H            2.963925635921    -0.151891606445    -1.911771600861     1.007825032230
         H            3.858522635921    -1.182436606445    -0.783538600861     1.007825032230
         H            2.187072635921    -1.576778606445    -1.198174600861     1.007825032230
         H            3.533763635921     1.887659393555    -0.397440600861     1.007825032230
         H            4.403225635921     0.794527393555     0.690670399139     1.007825032230
         H            3.110571635921     1.826164393555     1.323786399139     1.007825032230
         H           -3.032501364079    -0.882639606445    -0.996949600861     1.007825032230
         H           -2.939670364079    -0.805664606445     0.759541399139     1.007825032230
         H           -4.147691364079     1.403440393555     0.731494399139     1.007825032230
         H           -4.230539364079     1.338621393555    -1.035471600861     1.007825032230
         H           -5.108761364079     0.149724393555    -0.063353600861     1.007825032230

  Basis Set: AUG-CC-PVTZ
    Blend: AUG-CC-PVTZ
  Basis Set: (AUG-CC-PVTZ AUX)
    Blend: AUG-CC-PVTZ-JKFIT
	 Reference Energy          =    -746.8908299502357977 [Eh]
	 Singles Energy            =      -0.0000000000000000 [Eh]
	 Same-Spin Energy          =      -0.4272843156025597 [Eh]
	 Opposite-Spin Energy      =      -1.4582902546975198 [Eh]
	 Correlation Energy        =      -1.8855745703000797 [Eh]
	 Total Energy              =    -748.7764045205358343 [Eh]

	 ================> DF-SCS-MP2 Energies <==================
	-----------------------------------------------------------
	 SCS Same-Spin Scale       =       0.3333333333333333 [-]
	 SCS Opposite-Spin Scale   =       1.2000000000000000 [-]
	 SCS Same-Spin Energy      =      -0.1424281052008532 [Eh]
	 SCS Opposite-Spin Energy  =      -1.7499483056370237 [Eh]
	 SCS Correlation Energy    =      -1.8923764108378769 [Eh]
	 SCS Total Energy          =    -748.7832063610736668 [Eh]
	-----------------------------------------------------------

  Dipole Moment: [D]
     X:    -0.0546      Y:     2.8878      Z:    -2.2697     Total:     3.6734

*** Psi4 exiting successfully. Buy a developer a beer!
