                               Psi4 1.4a3.dev225

  ==> Input File <==

--------------------------------------------------------------------------
#psi4
#
memory 32 gb

molecule  {
0 1
  S       -0.2613620    -0.5930190    -0.1424790
  O       -0.2870700    -1.2499240     1.2262220
  C        2.3977240     0.0716980     0.1844310
  C        1.0261530     0.6905850    -0.0782140
  C       -1.7132087     0.5779851    -0.2156037
  C        2.8653030    -0.7972080    -0.9817560
  C        3.4104270     1.1761770     0.4821660
  C       -2.9771600    -0.2389800    -0.1306750
  C       -4.1937400     0.6821530    -0.1120660
  H        2.2947170    -0.5588030     1.0765090
  H        0.7552030     1.3745990     0.7353710
  H        1.0111040     1.2381230    -1.0301620
  H       -1.5863530     1.2355690     0.6350930
  H       -1.6018540     1.1165020    -1.1483330
  H        2.9531350    -0.1978260    -1.8953020
  H        3.8477320    -1.2283710    -0.7670690
  H        2.1762820    -1.6227130    -1.1817050
  H        3.5229730     1.8417250    -0.3809710
  H        4.3924350     0.7485930     0.7071400
  H        3.0997810     1.7802300     1.3402560
  H       -3.0432920    -0.9285740    -0.9804800
  H       -2.9504610    -0.8515990     0.7760110
  H       -4.1584820     1.3575060     0.7479640
  H       -4.2413300     1.2926870    -1.0190020
  H       -5.1195520     0.1037900    -0.0468840
units angstrom
no_reorient  #important for SAPT in psi4, default
symmetry c1  #important for SAPT in psi4, default
}

set PROPERTIES_ORIGIN ["COM"]
properties('MP2/aug-cc-pvtz', properties = ['dipole'])
--------------------------------------------------------------------------

    Molecular point group: c1
  Charge       = 0
  Multiplicity = 1
  Basis Set: AUG-CC-PVTZ
    Blend: AUG-CC-PVTZ
  Basis Set: (AUG-CC-PVTZ AUX)
    Blend: AUG-CC-PVTZ-JKFIT

    Orbital Energies [Eh]
    ---------------------

    Doubly Occupied:

       1A    -92.056291     2A    -20.497316     3A    -11.261976
       4A    -11.259481     5A    -11.237452     6A    -11.232745
       7A    -11.223256     8A    -11.220808     9A    -11.217513
      10A     -9.043435    11A     -6.724951    12A     -6.724771
      13A     -6.723523    14A     -1.315490    15A     -1.108753
      16A     -1.086641    17A     -1.004639    18A     -0.941086
      19A     -0.936952    20A     -0.843939    21A     -0.803423
      22A     -0.772077    23A     -0.666684    24A     -0.649625
      25A     -0.627670    26A     -0.610456    27A     -0.593963
      28A     -0.588329    29A     -0.566839    30A     -0.554739
      31A     -0.544879    32A     -0.532685    33A     -0.512575
      34A     -0.506782    35A     -0.502629    36A     -0.488561
      37A     -0.479732    38A     -0.476011    39A     -0.472204
      40A     -0.398710    41A     -0.356664

  @DF-RHF Final Energy:  -746.88988991282451

   => Energetics <=

    Nuclear Repulsion Energy =            574.4977729265925745
    One-Electron Energy =               -2164.0428139338750952
    Two-Electron Energy =                 842.6551510944581196
    Total Energy =                       -746.8898899128245148
  Basis Set: (AUG-CC-PVTZ AUX)
    Blend: AUG-CC-PVTZ-RI
    Molecular point group: c1

    Geometry (in Angstrom), charge = 0, multiplicity = 1:

       Center              X                  Y                   Z               Mass
    ------------   -----------------  -----------------  -----------------  -----------------
         S           -0.249211816320    -0.550817751412    -0.158595744972    31.972071174400
         O           -0.274919816320    -1.207722751412     1.210105255028    15.994914619570
         C            2.409874183680     0.113899248588     0.168314255028    12.000000000000
         C            1.038303183680     0.732786248588    -0.094330744972    12.000000000000
         C           -1.701058516320     0.620186348588    -0.231720444972    12.000000000000
         C            2.877453183680    -0.755006751412    -0.997872744972    12.000000000000
         C            3.422577183680     1.218378248588     0.466049255028    12.000000000000
         C           -2.965009816320    -0.196778751412    -0.146791744972    12.000000000000
         C           -4.181589816320     0.724354248588    -0.128182744972    12.000000000000
         H            2.306867183680    -0.516601751412     1.060392255028     1.007825032230
         H            0.767353183680     1.416800248588     0.719254255028     1.007825032230
         H            1.023254183680     1.280324248588    -1.046278744972     1.007825032230
         H           -1.574202816320     1.277770248588     0.618976255028     1.007825032230
         H           -1.589703816320     1.158703248588    -1.164449744972     1.007825032230
         H            2.965285183680    -0.155624751412    -1.911418744972     1.007825032230
         H            3.859882183680    -1.186169751412    -0.783185744972     1.007825032230
         H            2.188432183680    -1.580511751412    -1.197821744972     1.007825032230
         H            3.535123183680     1.883926248588    -0.397087744972     1.007825032230
         H            4.404585183680     0.790794248588     0.691023255028     1.007825032230
         H            3.111931183680     1.822431248588     1.324139255028     1.007825032230
         H           -3.031141816320    -0.886372751412    -0.996596744972     1.007825032230
         H           -2.938310816320    -0.809397751412     0.759894255028     1.007825032230
         H           -4.146331816320     1.399707248588     0.731847255028     1.007825032230
         H           -4.229179816320     1.334888248588    -1.035118744972     1.007825032230
         H           -5.107401816320     0.145991248588    -0.063000744972     1.007825032230

  Basis Set: AUG-CC-PVTZ
    Blend: AUG-CC-PVTZ
  Basis Set: (AUG-CC-PVTZ AUX)
    Blend: AUG-CC-PVTZ-JKFIT
	 Reference Energy          =    -746.8898899128245148 [Eh]
	 Singles Energy            =      -0.0000000000000000 [Eh]
	 Same-Spin Energy          =      -0.4273621747573205 [Eh]
	 Opposite-Spin Energy      =      -1.4586596547222743 [Eh]
	 Correlation Energy        =      -1.8860218294795947 [Eh]
	 Total Energy              =    -748.7759117423040607 [Eh]

	 ================> DF-SCS-MP2 Energies <==================
	-----------------------------------------------------------
	 SCS Same-Spin Scale       =       0.3333333333333333 [-]
	 SCS Opposite-Spin Scale   =       1.2000000000000000 [-]
	 SCS Same-Spin Energy      =      -0.1424540582524402 [Eh]
	 SCS Opposite-Spin Energy  =      -1.7503915856667291 [Eh]
	 SCS Correlation Energy    =      -1.8928456439191692 [Eh]
	 SCS Total Energy          =    -748.7827355567436598 [Eh]
	-----------------------------------------------------------

  Dipole Moment: [D]
     X:    -0.0352      Y:     2.8636      Z:    -2.2665     Total:     3.6522

*** Psi4 exiting successfully. Buy a developer a beer!
