                               Psi4 1.4a3.dev225

  ==> Input File <==

--------------------------------------------------------------------------
#psi4
#
memory 32 gb

molecule  {
0 1
  S       -0.2613620    -0.5930190    -0.1424790
  O       -0.2870700    -1.2499240     1.2262220
  C        2.3977240     0.0716980     0.1844310
  C        1.0687490     0.7400208    -0.1625280
  C       -1.6743200     0.5466190    -0.2136450
  C        2.8653030    -0.7972080    -0.9817560
  C        3.4104270     1.1761770     0.4821660
  C       -2.9771600    -0.2389800    -0.1306750
  C       -4.1937400     0.6821530    -0.1120660
  H        2.2947170    -0.5588030     1.0765090
  H        0.7552030     1.3745990     0.7353710
  H        1.0111040     1.2381230    -1.0301620
  H       -1.5863530     1.2355690     0.6350930
  H       -1.6018540     1.1165020    -1.1483330
  H        2.9531350    -0.1978260    -1.8953020
  H        3.8477320    -1.2283710    -0.7670690
  H        2.1762820    -1.6227130    -1.1817050
  H        3.5229730     1.8417250    -0.3809710
  H        4.3924350     0.7485930     0.7071400
  H        3.0997810     1.7802300     1.3402560
  H       -3.0432920    -0.9285740    -0.9804800
  H       -2.9504610    -0.8515990     0.7760110
  H       -4.1584820     1.3575060     0.7479640
  H       -4.2413300     1.2926870    -1.0190020
  H       -5.1195520     0.1037900    -0.0468840
units angstrom
no_reorient  #important for SAPT in psi4, default
symmetry c1  #important for SAPT in psi4, default
}

set PROPERTIES_ORIGIN ["COM"]
properties('MP2/aug-cc-pvtz', properties = ['dipole'])
--------------------------------------------------------------------------

    Molecular point group: c1
  Charge       = 0
  Multiplicity = 1
  Basis Set: AUG-CC-PVTZ
    Blend: AUG-CC-PVTZ
  Basis Set: (AUG-CC-PVTZ AUX)
    Blend: AUG-CC-PVTZ-JKFIT

    Orbital Energies [Eh]
    ---------------------

    Doubly Occupied:

       1A    -92.055825     2A    -20.500075     3A    -11.261022
       4A    -11.260442     5A    -11.238799     6A    -11.232527
       7A    -11.223089     8A    -11.220713     9A    -11.217429
      10A     -9.042836    11A     -6.724402    12A     -6.724140
      13A     -6.722979    14A     -1.316063    15A     -1.109855
      16A     -1.084452    17A     -1.003535    18A     -0.942018
      19A     -0.937478    20A     -0.844387    21A     -0.797747
      22A     -0.782250    23A     -0.663800    24A     -0.650178
      25A     -0.625363    26A     -0.615890    27A     -0.592967
      28A     -0.590900    29A     -0.566373    30A     -0.558610
      31A     -0.544849    32A     -0.529865    33A     -0.511679
      34A     -0.506825    35A     -0.498766    36A     -0.485914
      37A     -0.484750    38A     -0.478776    39A     -0.467683
      40A     -0.400020    41A     -0.353967

  @DF-RHF Final Energy:  -746.87899913924991

   => Energetics <=

    Nuclear Repulsion Energy =            574.1165143966750293
    One-Electron Energy =               -2163.2525508861394883
    Two-Electron Energy =                 842.2570373502145458
    Total Energy =                       -746.8789991392499132
  Basis Set: (AUG-CC-PVTZ AUX)
    Blend: AUG-CC-PVTZ-RI
    Molecular point group: c1

    Geometry (in Angstrom), charge = 0, multiplicity = 1:

       Center              X                  Y                   Z               Mass
    ------------   -----------------  -----------------  -----------------  -----------------
         S           -0.255814571161    -0.552281950202    -0.151922444884    31.972071174400
         O           -0.281522571161    -1.209186950202     1.216778555116    15.994914619570
         C            2.403271428839     0.112435049798     0.174987555116    12.000000000000
         C            1.074296428839     0.780757849798    -0.171971444884    12.000000000000
         C           -1.668772571161     0.587356049798    -0.223088444884    12.000000000000
         C            2.870850428839    -0.756470950202    -0.991199444884    12.000000000000
         C            3.415974428839     1.216914049798     0.472722555116    12.000000000000
         C           -2.971612571161    -0.198242950202    -0.140118444884    12.000000000000
         C           -4.188192571161     0.722890049798    -0.121509444884    12.000000000000
         H            2.300264428839    -0.518065950202     1.067065555116     1.007825032230
         H            0.760750428839     1.415336049798     0.725927555116     1.007825032230
         H            1.016651428839     1.278860049798    -1.039605444884     1.007825032230
         H           -1.580805571161     1.276306049798     0.625649555116     1.007825032230
         H           -1.596306571161     1.157239049798    -1.157776444884     1.007825032230
         H            2.958682428839    -0.157088950202    -1.904745444884     1.007825032230
         H            3.853279428839    -1.187633950202    -0.776512444884     1.007825032230
         H            2.181829428839    -1.581975950202    -1.191148444884     1.007825032230
         H            3.528520428839     1.882462049798    -0.390414444884     1.007825032230
         H            4.397982428839     0.789330049798     0.697696555116     1.007825032230
         H            3.105328428839     1.820967049798     1.330812555116     1.007825032230
         H           -3.037744571161    -0.887836950202    -0.989923444884     1.007825032230
         H           -2.944913571161    -0.810861950202     0.766567555116     1.007825032230
         H           -4.152934571161     1.398243049798     0.738520555116     1.007825032230
         H           -4.235782571161     1.333424049798    -1.028445444884     1.007825032230
         H           -5.114004571161     0.144527049798    -0.056327444884     1.007825032230

  Basis Set: AUG-CC-PVTZ
    Blend: AUG-CC-PVTZ
  Basis Set: (AUG-CC-PVTZ AUX)
    Blend: AUG-CC-PVTZ-JKFIT
	 Reference Energy          =    -746.8789991392499132 [Eh]
	 Singles Energy            =      -0.0000000000000000 [Eh]
	 Same-Spin Energy          =      -0.4275011911767738 [Eh]
	 Opposite-Spin Energy      =      -1.4592724655598062 [Eh]
	 Correlation Energy        =      -1.8867736567365800 [Eh]
	 Total Energy              =    -748.7657727959865497 [Eh]

	 ================> DF-SCS-MP2 Energies <==================
	-----------------------------------------------------------
	 SCS Same-Spin Scale       =       0.3333333333333333 [-]
	 SCS Opposite-Spin Scale   =       1.2000000000000000 [-]
	 SCS Same-Spin Energy      =      -0.1425003970589246 [Eh]
	 SCS Opposite-Spin Energy  =      -1.7511269586717673 [Eh]
	 SCS Correlation Energy    =      -1.8936273557306920 [Eh]
	 SCS Total Energy          =    -748.7726264949806136 [Eh]
	-----------------------------------------------------------

  Dipole Moment: [D]
     X:    -0.0590      Y:     2.8491      Z:    -2.2807     Total:     3.6500

*** Psi4 exiting successfully. Buy a developer a beer!
