                               Psi4 1.4a3.dev225

  ==> Input File <==

--------------------------------------------------------------------------
#psi4
#
memory 32 gb

molecule  {
0 1
  S       -0.2613620    -0.5930190    -0.1424790
  O       -0.2870700    -1.2499240     1.2262220
  C        2.3977240     0.0716980     0.1844310
  C        1.0261530     0.6905850    -0.0782140
  C       -1.6743200     0.5466190    -0.2136450
  C        2.8653030    -0.7972080    -0.9817560
  C        3.4104270     1.1761770     0.4821660
  C       -2.9771600    -0.2389800    -0.1306750
  C       -4.1937400     0.6821530    -0.1120660
  H        2.2947170    -0.5588030     1.0765090
  H        0.7552030     1.3745990     0.7353710
  H        1.0111040     1.2381230    -1.0301620
  H       -1.5863530     1.2355690     0.6350930
  H       -1.6018540     1.1165020    -1.1483330
  H        2.9531350    -0.1978260    -1.8953020
  H        3.8477320    -1.2283710    -0.7670690
  H        2.1762820    -1.6227130    -1.1817050
  H        3.5229730     1.8417250    -0.3809710
  H        4.3924350     0.7485930     0.7071400
  H        3.0997810     1.7802300     1.3402560
  H       -3.0432920    -0.9285740    -0.9804800
  H       -2.9504610    -0.8515990     0.7760110
  H       -4.1649273     1.2340494     0.5907478
  H       -4.2413300     1.2926870    -1.0190020
  H       -5.1195520     0.1037900    -0.0468840
units angstrom
no_reorient  #important for SAPT in psi4, default
symmetry c1  #important for SAPT in psi4, default
}

set PROPERTIES_ORIGIN ["COM"]
properties('MP2/aug-cc-pvtz', properties = ['dipole'])
--------------------------------------------------------------------------

    Molecular point group: c1
  Charge       = 0
  Multiplicity = 1
  Basis Set: AUG-CC-PVTZ
    Blend: AUG-CC-PVTZ
  Basis Set: (AUG-CC-PVTZ AUX)
    Blend: AUG-CC-PVTZ-JKFIT

    Orbital Energies [Eh]
    ---------------------

    Doubly Occupied:

       1A    -92.057473     2A    -20.497323     3A    -11.261543
       4A    -11.259703     5A    -11.237658     6A    -11.231626
       7A    -11.221005     8A    -11.217715     9A    -11.198469
      10A     -9.044922    11A     -6.726517    12A     -6.726328
      13A     -6.725043    14A     -1.316967    15A     -1.109777
      16A     -1.088391    17A     -1.014036    18A     -0.951284
      19A     -0.937161    20A     -0.855119    21A     -0.802977
      22A     -0.772900    23A     -0.666389    24A     -0.653249
      25A     -0.630336    26A     -0.611168    27A     -0.600819
      28A     -0.591943    29A     -0.569958    30A     -0.560295
      31A     -0.545117    32A     -0.533300    33A     -0.513525
      34A     -0.509988    35A     -0.502111    36A     -0.487473
      37A     -0.479903    38A     -0.475633    39A     -0.472462
      40A     -0.403202    41A     -0.359233

  @DF-RHF Final Energy:  -746.85745883789127

   => Energetics <=

    Nuclear Repulsion Energy =            576.1953025075021060
    One-Electron Energy =               -2167.2654368303979027
    Two-Electron Energy =                 844.2126754850044108
    Total Energy =                       -746.8574588378912722
  Basis Set: (AUG-CC-PVTZ AUX)
    Blend: AUG-CC-PVTZ-RI
    Molecular point group: c1

    Geometry (in Angstrom), charge = 0, multiplicity = 1:

       Center              X                  Y                   Z               Mass
    ------------   -----------------  -----------------  -----------------  -----------------
         S           -0.252319128575    -0.547435966969    -0.157684542125    31.972071174400
         O           -0.278027128575    -1.204340966969     1.211016457875    15.994914619570
         C            2.406766871425     0.117281033031     0.169225457875    12.000000000000
         C            1.035195871425     0.736168033031    -0.093419542125    12.000000000000
         C           -1.665277128575     0.592202033031    -0.228850542125    12.000000000000
         C            2.874345871425    -0.751624966969    -0.996961542125    12.000000000000
         C            3.419469871425     1.221760033031     0.466960457875    12.000000000000
         C           -2.968117128575    -0.193396966969    -0.145880542125    12.000000000000
         C           -4.184697128575     0.727736033031    -0.127271542125    12.000000000000
         H            2.303759871425    -0.513219966969     1.061303457875     1.007825032230
         H            0.764245871425     1.420182033031     0.720165457875     1.007825032230
         H            1.020146871425     1.283706033031    -1.045367542125     1.007825032230
         H           -1.577310128575     1.281152033031     0.619887457875     1.007825032230
         H           -1.592811128575     1.162085033031    -1.163538542125     1.007825032230
         H            2.962177871425    -0.152242966969    -1.910507542125     1.007825032230
         H            3.856774871425    -1.182787966969    -0.782274542125     1.007825032230
         H            2.185324871425    -1.577129966969    -1.196910542125     1.007825032230
         H            3.532015871425     1.887308033031    -0.396176542125     1.007825032230
         H            4.401477871425     0.794176033031     0.691934457875     1.007825032230
         H            3.108823871425     1.825813033031     1.325050457875     1.007825032230
         H           -3.034249128575    -0.882990966969    -0.995685542125     1.007825032230
         H           -2.941418128575    -0.806015966969     0.760805457875     1.007825032230
         H           -4.155884428575     1.279632433031     0.575542257875     1.007825032230
         H           -4.232287128575     1.338270033031    -1.034207542125     1.007825032230
         H           -5.110509128575     0.149373033031    -0.062089542125     1.007825032230

  Basis Set: AUG-CC-PVTZ
    Blend: AUG-CC-PVTZ
  Basis Set: (AUG-CC-PVTZ AUX)
    Blend: AUG-CC-PVTZ-JKFIT
	 Reference Energy          =    -746.8574588378912722 [Eh]
	 Singles Energy            =      -0.0000000000000000 [Eh]
	 Same-Spin Energy          =      -0.4274577302749989 [Eh]
	 Opposite-Spin Energy      =      -1.4577574077564757 [Eh]
	 Correlation Energy        =      -1.8852151380314746 [Eh]
	 Total Energy              =    -748.7426739759227985 [Eh]

	 ================> DF-SCS-MP2 Energies <==================
	-----------------------------------------------------------
	 SCS Same-Spin Scale       =       0.3333333333333333 [-]
	 SCS Opposite-Spin Scale   =       1.2000000000000000 [-]
	 SCS Same-Spin Energy      =      -0.1424859100916663 [Eh]
	 SCS Opposite-Spin Energy  =      -1.7493088893077708 [Eh]
	 SCS Correlation Energy    =      -1.8917947993994371 [Eh]
	 SCS Total Energy          =    -748.7492536372907352 [Eh]
	-----------------------------------------------------------

  Dipole Moment: [D]
     X:    -0.0719      Y:     2.9506      Z:    -2.2172     Total:     3.6914

*** Psi4 exiting successfully. Buy a developer a beer!
