                               Psi4 1.4a3.dev225

  ==> Input File <==

--------------------------------------------------------------------------
#psi4
#
memory 32 gb

molecule  {
0 1
  S       -0.2613620    -0.5930190    -0.1424790
  O       -0.1569703    -1.3293947     1.1812962
  C        2.3977240     0.0716980     0.1844310
  C        1.0261530     0.6905850    -0.0782140
  C       -1.6743200     0.5466190    -0.2136450
  C        2.8653030    -0.7972080    -0.9817560
  C        3.4104270     1.1761770     0.4821660
  C       -2.9771600    -0.2389800    -0.1306750
  C       -4.1937400     0.6821530    -0.1120660
  H        2.2947170    -0.5588030     1.0765090
  H        0.7552030     1.3745990     0.7353710
  H        1.0111040     1.2381230    -1.0301620
  H       -1.5863530     1.2355690     0.6350930
  H       -1.6018540     1.1165020    -1.1483330
  H        2.9531350    -0.1978260    -1.8953020
  H        3.8477320    -1.2283710    -0.7670690
  H        2.1762820    -1.6227130    -1.1817050
  H        3.5229730     1.8417250    -0.3809710
  H        4.3924350     0.7485930     0.7071400
  H        3.0997810     1.7802300     1.3402560
  H       -3.0432920    -0.9285740    -0.9804800
  H       -2.9504610    -0.8515990     0.7760110
  H       -4.1584820     1.3575060     0.7479640
  H       -4.2413300     1.2926870    -1.0190020
  H       -5.1195520     0.1037900    -0.0468840
units angstrom
no_reorient  #important for SAPT in psi4, default
symmetry c1  #important for SAPT in psi4, default
}

set PROPERTIES_ORIGIN ["COM"]
properties('MP2/aug-cc-pvtz', properties = ['dipole'])
--------------------------------------------------------------------------

    Molecular point group: c1
  Charge       = 0
  Multiplicity = 1
  Basis Set: AUG-CC-PVTZ
    Blend: AUG-CC-PVTZ
  Basis Set: (AUG-CC-PVTZ AUX)
    Blend: AUG-CC-PVTZ-JKFIT

    Orbital Energies [Eh]
    ---------------------

    Doubly Occupied:

       1A    -92.056487     2A    -20.500490     3A    -11.264783
       4A    -11.258852     5A    -11.236467     6A    -11.235237
       7A    -11.225757     8A    -11.219578     9A    -11.215600
      10A     -9.043973    11A     -6.725617    12A     -6.725402
      13A     -6.724154    14A     -1.317770    15A     -1.108738
      16A     -1.087514    17A     -1.008473    18A     -0.942455
      19A     -0.935260    20A     -0.846457    21A     -0.801565
      22A     -0.770707    23A     -0.665986    24A     -0.649259
      25A     -0.629962    26A     -0.610290    27A     -0.593284
      28A     -0.588258    29A     -0.567165    30A     -0.556147
      31A     -0.543582    32A     -0.532380    33A     -0.514961
      34A     -0.506451    35A     -0.501917    36A     -0.488911
      37A     -0.478695    38A     -0.475178    39A     -0.469827
      40A     -0.405445    41A     -0.356662

  @DF-RHF Final Energy:  -746.88929930070162

   => Energetics <=

    Nuclear Repulsion Energy =            575.0483658682019268
    One-Electron Energy =               -2165.1039353192904855
    Two-Electron Energy =                 843.1662701503869357
    Total Energy =                       -746.8892993007016230
  Basis Set: (AUG-CC-PVTZ AUX)
    Blend: AUG-CC-PVTZ-RI
    Molecular point group: c1

    Geometry (in Angstrom), charge = 0, multiplicity = 1:

       Center              X                  Y                   Z               Mass
    ------------   -----------------  -----------------  -----------------  -----------------
         S           -0.266414600998    -0.539692787278    -0.153902182452    31.972071174400
         O           -0.162022900998    -1.276068487278     1.169873017548    15.994914619570
         C            2.392671399002     0.125024212722     0.173007817548    12.000000000000
         C            1.021100399002     0.743911212722    -0.089637182452    12.000000000000
         C           -1.679372600998     0.599945212722    -0.225068182452    12.000000000000
         C            2.860250399002    -0.743881787278    -0.993179182452    12.000000000000
         C            3.405374399002     1.229503212722     0.470742817548    12.000000000000
         C           -2.982212600998    -0.185653787278    -0.142098182452    12.000000000000
         C           -4.198792600998     0.735479212722    -0.123489182452    12.000000000000
         H            2.289664399002    -0.505476787278     1.065085817548     1.007825032230
         H            0.750150399002     1.427925212722     0.723947817548     1.007825032230
         H            1.006051399002     1.291449212722    -1.041585182452     1.007825032230
         H           -1.591405600998     1.288895212722     0.623669817548     1.007825032230
         H           -1.606906600998     1.169828212722    -1.159756182452     1.007825032230
         H            2.948082399002    -0.144499787278    -1.906725182452     1.007825032230
         H            3.842679399002    -1.175044787278    -0.778492182452     1.007825032230
         H            2.171229399002    -1.569386787278    -1.193128182452     1.007825032230
         H            3.517920399002     1.895051212722    -0.392394182452     1.007825032230
         H            4.387382399002     0.801919212722     0.695716817548     1.007825032230
         H            3.094728399002     1.833556212722     1.328832817548     1.007825032230
         H           -3.048344600998    -0.875247787278    -0.991903182452     1.007825032230
         H           -2.955513600998    -0.798272787278     0.764587817548     1.007825032230
         H           -4.163534600998     1.410832212722     0.736540817548     1.007825032230
         H           -4.246382600998     1.346013212722    -1.030425182452     1.007825032230
         H           -5.124604600998     0.157116212722    -0.058307182452     1.007825032230

  Basis Set: AUG-CC-PVTZ
    Blend: AUG-CC-PVTZ
  Basis Set: (AUG-CC-PVTZ AUX)
    Blend: AUG-CC-PVTZ-JKFIT
	 Reference Energy          =    -746.8892993007016230 [Eh]
	 Singles Energy            =      -0.0000000000000000 [Eh]
	 Same-Spin Energy          =      -0.4273638714375367 [Eh]
	 Opposite-Spin Energy      =      -1.4584160653036906 [Eh]
	 Correlation Energy        =      -1.8857799367412273 [Eh]
	 Total Energy              =    -748.7750792374428102 [Eh]

	 ================> DF-SCS-MP2 Energies <==================
	-----------------------------------------------------------
	 SCS Same-Spin Scale       =       0.3333333333333333 [-]
	 SCS Opposite-Spin Scale   =       1.2000000000000000 [-]
	 SCS Same-Spin Energy      =      -0.1424546238125122 [Eh]
	 SCS Opposite-Spin Energy  =      -1.7500992783644287 [Eh]
	 SCS Correlation Energy    =      -1.8925539021769409 [Eh]
	 SCS Total Energy          =    -748.7818532028785512 [Eh]
	-----------------------------------------------------------

  Dipole Moment: [D]
     X:    -0.3939      Y:     3.0232      Z:    -2.1359     Total:     3.7225

*** Psi4 exiting successfully. Buy a developer a beer!
