                               Psi4 1.4a3.dev225

  ==> Input File <==

--------------------------------------------------------------------------
#psi4
#
memory 32 gb

molecule  {
0 1
  S       -0.2613620    -0.5930190    -0.1424790
  O       -0.2870700    -1.2499240     1.2262220
  C        2.3977240     0.0716980     0.1844310
  C        1.0261530     0.6905850    -0.0782140
  C       -1.6743200     0.5466190    -0.2136450
  C        2.8653030    -0.7972080    -0.9817560
  C        3.4104270     1.1761770     0.4821660
  C       -2.9771600    -0.2389800    -0.1306750
  C       -4.1937400     0.6821530    -0.1120660
  H        2.2947170    -0.5588030     1.0765090
  H        0.7552030     1.3745990     0.7353710
  H        1.0111040     1.2381230    -1.0301620
  H       -1.5863530     1.2355690     0.6350930
  H       -1.6018540     1.1165020    -1.1483330
  H        2.9531350    -0.1978260    -1.8953020
  H        3.8477320    -1.2283710    -0.7670690
  H        2.1132831    -1.6981909    -1.1999868
  H        3.5229730     1.8417250    -0.3809710
  H        4.3924350     0.7485930     0.7071400
  H        3.0997810     1.7802300     1.3402560
  H       -3.0432920    -0.9285740    -0.9804800
  H       -2.9504610    -0.8515990     0.7760110
  H       -4.1584820     1.3575060     0.7479640
  H       -4.2413300     1.2926870    -1.0190020
  H       -5.1195520     0.1037900    -0.0468840
units angstrom
no_reorient  #important for SAPT in psi4, default
symmetry c1  #important for SAPT in psi4, default
}

set PROPERTIES_ORIGIN ["COM"]
properties('MP2/aug-cc-pvtz', properties = ['dipole'])
--------------------------------------------------------------------------

    Molecular point group: c1
  Charge       = 0
  Multiplicity = 1
  Basis Set: AUG-CC-PVTZ
    Blend: AUG-CC-PVTZ
  Basis Set: (AUG-CC-PVTZ AUX)
    Blend: AUG-CC-PVTZ-JKFIT

    Orbital Energies [Eh]
    ---------------------

    Doubly Occupied:

       1A    -92.057231     2A    -20.497221     3A    -11.261406
       4A    -11.260002     5A    -11.238872     6A    -11.233279
       7A    -11.229463     8A    -11.223601     9A    -11.222121
      10A     -9.044692    11A     -6.726281    12A     -6.726094
      13A     -6.724803    14A     -1.316850    15A     -1.109436
      16A     -1.084807    17A     -1.007355    18A     -0.941814
      19A     -0.931499    20A     -0.845270    21A     -0.799876
      22A     -0.772058    23A     -0.664238    24A     -0.648346
      25A     -0.628957    26A     -0.610018    27A     -0.589294
      28A     -0.587426    29A     -0.564972    30A     -0.554018
      31A     -0.544528    32A     -0.533110    33A     -0.510860
      34A     -0.506219    35A     -0.499275    36A     -0.485830
      37A     -0.476316    38A     -0.475275    39A     -0.471987
      40A     -0.403350    41A     -0.358734

  @DF-RHF Final Energy:  -746.88501618643409

   => Energetics <=

    Nuclear Repulsion Energy =            574.9317993523955010
    One-Electron Energy =               -2164.9000655608874695
    Two-Electron Energy =                 843.0832500220578822
    Total Energy =                       -746.8850161864340862
  Basis Set: (AUG-CC-PVTZ AUX)
    Blend: AUG-CC-PVTZ-RI
    Molecular point group: c1

    Geometry (in Angstrom), charge = 0, multiplicity = 1:

       Center              X                  Y                   Z               Mass
    ------------   -----------------  -----------------  -----------------  -----------------
         S           -0.251934259291    -0.547762480717    -0.158630044853    31.972071174400
         O           -0.277642259291    -1.204667480717     1.210070955147    15.994914619570
         C            2.407151740709     0.116954519283     0.168279955147    12.000000000000
         C            1.035580740709     0.735841519283    -0.094365044853    12.000000000000
         C           -1.664892259291     0.591875519283    -0.229796044853    12.000000000000
         C            2.874730740709    -0.751951480717    -0.997907044853    12.000000000000
         C            3.419854740709     1.221433519283     0.466014955147    12.000000000000
         C           -2.967732259291    -0.193723480717    -0.146826044853    12.000000000000
         C           -4.184312259291     0.727409519283    -0.128217044853    12.000000000000
         H            2.304144740709    -0.513546480717     1.060357955147     1.007825032230
         H            0.764630740709     1.419855519283     0.719219955147     1.007825032230
         H            1.020531740709     1.283379519283    -1.046313044853     1.007825032230
         H           -1.576925259291     1.280825519283     0.618941955147     1.007825032230
         H           -1.592426259291     1.161758519283    -1.164484044853     1.007825032230
         H            2.962562740709    -0.152569480717    -1.911453044853     1.007825032230
         H            3.857159740709    -1.183114480717    -0.783220044853     1.007825032230
         H            2.122710840709    -1.652934380717    -1.216137844853     1.007825032230
         H            3.532400740709     1.886981519283    -0.397122044853     1.007825032230
         H            4.401862740709     0.793849519283     0.690988955147     1.007825032230
         H            3.109208740709     1.825486519283     1.324104955147     1.007825032230
         H           -3.033864259291    -0.883317480717    -0.996631044853     1.007825032230
         H           -2.941033259291    -0.806342480717     0.759859955147     1.007825032230
         H           -4.149054259291     1.402762519283     0.731812955147     1.007825032230
         H           -4.231902259291     1.337943519283    -1.035153044853     1.007825032230
         H           -5.110124259291     0.149046519283    -0.063035044853     1.007825032230

  Basis Set: AUG-CC-PVTZ
    Blend: AUG-CC-PVTZ
  Basis Set: (AUG-CC-PVTZ AUX)
    Blend: AUG-CC-PVTZ-JKFIT
	 Reference Energy          =    -746.8850161864340862 [Eh]
	 Singles Energy            =      -0.0000000000000000 [Eh]
	 Same-Spin Energy          =      -0.4273570131751351 [Eh]
	 Opposite-Spin Energy      =      -1.4590606342717229 [Eh]
	 Correlation Energy        =      -1.8864176474468581 [Eh]
	 Total Energy              =    -748.7714338338809057 [Eh]

	 ================> DF-SCS-MP2 Energies <==================
	-----------------------------------------------------------
	 SCS Same-Spin Scale       =       0.3333333333333333 [-]
	 SCS Opposite-Spin Scale   =       1.2000000000000000 [-]
	 SCS Same-Spin Energy      =      -0.1424523377250450 [Eh]
	 SCS Opposite-Spin Energy  =      -1.7508727611260675 [Eh]
	 SCS Correlation Energy    =      -1.8933250988511126 [Eh]
	 SCS Total Energy          =    -748.7783412852852507 [Eh]
	-----------------------------------------------------------

  Dipole Moment: [D]
     X:    -0.0166      Y:     2.9333      Z:    -2.2565     Total:     3.7008

*** Psi4 exiting successfully. Buy a developer a beer!
