                               Psi4 1.4a3.dev225

  ==> Input File <==

--------------------------------------------------------------------------
#psi4
#
memory 32 gb

molecule  {
0 1
  S       -0.2613620    -0.5930190    -0.1424790
  O       -0.2904562    -1.3364502     1.4065044
  C        2.3977240     0.0716980     0.1844310
  C        1.0261530     0.6905850    -0.0782140
  C       -1.6743200     0.5466190    -0.2136450
  C        2.8653030    -0.7972080    -0.9817560
  C        3.4104270     1.1761770     0.4821660
  C       -2.9771600    -0.2389800    -0.1306750
  C       -4.1937400     0.6821530    -0.1120660
  H        2.2947170    -0.5588030     1.0765090
  H        0.7552030     1.3745990     0.7353710
  H        1.0111040     1.2381230    -1.0301620
  H       -1.5863530     1.2355690     0.6350930
  H       -1.6018540     1.1165020    -1.1483330
  H        2.9531350    -0.1978260    -1.8953020
  H        3.8477320    -1.2283710    -0.7670690
  H        2.1762820    -1.6227130    -1.1817050
  H        3.5229730     1.8417250    -0.3809710
  H        4.3924350     0.7485930     0.7071400
  H        3.0997810     1.7802300     1.3402560
  H       -3.0432920    -0.9285740    -0.9804800
  H       -2.9504610    -0.8515990     0.7760110
  H       -4.1584820     1.3575060     0.7479640
  H       -4.2413300     1.2926870    -1.0190020
  H       -5.1195520     0.1037900    -0.0468840
units angstrom
no_reorient  #important for SAPT in psi4, default
symmetry c1  #important for SAPT in psi4, default
}

set PROPERTIES_ORIGIN ["COM"]
properties('MP2/aug-cc-pvtz', properties = ['dipole'])
--------------------------------------------------------------------------

    Molecular point group: c1
  Charge       = 0
  Multiplicity = 1
  Basis Set: AUG-CC-PVTZ
    Blend: AUG-CC-PVTZ
  Basis Set: (AUG-CC-PVTZ AUX)
    Blend: AUG-CC-PVTZ-JKFIT

    Orbital Energies [Eh]
    ---------------------

    Doubly Occupied:

       1A    -92.053673     2A    -20.505442     3A    -11.273039
       4A    -11.271032     5A    -11.240029     6A    -11.235979
       7A    -11.225811     8A    -11.223022     9A    -11.219685
      10A     -9.042697    11A     -6.724113    12A     -6.723501
      13A     -6.722440    14A     -1.230012    15A     -1.113237
      16A     -1.089149    17A     -1.016118    18A     -0.945481
      19A     -0.939227    20A     -0.852832    21A     -0.807321
      22A     -0.778094    23A     -0.667522    24A     -0.649734
      25A     -0.627214    26A     -0.611999    27A     -0.592436
      28A     -0.586858    29A     -0.565763    30A     -0.549606
      31A     -0.541915    32A     -0.522375    33A     -0.513564
      34A     -0.498209    35A     -0.492042    36A     -0.481879
      37A     -0.476568    38A     -0.468412    39A     -0.458030
      40A     -0.401396    41A     -0.372435

  @DF-RHF Final Energy:  -746.85959588863534

   => Energetics <=

    Nuclear Repulsion Energy =            567.6481692300945952
    One-Electron Energy =               -2150.3957483697554380
    Two-Electron Energy =                 835.8879832510256165
    Total Energy =                       -746.8595958886353401
  Basis Set: (AUG-CC-PVTZ AUX)
    Blend: AUG-CC-PVTZ-RI
    Molecular point group: c1

    Geometry (in Angstrom), charge = 0, multiplicity = 1:

       Center              X                  Y                   Z               Mass
    ------------   -----------------  -----------------  -----------------  -----------------
         S           -0.251997259836    -0.538930747612    -0.178226125668    31.972071174400
         O           -0.281091459836    -1.282361947612     1.370757274332    15.994914619570
         C            2.407088740164     0.125786252388     0.148683874332    12.000000000000
         C            1.035517740164     0.744673252388    -0.113961125668    12.000000000000
         C           -1.664955259836     0.600707252388    -0.249392125668    12.000000000000
         C            2.874667740164    -0.743119747612    -1.017503125668    12.000000000000
         C            3.419791740164     1.230265252388     0.446418874332    12.000000000000
         C           -2.967795259836    -0.184891747612    -0.166422125668    12.000000000000
         C           -4.184375259836     0.736241252388    -0.147813125668    12.000000000000
         H            2.304081740164    -0.504714747612     1.040761874332     1.007825032230
         H            0.764567740164     1.428687252388     0.699623874332     1.007825032230
         H            1.020468740164     1.292211252388    -1.065909125668     1.007825032230
         H           -1.576988259836     1.289657252388     0.599345874332     1.007825032230
         H           -1.592489259836     1.170590252388    -1.184080125668     1.007825032230
         H            2.962499740164    -0.143737747612    -1.931049125668     1.007825032230
         H            3.857096740164    -1.174282747612    -0.802816125668     1.007825032230
         H            2.185646740164    -1.568624747612    -1.217452125668     1.007825032230
         H            3.532337740164     1.895813252388    -0.416718125668     1.007825032230
         H            4.401799740164     0.802681252388     0.671392874332     1.007825032230
         H            3.109145740164     1.834318252388     1.304508874332     1.007825032230
         H           -3.033927259836    -0.874485747612    -1.016227125668     1.007825032230
         H           -2.941096259836    -0.797510747612     0.740263874332     1.007825032230
         H           -4.149117259836     1.411594252388     0.712216874332     1.007825032230
         H           -4.231965259836     1.346775252388    -1.054749125668     1.007825032230
         H           -5.110187259836     0.157878252388    -0.082631125668     1.007825032230

  Basis Set: AUG-CC-PVTZ
    Blend: AUG-CC-PVTZ
  Basis Set: (AUG-CC-PVTZ AUX)
    Blend: AUG-CC-PVTZ-JKFIT
	 Reference Energy          =    -746.8595958886353401 [Eh]
	 Singles Energy            =      -0.0000000000000000 [Eh]
	 Same-Spin Energy          =      -0.4275018451530715 [Eh]
	 Opposite-Spin Energy      =      -1.4631036573079355 [Eh]
	 Correlation Energy        =      -1.8906055024610069 [Eh]
	 Total Energy              =    -748.7502013910963115 [Eh]

	 ================> DF-SCS-MP2 Energies <==================
	-----------------------------------------------------------
	 SCS Same-Spin Scale       =       0.3333333333333333 [-]
	 SCS Opposite-Spin Scale   =       1.2000000000000000 [-]
	 SCS Same-Spin Energy      =      -0.1425006150510238 [Eh]
	 SCS Opposite-Spin Energy  =      -1.7557243887695224 [Eh]
	 SCS Correlation Energy    =      -1.8982250038205462 [Eh]
	 SCS Total Energy          =    -748.7578208924559249 [Eh]
	-----------------------------------------------------------

  Dipole Moment: [D]
     X:    -0.0391      Y:     3.5774      Z:    -3.1195     Total:     4.7467

*** Psi4 exiting successfully. Buy a developer a beer!
