                               Psi4 1.4a3.dev225

  ==> Input File <==

--------------------------------------------------------------------------
#psi4
#
memory 32 gb

molecule  {
0 1
  S       -0.2613620    -0.5930190    -0.1424790
  O       -0.2870700    -1.2499240     1.2262220
  C        2.4064581     0.0818451     0.1613774
  C        1.0261530     0.6905850    -0.0782140
  C       -1.6743200     0.5466190    -0.2136450
  C        2.8653030    -0.7972080    -0.9817560
  C        3.4104270     1.1761770     0.4821660
  C       -2.9771600    -0.2389800    -0.1306750
  C       -4.1937400     0.6821530    -0.1120660
  H        2.2947170    -0.5588030     1.0765090
  H        0.7552030     1.3745990     0.7353710
  H        1.0111040     1.2381230    -1.0301620
  H       -1.5863530     1.2355690     0.6350930
  H       -1.6018540     1.1165020    -1.1483330
  H        2.9531350    -0.1978260    -1.8953020
  H        3.8477320    -1.2283710    -0.7670690
  H        2.1762820    -1.6227130    -1.1817050
  H        3.5229730     1.8417250    -0.3809710
  H        4.3924350     0.7485930     0.7071400
  H        3.0997810     1.7802300     1.3402560
  H       -3.0432920    -0.9285740    -0.9804800
  H       -2.9504610    -0.8515990     0.7760110
  H       -4.1584820     1.3575060     0.7479640
  H       -4.2413300     1.2926870    -1.0190020
  H       -5.1195520     0.1037900    -0.0468840
units angstrom
no_reorient  #important for SAPT in psi4, default
symmetry c1  #important for SAPT in psi4, default
}

set PROPERTIES_ORIGIN ["COM"]
properties('MP2/aug-cc-pvtz', properties = ['dipole'])
--------------------------------------------------------------------------

    Molecular point group: c1
  Charge       = 0
  Multiplicity = 1
  Basis Set: AUG-CC-PVTZ
    Blend: AUG-CC-PVTZ
  Basis Set: (AUG-CC-PVTZ AUX)
    Blend: AUG-CC-PVTZ-JKFIT

    Orbital Energies [Eh]
    ---------------------

    Doubly Occupied:

       1A    -92.057836     2A    -20.497412     3A    -11.261885
       4A    -11.259870     5A    -11.238593     6A    -11.233580
       7A    -11.223824     8A    -11.220940     9A    -11.217605
      10A     -9.045260    11A     -6.726856    12A     -6.726678
      13A     -6.725388    14A     -1.317046    15A     -1.110898
      16A     -1.085535    17A     -1.008398    18A     -0.942426
      19A     -0.939354    20A     -0.845555    21A     -0.800031
      22A     -0.769413    23A     -0.664866    24A     -0.650141
      25A     -0.630074    26A     -0.611776    27A     -0.593966
      28A     -0.587914    29A     -0.566928    30A     -0.554086
      31A     -0.545072    32A     -0.533771    33A     -0.514272
      34A     -0.506959    35A     -0.499520    36A     -0.486612
      37A     -0.484491    38A     -0.475647    39A     -0.464513
      40A     -0.403763    41A     -0.359420

  @DF-RHF Final Energy:  -746.89051245164160

   => Energetics <=

    Nuclear Repulsion Energy =            575.3175122901269560
    One-Electron Energy =               -2165.6396947970024485
    Two-Electron Energy =                 843.4316700552337807
    Total Energy =                       -746.8905124516415981
  Basis Set: (AUG-CC-PVTZ AUX)
    Blend: AUG-CC-PVTZ-RI
    Molecular point group: c1

    Geometry (in Angstrom), charge = 0, multiplicity = 1:

       Center              X                  Y                   Z               Mass
    ------------   -----------------  -----------------  -----------------  -----------------
         S           -0.253070720792    -0.549098362926    -0.156886412385    31.972071174400
         O           -0.278778720792    -1.206003362926     1.211814587615    15.994914619570
         C            2.414749379208     0.125765737074     0.146969987615    12.000000000000
         C            1.034444279208     0.734505637074    -0.092621412385    12.000000000000
         C           -1.666028720792     0.590539637074    -0.228052412385    12.000000000000
         C            2.873594279208    -0.753287362926    -0.996163412385    12.000000000000
         C            3.418718279208     1.220097637074     0.467758587615    12.000000000000
         C           -2.968868720792    -0.195059362926    -0.145082412385    12.000000000000
         C           -4.185448720792     0.726073637074    -0.126473412385    12.000000000000
         H            2.303008279208    -0.514882362926     1.062101587615     1.007825032230
         H            0.763494279208     1.418519637074     0.720963587615     1.007825032230
         H            1.019395279208     1.282043637074    -1.044569412385     1.007825032230
         H           -1.578061720792     1.279489637074     0.620685587615     1.007825032230
         H           -1.593562720792     1.160422637074    -1.162740412385     1.007825032230
         H            2.961426279208    -0.153905362926    -1.909709412385     1.007825032230
         H            3.856023279208    -1.184450362926    -0.781476412385     1.007825032230
         H            2.184573279208    -1.578792362926    -1.196112412385     1.007825032230
         H            3.531264279208     1.885645637074    -0.395378412385     1.007825032230
         H            4.400726279208     0.792513637074     0.692732587615     1.007825032230
         H            3.108072279208     1.824150637074     1.325848587615     1.007825032230
         H           -3.035000720792    -0.884653362926    -0.994887412385     1.007825032230
         H           -2.942169720792    -0.807678362926     0.761603587615     1.007825032230
         H           -4.150190720792     1.401426637074     0.733556587615     1.007825032230
         H           -4.233038720792     1.336607637074    -1.033409412385     1.007825032230
         H           -5.111260720792     0.147710637074    -0.061291412385     1.007825032230

  Basis Set: AUG-CC-PVTZ
    Blend: AUG-CC-PVTZ
  Basis Set: (AUG-CC-PVTZ AUX)
    Blend: AUG-CC-PVTZ-JKFIT
	 Reference Energy          =    -746.8905124516415981 [Eh]
	 Singles Energy            =      -0.0000000000000000 [Eh]
	 Same-Spin Energy          =      -0.4274432695122194 [Eh]
	 Opposite-Spin Energy      =      -1.4584568385161356 [Eh]
	 Correlation Energy        =      -1.8859001080283551 [Eh]
	 Total Energy              =    -748.7764125596700069 [Eh]

	 ================> DF-SCS-MP2 Energies <==================
	-----------------------------------------------------------
	 SCS Same-Spin Scale       =       0.3333333333333333 [-]
	 SCS Opposite-Spin Scale   =       1.2000000000000000 [-]
	 SCS Same-Spin Energy      =      -0.1424810898374065 [Eh]
	 SCS Opposite-Spin Energy  =      -1.7501482062193627 [Eh]
	 SCS Correlation Energy    =      -1.8926292960567692 [Eh]
	 SCS Total Energy          =    -748.7831417476983233 [Eh]
	-----------------------------------------------------------

  Dipole Moment: [D]
     X:    -0.0574      Y:     2.8823      Z:    -2.2812     Total:     3.6763

*** Psi4 exiting successfully. Buy a developer a beer!
