                               Psi4 1.4a3.dev225

  ==> Input File <==

--------------------------------------------------------------------------
#psi4
#
memory 32 gb

molecule  {
0 1
  S       -0.2064447    -0.4993197     0.0136082
  O       -0.2870700    -1.2499240     1.2262220
  C        2.3977240     0.0716980     0.1844310
  C        1.0261530     0.6905850    -0.0782140
  C       -1.6743200     0.5466190    -0.2136450
  C        2.8653030    -0.7972080    -0.9817560
  C        3.4104270     1.1761770     0.4821660
  C       -2.9771600    -0.2389800    -0.1306750
  C       -4.1937400     0.6821530    -0.1120660
  H        2.2947170    -0.5588030     1.0765090
  H        0.7552030     1.3745990     0.7353710
  H        1.0111040     1.2381230    -1.0301620
  H       -1.5863530     1.2355690     0.6350930
  H       -1.6018540     1.1165020    -1.1483330
  H        2.9531350    -0.1978260    -1.8953020
  H        3.8477320    -1.2283710    -0.7670690
  H        2.1762820    -1.6227130    -1.1817050
  H        3.5229730     1.8417250    -0.3809710
  H        4.3924350     0.7485930     0.7071400
  H        3.0997810     1.7802300     1.3402560
  H       -3.0432920    -0.9285740    -0.9804800
  H       -2.9504610    -0.8515990     0.7760110
  H       -4.1584820     1.3575060     0.7479640
  H       -4.2413300     1.2926870    -1.0190020
  H       -5.1195520     0.1037900    -0.0468840
units angstrom
no_reorient  #important for SAPT in psi4, default
symmetry c1  #important for SAPT in psi4, default
}

set PROPERTIES_ORIGIN ["COM"]
properties('MP2/aug-cc-pvtz', properties = ['dipole'])
--------------------------------------------------------------------------

    Molecular point group: c1
  Charge       = 0
  Multiplicity = 1
  Basis Set: AUG-CC-PVTZ
    Blend: AUG-CC-PVTZ
  Basis Set: (AUG-CC-PVTZ AUX)
    Blend: AUG-CC-PVTZ-JKFIT

    Orbital Energies [Eh]
    ---------------------

    Doubly Occupied:

       1A    -92.041924     2A    -20.504386     3A    -11.257794
       4A    -11.254193     5A    -11.241209     6A    -11.232804
       7A    -11.222964     8A    -11.222152     9A    -11.217268
      10A     -9.032717    11A     -6.715063    12A     -6.714544
      13A     -6.713263    14A     -1.373366    15A     -1.120837
      16A     -1.082992    17A     -1.018096    18A     -0.945625
      19A     -0.937470    20A     -0.842058    21A     -0.796222
      22A     -0.771119    23A     -0.671149    24A     -0.659627
      25A     -0.632539    26A     -0.616604    27A     -0.600391
      28A     -0.591557    29A     -0.572451    30A     -0.562366
      31A     -0.545987    32A     -0.535435    33A     -0.526175
      34A     -0.515898    35A     -0.499031    36A     -0.486621
      37A     -0.484250    38A     -0.480280    39A     -0.476837
      40A     -0.421311    41A     -0.329124

  @DF-RHF Final Energy:  -746.87331996927867

   => Energetics <=

    Nuclear Repulsion Energy =            580.7637483865601098
    One-Electron Energy =               -2176.3427344424785588
    Two-Electron Energy =                 848.7056660866397806
    Total Energy =                       -746.8733199692786684
  Basis Set: (AUG-CC-PVTZ AUX)
    Blend: AUG-CC-PVTZ-RI
    Molecular point group: c1

    Geometry (in Angstrom), charge = 0, multiplicity = 1:

       Center              X                  Y                   Z               Mass
    ------------   -----------------  -----------------  -----------------  -----------------
         S           -0.209301953780    -0.474805863246    -0.036365398549    31.972071174400
         O           -0.289927253780    -1.225410163246     1.176248401451    15.994914619570
         C            2.394866746220     0.096211836754     0.134457401451    12.000000000000
         C            1.023295746220     0.715098836754    -0.128187598549    12.000000000000
         C           -1.677177253780     0.571132836754    -0.263618598549    12.000000000000
         C            2.862445746220    -0.772694163246    -1.031729598549    12.000000000000
         C            3.407569746220     1.200690836754     0.432192401451    12.000000000000
         C           -2.980017253780    -0.214466163246    -0.180648598549    12.000000000000
         C           -4.196597253780     0.706666836754    -0.162039598549    12.000000000000
         H            2.291859746220    -0.534289163246     1.026535401451     1.007825032230
         H            0.752345746220     1.399112836754     0.685397401451     1.007825032230
         H            1.008246746220     1.262636836754    -1.080135598549     1.007825032230
         H           -1.589210253780     1.260082836754     0.585119401451     1.007825032230
         H           -1.604711253780     1.141015836754    -1.198306598549     1.007825032230
         H            2.950277746220    -0.173312163246    -1.945275598549     1.007825032230
         H            3.844874746220    -1.203857163246    -0.817042598549     1.007825032230
         H            2.173424746220    -1.598199163246    -1.231678598549     1.007825032230
         H            3.520115746220     1.866238836754    -0.430944598549     1.007825032230
         H            4.389577746220     0.773106836754     0.657166401451     1.007825032230
         H            3.096923746220     1.804743836754     1.290282401451     1.007825032230
         H           -3.046149253780    -0.904060163246    -1.030453598549     1.007825032230
         H           -2.953318253780    -0.827085163246     0.726037401451     1.007825032230
         H           -4.161339253780     1.382019836754     0.697990401451     1.007825032230
         H           -4.244187253780     1.317200836754    -1.068975598549     1.007825032230
         H           -5.122409253780     0.128303836754    -0.096857598549     1.007825032230

  Basis Set: AUG-CC-PVTZ
    Blend: AUG-CC-PVTZ
  Basis Set: (AUG-CC-PVTZ AUX)
    Blend: AUG-CC-PVTZ-JKFIT
	 Reference Energy          =    -746.8733199692786684 [Eh]
	 Singles Energy            =      -0.0000000000000000 [Eh]
	 Same-Spin Energy          =      -0.4267841762742234 [Eh]
	 Opposite-Spin Energy      =      -1.4542581978985767 [Eh]
	 Correlation Energy        =      -1.8810423741728002 [Eh]
	 Total Energy              =    -748.7543623434514757 [Eh]

	 ================> DF-SCS-MP2 Energies <==================
	-----------------------------------------------------------
	 SCS Same-Spin Scale       =       0.3333333333333333 [-]
	 SCS Opposite-Spin Scale   =       1.2000000000000000 [-]
	 SCS Same-Spin Energy      =      -0.1422613920914078 [Eh]
	 SCS Opposite-Spin Energy  =      -1.7451098374782921 [Eh]
	 SCS Correlation Energy    =      -1.8873712295696998 [Eh]
	 SCS Total Energy          =    -748.7606911988483489 [Eh]
	-----------------------------------------------------------

  Dipole Moment: [D]
     X:     0.1617      Y:     2.8772      Z:    -1.8751     Total:     3.4381

*** Psi4 exiting successfully. Buy a developer a beer!
