                               Psi4 1.4a3.dev225

  ==> Input File <==

--------------------------------------------------------------------------
#psi4
#
memory 32 gb

molecule  {
0 1
  S       -0.2613620    -0.5930190    -0.1424790
  O       -0.2870700    -1.2499240     1.2262220
  C        2.3977240     0.0716980     0.1844310
  C        0.8850969     0.8183028    -0.0853220
  C       -1.6743200     0.5466190    -0.2136450
  C        2.8653030    -0.7972080    -0.9817560
  C        3.4104270     1.1761770     0.4821660
  C       -2.9771600    -0.2389800    -0.1306750
  C       -4.1937400     0.6821530    -0.1120660
  H        2.2947170    -0.5588030     1.0765090
  H        0.7552030     1.3745990     0.7353710
  H        1.0111040     1.2381230    -1.0301620
  H       -1.5863530     1.2355690     0.6350930
  H       -1.6018540     1.1165020    -1.1483330
  H        2.9531350    -0.1978260    -1.8953020
  H        3.8477320    -1.2283710    -0.7670690
  H        2.1762820    -1.6227130    -1.1817050
  H        3.5229730     1.8417250    -0.3809710
  H        4.3924350     0.7485930     0.7071400
  H        3.0997810     1.7802300     1.3402560
  H       -3.0432920    -0.9285740    -0.9804800
  H       -2.9504610    -0.8515990     0.7760110
  H       -4.1584820     1.3575060     0.7479640
  H       -4.2413300     1.2926870    -1.0190020
  H       -5.1195520     0.1037900    -0.0468840
units angstrom
no_reorient  #important for SAPT in psi4, default
symmetry c1  #important for SAPT in psi4, default
}

set PROPERTIES_ORIGIN ["COM"]
properties('MP2/aug-cc-pvtz', properties = ['dipole'])
--------------------------------------------------------------------------

    Molecular point group: c1
  Charge       = 0
  Multiplicity = 1
  Basis Set: AUG-CC-PVTZ
    Blend: AUG-CC-PVTZ
  Basis Set: (AUG-CC-PVTZ AUX)
    Blend: AUG-CC-PVTZ-JKFIT

    Orbital Energies [Eh]
    ---------------------

    Doubly Occupied:

       1A    -92.060201     2A    -20.501327     3A    -11.258329
       4A    -11.252072     5A    -11.245890     6A    -11.230323
       7A    -11.221806     8A    -11.219636     9A    -11.218605
      10A     -9.047159    11A     -6.728780    12A     -6.728370
      13A     -6.727259    14A     -1.319273    15A     -1.098587
      16A     -1.077471    17A     -1.012230    18A     -0.940992
      19A     -0.935020    20A     -0.841342    21A     -0.798456
      22A     -0.775017    23A     -0.674423    24A     -0.648212
      25A     -0.627190    26A     -0.610166    27A     -0.595992
      28A     -0.587217    29A     -0.565978    30A     -0.558809
      31A     -0.549759    32A     -0.537412    33A     -0.510977
      34A     -0.509945    35A     -0.497138    36A     -0.484388
      37A     -0.482951    38A     -0.474785    39A     -0.442085
      40A     -0.394158    41A     -0.367420

  @DF-RHF Final Energy:  -746.86267865252569

   => Energetics <=

    Nuclear Repulsion Energy =            573.8630577551517717
    One-Electron Energy =               -2162.7371745602213196
    Two-Electron Energy =                 842.0114381525439740
    Total Energy =                       -746.8626786525256875
  Basis Set: (AUG-CC-PVTZ AUX)
    Blend: AUG-CC-PVTZ-RI
    Molecular point group: c1

    Geometry (in Angstrom), charge = 0, multiplicity = 1:

       Center              X                  Y                   Z               Mass
    ------------   -----------------  -----------------  -----------------  -----------------
         S           -0.240933129709    -0.558625188312    -0.158178494059    31.972071174400
         O           -0.266641129709    -1.215530188312     1.210522505941    15.994914619570
         C            2.418152870291     0.106091811688     0.168731505941    12.000000000000
         C            0.905525770291     0.852696611688    -0.101021494059    12.000000000000
         C           -1.653891129709     0.581012811688    -0.229344494059    12.000000000000
         C            2.885731870291    -0.762814188312    -0.997455494059    12.000000000000
         C            3.430855870291     1.210570811688     0.466466505941    12.000000000000
         C           -2.956731129709    -0.204586188312    -0.146374494059    12.000000000000
         C           -4.173311129709     0.716546811688    -0.127765494059    12.000000000000
         H            2.315145870291    -0.524409188312     1.060809505941     1.007825032230
         H            0.775631870291     1.408992811688     0.719671505941     1.007825032230
         H            1.031532870291     1.272516811688    -1.045861494059     1.007825032230
         H           -1.565924129709     1.269962811688     0.619393505941     1.007825032230
         H           -1.581425129709     1.150895811688    -1.164032494059     1.007825032230
         H            2.973563870291    -0.163432188312    -1.911001494059     1.007825032230
         H            3.868160870291    -1.193977188312    -0.782768494059     1.007825032230
         H            2.196710870291    -1.588319188312    -1.197404494059     1.007825032230
         H            3.543401870291     1.876118811688    -0.396670494059     1.007825032230
         H            4.412863870291     0.782986811688     0.691440505941     1.007825032230
         H            3.120209870291     1.814623811688     1.324556505941     1.007825032230
         H           -3.022863129709    -0.894180188312    -0.996179494059     1.007825032230
         H           -2.930032129709    -0.817205188312     0.760311505941     1.007825032230
         H           -4.138053129709     1.391899811688     0.732264505941     1.007825032230
         H           -4.220901129709     1.327080811688    -1.034701494059     1.007825032230
         H           -5.099123129709     0.138183811688    -0.062583494059     1.007825032230

  Basis Set: AUG-CC-PVTZ
    Blend: AUG-CC-PVTZ
  Basis Set: (AUG-CC-PVTZ AUX)
    Blend: AUG-CC-PVTZ-JKFIT
	 Reference Energy          =    -746.8626786525256875 [Eh]
	 Singles Energy            =      -0.0000000000000000 [Eh]
	 Same-Spin Energy          =      -0.4276900291233093 [Eh]
	 Opposite-Spin Energy      =      -1.4605188837114089 [Eh]
	 Correlation Energy        =      -1.8882089128347181 [Eh]
	 Total Energy              =    -748.7508875653603582 [Eh]

	 ================> DF-SCS-MP2 Energies <==================
	-----------------------------------------------------------
	 SCS Same-Spin Scale       =       0.3333333333333333 [-]
	 SCS Opposite-Spin Scale   =       1.2000000000000000 [-]
	 SCS Same-Spin Energy      =      -0.1425633430411031 [Eh]
	 SCS Opposite-Spin Energy  =      -1.7526226604536908 [Eh]
	 SCS Correlation Energy    =      -1.8951860034947938 [Eh]
	 SCS Total Energy          =    -748.7578646560205016 [Eh]
	-----------------------------------------------------------

  Dipole Moment: [D]
     X:     0.0197      Y:     2.7609      Z:    -2.2618     Total:     3.5691

*** Psi4 exiting successfully. Buy a developer a beer!
