                               Psi4 1.4a3.dev225

  ==> Input File <==

--------------------------------------------------------------------------
#psi4
#
memory 32 gb

molecule  {
0 1
  S       -0.2613620    -0.5930190    -0.1424790
  O       -0.2870700    -1.2499240     1.2262220
  C        2.3977240     0.0716980     0.1844310
  C        1.0261530     0.6905850    -0.0782140
  C       -1.6743200     0.5466190    -0.2136450
  C        2.8653030    -0.7972080    -0.9817560
  C        3.4104270     1.1761770     0.4821660
  C       -2.9907329    -0.2197052    -0.1783466
  C       -4.1937400     0.6821530    -0.1120660
  H        2.2947170    -0.5588030     1.0765090
  H        0.7552030     1.3745990     0.7353710
  H        1.0111040     1.2381230    -1.0301620
  H       -1.5863530     1.2355690     0.6350930
  H       -1.6018540     1.1165020    -1.1483330
  H        2.9531350    -0.1978260    -1.8953020
  H        3.8477320    -1.2283710    -0.7670690
  H        2.1762820    -1.6227130    -1.1817050
  H        3.5229730     1.8417250    -0.3809710
  H        4.3924350     0.7485930     0.7071400
  H        3.0997810     1.7802300     1.3402560
  H       -3.0432920    -0.9285740    -0.9804800
  H       -2.9504610    -0.8515990     0.7760110
  H       -4.1584820     1.3575060     0.7479640
  H       -4.2413300     1.2926870    -1.0190020
  H       -5.1195520     0.1037900    -0.0468840
units angstrom
no_reorient  #important for SAPT in psi4, default
symmetry c1  #important for SAPT in psi4, default
}

set PROPERTIES_ORIGIN ["COM"]
properties('MP2/aug-cc-pvtz', properties = ['dipole'])
--------------------------------------------------------------------------

    Molecular point group: c1
  Charge       = 0
  Multiplicity = 1
  Basis Set: AUG-CC-PVTZ
    Blend: AUG-CC-PVTZ
  Basis Set: (AUG-CC-PVTZ AUX)
    Blend: AUG-CC-PVTZ-JKFIT

    Orbital Energies [Eh]
    ---------------------

    Doubly Occupied:

       1A    -92.058116     2A    -20.497391     3A    -11.261771
       4A    -11.260166     5A    -11.237962     6A    -11.234384
       7A    -11.223100     8A    -11.221209     9A    -11.217933
      10A     -9.045510    11A     -6.727105    12A     -6.726936
      13A     -6.725645    14A     -1.317028    15A     -1.109916
      16A     -1.086435    17A     -1.009325    18A     -0.943172
      19A     -0.937365    20A     -0.845027    21A     -0.799218
      22A     -0.773106    23A     -0.663312    24A     -0.649338
      25A     -0.631242    26A     -0.610694    27A     -0.593193
      28A     -0.589921    29A     -0.565322    30A     -0.555675
      31A     -0.545513    32A     -0.534529    33A     -0.517351
      34A     -0.507405    35A     -0.503022    36A     -0.480665
      37A     -0.476361    38A     -0.473726    39A     -0.470616
      40A     -0.404173    41A     -0.359421

  @DF-RHF Final Energy:  -746.88838214953330

   => Energetics <=

    Nuclear Repulsion Energy =            575.1868124795897756
    One-Electron Energy =               -2165.3717924559164203
    Two-Electron Energy =                 843.2965978267934588
    Total Energy =                       -746.8883821495332995
  Basis Set: (AUG-CC-PVTZ AUX)
    Blend: AUG-CC-PVTZ-RI
    Molecular point group: c1

    Geometry (in Angstrom), charge = 0, multiplicity = 1:

       Center              X                  Y                   Z               Mass
    ------------   -----------------  -----------------  -----------------  -----------------
         S           -0.251263171004    -0.549837986013    -0.154891600860    31.972071174400
         O           -0.276971171004    -1.206742986013     1.213809399140    15.994914619570
         C            2.407822828996     0.114879013987     0.172018399140    12.000000000000
         C            1.036251828996     0.733766013987    -0.090626600860    12.000000000000
         C           -1.664221171004     0.589800013987    -0.226057600860    12.000000000000
         C            2.875401828996    -0.754026986013    -0.994168600860    12.000000000000
         C            3.420525828996     1.219358013987     0.469753399140    12.000000000000
         C           -2.980634071004    -0.176524186013    -0.190759200860    12.000000000000
         C           -4.183641171004     0.725334013987    -0.124478600860    12.000000000000
         H            2.304815828996    -0.515621986013     1.064096399140     1.007825032230
         H            0.765301828996     1.417780013987     0.722958399140     1.007825032230
         H            1.021202828996     1.281304013987    -1.042574600860     1.007825032230
         H           -1.576254171004     1.278750013987     0.622680399140     1.007825032230
         H           -1.591755171004     1.159683013987    -1.160745600860     1.007825032230
         H            2.963233828996    -0.154644986013    -1.907714600860     1.007825032230
         H            3.857830828996    -1.185189986013    -0.779481600860     1.007825032230
         H            2.186380828996    -1.579531986013    -1.194117600860     1.007825032230
         H            3.533071828996     1.884906013987    -0.393383600860     1.007825032230
         H            4.402533828996     0.791774013987     0.694727399140     1.007825032230
         H            3.109879828996     1.823411013987     1.327843399140     1.007825032230
         H           -3.033193171004    -0.885392986013    -0.992892600860     1.007825032230
         H           -2.940362171004    -0.808417986013     0.763598399140     1.007825032230
         H           -4.148383171004     1.400687013987     0.735551399140     1.007825032230
         H           -4.231231171004     1.335868013987    -1.031414600860     1.007825032230
         H           -5.109453171004     0.146971013987    -0.059296600860     1.007825032230

  Basis Set: AUG-CC-PVTZ
    Blend: AUG-CC-PVTZ
  Basis Set: (AUG-CC-PVTZ AUX)
    Blend: AUG-CC-PVTZ-JKFIT
	 Reference Energy          =    -746.8883821495332995 [Eh]
	 Singles Energy            =      -0.0000000000000000 [Eh]
	 Same-Spin Energy          =      -0.4274468588713884 [Eh]
	 Opposite-Spin Energy      =      -1.4585235409663713 [Eh]
	 Correlation Energy        =      -1.8859703998377597 [Eh]
	 Total Energy              =    -748.7743525493710877 [Eh]

	 ================> DF-SCS-MP2 Energies <==================
	-----------------------------------------------------------
	 SCS Same-Spin Scale       =       0.3333333333333333 [-]
	 SCS Opposite-Spin Scale   =       1.2000000000000000 [-]
	 SCS Same-Spin Energy      =      -0.1424822862904628 [Eh]
	 SCS Opposite-Spin Energy  =      -1.7502282491596455 [Eh]
	 SCS Correlation Energy    =      -1.8927105354501084 [Eh]
	 SCS Total Energy          =    -748.7810926849833777 [Eh]
	-----------------------------------------------------------

  Dipole Moment: [D]
     X:    -0.0387      Y:     2.8869      Z:    -2.2917     Total:     3.6861

*** Psi4 exiting successfully. Buy a developer a beer!
