                               Psi4 1.4a3.dev225

  ==> Input File <==

--------------------------------------------------------------------------
#psi4
#
memory 32 gb

molecule  {
0 1
  S       -0.2613620    -0.5930190    -0.1424790
  O       -0.2870700    -1.2499240     1.2262220
  C        2.3977240     0.0716980     0.1844310
  C        1.0261530     0.6905850    -0.0782140
  C       -1.6743200     0.5466190    -0.2136450
  C        2.8653030    -0.7972080    -0.9817560
  C        3.4104270     1.1761770     0.4821660
  C       -2.9771600    -0.2389800    -0.1306750
  C       -4.1937400     0.6821530    -0.1120660
  H        2.2928394    -0.5702954     1.0927693
  H        0.7552030     1.3745990     0.7353710
  H        1.0111040     1.2381230    -1.0301620
  H       -1.5863530     1.2355690     0.6350930
  H       -1.6018540     1.1165020    -1.1483330
  H        2.9531350    -0.1978260    -1.8953020
  H        3.8477320    -1.2283710    -0.7670690
  H        2.1762820    -1.6227130    -1.1817050
  H        3.5229730     1.8417250    -0.3809710
  H        4.3924350     0.7485930     0.7071400
  H        3.0997810     1.7802300     1.3402560
  H       -3.0432920    -0.9285740    -0.9804800
  H       -2.9504610    -0.8515990     0.7760110
  H       -4.1584820     1.3575060     0.7479640
  H       -4.2413300     1.2926870    -1.0190020
  H       -5.1195520     0.1037900    -0.0468840
units angstrom
no_reorient  #important for SAPT in psi4, default
symmetry c1  #important for SAPT in psi4, default
}

set PROPERTIES_ORIGIN ["COM"]
properties('MP2/aug-cc-pvtz', properties = ['dipole'])
--------------------------------------------------------------------------

    Molecular point group: c1
  Charge       = 0
  Multiplicity = 1
  Basis Set: AUG-CC-PVTZ
    Blend: AUG-CC-PVTZ
  Basis Set: (AUG-CC-PVTZ AUX)
    Blend: AUG-CC-PVTZ-JKFIT

    Orbital Energies [Eh]
    ---------------------

    Doubly Occupied:

       1A    -92.057597     2A    -20.497417     3A    -11.261746
       4A    -11.259970     5A    -11.240007     6A    -11.233478
       7A    -11.223753     8A    -11.221173     9A    -11.217934
      10A     -9.045053    11A     -6.726651    12A     -6.726462
      13A     -6.725176    14A     -1.317073    15A     -1.109157
      16A     -1.084922    17A     -1.007598    18A     -0.941979
      19A     -0.937302    20A     -0.845485    21A     -0.800007
      22A     -0.770670    23A     -0.664309    24A     -0.648978
      25A     -0.629679    26A     -0.611115    27A     -0.592933
      28A     -0.587815    29A     -0.566436    30A     -0.554240
      31A     -0.545214    32A     -0.533240    33A     -0.514071
      34A     -0.506418    35A     -0.499417    36A     -0.486107
      37A     -0.480098    38A     -0.475399    39A     -0.470225
      40A     -0.403459    41A     -0.359348

  @DF-RHF Final Energy:  -746.89107690717253

   => Energetics <=

    Nuclear Repulsion Energy =            575.1785891320074597
    One-Electron Energy =               -2165.3811162822203187
    Two-Electron Energy =                 843.3114502430404400
    Total Energy =                       -746.8910769071725326
  Basis Set: (AUG-CC-PVTZ AUX)
    Blend: AUG-CC-PVTZ-RI
    Molecular point group: c1

    Geometry (in Angstrom), charge = 0, multiplicity = 1:

       Center              X                  Y                   Z               Mass
    ------------   -----------------  -----------------  -----------------  -----------------
         S           -0.252350213553    -0.548197926977    -0.158865117303    31.972071174400
         O           -0.278058213553    -1.205102926977     1.209835882697    15.994914619570
         C            2.406735786447     0.116519073023     0.168044882697    12.000000000000
         C            1.035164786447     0.735406073023    -0.094600117303    12.000000000000
         C           -1.665308213553     0.591440073023    -0.230031117303    12.000000000000
         C            2.874314786447    -0.752386926977    -0.998142117303    12.000000000000
         C            3.419438786447     1.220998073023     0.465779882697    12.000000000000
         C           -2.968148213553    -0.194158926977    -0.147061117303    12.000000000000
         C           -4.184728213553     0.726974073023    -0.128452117303    12.000000000000
         H            2.301851186447    -0.525474326977     1.076383182697     1.007825032230
         H            0.764214786447     1.419420073023     0.718984882697     1.007825032230
         H            1.020115786447     1.282944073023    -1.046548117303     1.007825032230
         H           -1.577341213553     1.280390073023     0.618706882697     1.007825032230
         H           -1.592842213553     1.161323073023    -1.164719117303     1.007825032230
         H            2.962146786447    -0.153004926977    -1.911688117303     1.007825032230
         H            3.856743786447    -1.183549926977    -0.783455117303     1.007825032230
         H            2.185293786447    -1.577891926977    -1.198091117303     1.007825032230
         H            3.531984786447     1.886546073023    -0.397357117303     1.007825032230
         H            4.401446786447     0.793414073023     0.690753882697     1.007825032230
         H            3.108792786447     1.825051073023     1.323869882697     1.007825032230
         H           -3.034280213553    -0.883752926977    -0.996866117303     1.007825032230
         H           -2.941449213553    -0.806777926977     0.759624882697     1.007825032230
         H           -4.149470213553     1.402327073023     0.731577882697     1.007825032230
         H           -4.232318213553     1.337508073023    -1.035388117303     1.007825032230
         H           -5.110540213553     0.148611073023    -0.063270117303     1.007825032230

  Basis Set: AUG-CC-PVTZ
    Blend: AUG-CC-PVTZ
  Basis Set: (AUG-CC-PVTZ AUX)
    Blend: AUG-CC-PVTZ-JKFIT
	 Reference Energy          =    -746.8910769071725326 [Eh]
	 Singles Energy            =      -0.0000000000000000 [Eh]
	 Same-Spin Energy          =      -0.4273026530501792 [Eh]
	 Opposite-Spin Energy      =      -1.4584086168521182 [Eh]
	 Correlation Energy        =      -1.8857112699022975 [Eh]
	 Total Energy              =    -748.7767881770748772 [Eh]

	 ================> DF-SCS-MP2 Energies <==================
	-----------------------------------------------------------
	 SCS Same-Spin Scale       =       0.3333333333333333 [-]
	 SCS Opposite-Spin Scale   =       1.2000000000000000 [-]
	 SCS Same-Spin Energy      =      -0.1424342176833931 [Eh]
	 SCS Opposite-Spin Energy  =      -1.7500903402225418 [Eh]
	 SCS Correlation Energy    =      -1.8925245579059349 [Eh]
	 SCS Total Energy          =    -748.7836014650785046 [Eh]
	-----------------------------------------------------------

  Dipole Moment: [D]
     X:    -0.0546      Y:     2.8888      Z:    -2.2829     Total:     3.6824

*** Psi4 exiting successfully. Buy a developer a beer!
