                               Psi4 1.4a3.dev225

  ==> Input File <==

--------------------------------------------------------------------------
#psi4
#
memory 32 gb

molecule  {
0 1
  S       -0.2613620    -0.5930190    -0.1424790
  O       -0.2870700    -1.2499240     1.2262220
  C        2.3977240     0.0716980     0.1844310
  C        1.0261530     0.6905850    -0.0782140
  C       -1.6743200     0.5466190    -0.2136450
  C        2.8653030    -0.7972080    -0.9817560
  C        3.4104270     1.1761770     0.4821660
  C       -2.9771600    -0.2389800    -0.1306750
  C       -4.1937400     0.6821530    -0.1120660
  H        2.2947170    -0.5588030     1.0765090
  H        0.7552030     1.3745990     0.7353710
  H        1.0111040     1.2381230    -1.0301620
  H       -1.5863530     1.2355690     0.6350930
  H       -1.6018540     1.1165020    -1.1483330
  H        2.9531350    -0.1978260    -1.8953020
  H        3.8477320    -1.2283710    -0.7670690
  H        2.1762820    -1.6227130    -1.1817050
  H        3.5229730     1.8417250    -0.3809710
  H        4.3924350     0.7485930     0.7071400
  H        3.0997810     1.7802300     1.3402560
  H       -3.0432920    -0.9285740    -0.9804800
  H       -2.9504610    -0.8515990     0.7760110
  H       -4.1584820     1.3575060     0.7479640
  H       -4.2456788     1.3484779    -1.1018782
  H       -5.1195520     0.1037900    -0.0468840
units angstrom
no_reorient  #important for SAPT in psi4, default
symmetry c1  #important for SAPT in psi4, default
}

set PROPERTIES_ORIGIN ["COM"]
properties('MP2/aug-cc-pvtz', properties = ['dipole'])
--------------------------------------------------------------------------

    Molecular point group: c1
  Charge       = 0
  Multiplicity = 1
  Basis Set: AUG-CC-PVTZ
    Blend: AUG-CC-PVTZ
  Basis Set: (AUG-CC-PVTZ AUX)
    Blend: AUG-CC-PVTZ-JKFIT

    Orbital Energies [Eh]
    ---------------------

    Doubly Occupied:

       1A    -92.057796     2A    -20.497690     3A    -11.261996
       4A    -11.259992     5A    -11.237864     6A    -11.236150
       7A    -11.234805     8A    -11.221144     9A    -11.217890
      10A     -9.045260    11A     -6.726858    12A     -6.726671
      13A     -6.725385    14A     -1.317367    15A     -1.109751
      16A     -1.084666    17A     -1.006420    18A     -0.939399
      19A     -0.937291    20A     -0.842753    21A     -0.799220
      22A     -0.773048    23A     -0.663854    24A     -0.649280
      25A     -0.629899    26A     -0.610440    27A     -0.591946
      28A     -0.588607    29A     -0.559238    30A     -0.554610
      31A     -0.545024    32A     -0.533036    33A     -0.514693
      34A     -0.505694    35A     -0.498675    36A     -0.481570
      37A     -0.479444    38A     -0.475895    39A     -0.472570
      40A     -0.403720    41A     -0.359595

  @DF-RHF Final Energy:  -746.88537324754668

   => Energetics <=

    Nuclear Repulsion Energy =            574.8851654954174819
    One-Electron Energy =               -2164.7866705187734624
    Two-Electron Energy =                 843.0161317758094128
    Total Energy =                       -746.8853732475466813
  Basis Set: (AUG-CC-PVTZ AUX)
    Blend: AUG-CC-PVTZ-RI
    Molecular point group: c1

    Geometry (in Angstrom), charge = 0, multiplicity = 1:

       Center              X                  Y                   Z               Mass
    ------------   -----------------  -----------------  -----------------  -----------------
         S           -0.252333396074    -0.548655816050    -0.158190454791    31.972071174400
         O           -0.278041396074    -1.205560816050     1.210510545209    15.994914619570
         C            2.406752603926     0.116061183950     0.168719545209    12.000000000000
         C            1.035181603926     0.734948183950    -0.093925454791    12.000000000000
         C           -1.665291396074     0.590982183950    -0.229356454791    12.000000000000
         C            2.874331603926    -0.752844816050    -0.997467454791    12.000000000000
         C            3.419455603926     1.220540183950     0.466454545209    12.000000000000
         C           -2.968131396074    -0.194616816050    -0.146386454791    12.000000000000
         C           -4.184711396074     0.726516183950    -0.127777454791    12.000000000000
         H            2.303745603926    -0.514439816050     1.060797545209     1.007825032230
         H            0.764231603926     1.418962183950     0.719659545209     1.007825032230
         H            1.020132603926     1.282486183950    -1.045873454791     1.007825032230
         H           -1.577324396074     1.279932183950     0.619381545209     1.007825032230
         H           -1.592825396074     1.160865183950    -1.164044454791     1.007825032230
         H            2.962163603926    -0.153462816050    -1.911013454791     1.007825032230
         H            3.856760603926    -1.184007816050    -0.782780454791     1.007825032230
         H            2.185310603926    -1.578349816050    -1.197416454791     1.007825032230
         H            3.532001603926     1.886088183950    -0.396682454791     1.007825032230
         H            4.401463603926     0.792956183950     0.691428545209     1.007825032230
         H            3.108809603926     1.824593183950     1.324544545209     1.007825032230
         H           -3.034263396074    -0.884210816050    -0.996191454791     1.007825032230
         H           -2.941432396074    -0.807235816050     0.760299545209     1.007825032230
         H           -4.149453396074     1.401869183950     0.732252545209     1.007825032230
         H           -4.236650196074     1.392841083950    -1.117589654791     1.007825032230
         H           -5.110523396074     0.148153183950    -0.062595454791     1.007825032230

  Basis Set: AUG-CC-PVTZ
    Blend: AUG-CC-PVTZ
  Basis Set: (AUG-CC-PVTZ AUX)
    Blend: AUG-CC-PVTZ-JKFIT
	 Reference Energy          =    -746.8853732475466813 [Eh]
	 Singles Energy            =      -0.0000000000000000 [Eh]
	 Same-Spin Energy          =      -0.4271927041079150 [Eh]
	 Opposite-Spin Energy      =      -1.4588633692134474 [Eh]
	 Correlation Energy        =      -1.8860560733213625 [Eh]
	 Total Energy              =    -748.7714293208680374 [Eh]

	 ================> DF-SCS-MP2 Energies <==================
	-----------------------------------------------------------
	 SCS Same-Spin Scale       =       0.3333333333333333 [-]
	 SCS Opposite-Spin Scale   =       1.2000000000000000 [-]
	 SCS Same-Spin Energy      =      -0.1423975680359717 [Eh]
	 SCS Opposite-Spin Energy  =      -1.7506360430561367 [Eh]
	 SCS Correlation Energy    =      -1.8930336110921084 [Eh]
	 SCS Total Energy          =    -748.7784068586388457 [Eh]
	-----------------------------------------------------------

  Dipole Moment: [D]
     X:    -0.0299      Y:     2.8399      Z:    -2.2235     Total:     3.6069

*** Psi4 exiting successfully. Buy a developer a beer!
