                               Psi4 1.4a3.dev225

  ==> Input File <==

--------------------------------------------------------------------------
#psi4
#
memory 32 gb

molecule  {
0 1
  S       -0.2613620    -0.5930190    -0.1424790
  O       -0.2870700    -1.2499240     1.2262220
  C        2.3977240     0.0716980     0.1844310
  C        1.0165407     0.6777452    -0.0569194
  C       -1.6743200     0.5466190    -0.2136450
  C        2.8653030    -0.7972080    -0.9817560
  C        3.4104270     1.1761770     0.4821660
  C       -2.9771600    -0.2389800    -0.1306750
  C       -4.1937400     0.6821530    -0.1120660
  H        2.2947170    -0.5588030     1.0765090
  H        0.7552030     1.3745990     0.7353710
  H        1.0111040     1.2381230    -1.0301620
  H       -1.5863530     1.2355690     0.6350930
  H       -1.6018540     1.1165020    -1.1483330
  H        2.9531350    -0.1978260    -1.8953020
  H        3.8477320    -1.2283710    -0.7670690
  H        2.1762820    -1.6227130    -1.1817050
  H        3.5229730     1.8417250    -0.3809710
  H        4.3924350     0.7485930     0.7071400
  H        3.0997810     1.7802300     1.3402560
  H       -3.0432920    -0.9285740    -0.9804800
  H       -2.9504610    -0.8515990     0.7760110
  H       -4.1584820     1.3575060     0.7479640
  H       -4.2413300     1.2926870    -1.0190020
  H       -5.1195520     0.1037900    -0.0468840
units angstrom
no_reorient  #important for SAPT in psi4, default
symmetry c1  #important for SAPT in psi4, default
}

set PROPERTIES_ORIGIN ["COM"]
properties('MP2/aug-cc-pvtz', properties = ['dipole'])
--------------------------------------------------------------------------

    Molecular point group: c1
  Charge       = 0
  Multiplicity = 1
  Basis Set: AUG-CC-PVTZ
    Blend: AUG-CC-PVTZ
  Basis Set: (AUG-CC-PVTZ AUX)
    Blend: AUG-CC-PVTZ-JKFIT

    Orbital Energies [Eh]
    ---------------------

    Doubly Occupied:

       1A    -92.058015     2A    -20.496786     3A    -11.261906
       4A    -11.260087     5A    -11.237725     6A    -11.233703
       7A    -11.223909     8A    -11.221208     9A    -11.217941
      10A     -9.045601    11A     -6.727213    12A     -6.727025
      13A     -6.725714    14A     -1.317453    15A     -1.109760
      16A     -1.085210    17A     -1.008772    18A     -0.942171
      19A     -0.937220    20A     -0.846092    21A     -0.800819
      22A     -0.771489    23A     -0.664504    24A     -0.649009
      25A     -0.631468    26A     -0.610848    27A     -0.593444
      28A     -0.586293    29A     -0.566454    30A     -0.552712
      31A     -0.545361    32A     -0.533877    33A     -0.514844
      34A     -0.505904    35A     -0.499582    36A     -0.486295
      37A     -0.480278    38A     -0.475480    39A     -0.470692
      40A     -0.404218    41A     -0.360453

  @DF-RHF Final Energy:  -746.89103291461367

   => Energetics <=

    Nuclear Repulsion Energy =            575.5579760683903032
    One-Electron Energy =               -2166.1229419916753614
    Two-Electron Energy =                 843.6739330086712698
    Total Energy =                       -746.8910329146136746
  Basis Set: (AUG-CC-PVTZ AUX)
    Blend: AUG-CC-PVTZ-RI
    Molecular point group: c1

    Geometry (in Angstrom), charge = 0, multiplicity = 1:

       Center              X                  Y                   Z               Mass
    ------------   -----------------  -----------------  -----------------  -----------------
         S           -0.251584100833    -0.547235720427    -0.160479974025    31.972071174400
         O           -0.277292100833    -1.204140720427     1.208221025975    15.994914619570
         C            2.407501899167     0.117481279573     0.166430025975    12.000000000000
         C            1.026318599167     0.723528479573    -0.074920374025    12.000000000000
         C           -1.664542100833     0.592402279573    -0.231645974025    12.000000000000
         C            2.875080899167    -0.751424720427    -0.999756974025    12.000000000000
         C            3.420204899167     1.221960279573     0.464165025975    12.000000000000
         C           -2.967382100833    -0.193196720427    -0.148675974025    12.000000000000
         C           -4.183962100833     0.727936279573    -0.130066974025    12.000000000000
         H            2.304494899167    -0.513019720427     1.058508025975     1.007825032230
         H            0.764980899167     1.420382279573     0.717370025975     1.007825032230
         H            1.020881899167     1.283906279573    -1.048162974025     1.007825032230
         H           -1.576575100833     1.281352279573     0.617092025975     1.007825032230
         H           -1.592076100833     1.162285279573    -1.166333974025     1.007825032230
         H            2.962912899167    -0.152042720427    -1.913302974025     1.007825032230
         H            3.857509899167    -1.182587720427    -0.785069974025     1.007825032230
         H            2.186059899167    -1.576929720427    -1.199705974025     1.007825032230
         H            3.532750899167     1.887508279573    -0.398971974025     1.007825032230
         H            4.402212899167     0.794376279573     0.689139025975     1.007825032230
         H            3.109558899167     1.826013279573     1.322255025975     1.007825032230
         H           -3.033514100833    -0.882790720427    -0.998480974025     1.007825032230
         H           -2.940683100833    -0.805815720427     0.758010025975     1.007825032230
         H           -4.148704100833     1.403289279573     0.729963025975     1.007825032230
         H           -4.231552100833     1.338470279573    -1.037002974025     1.007825032230
         H           -5.109774100833     0.149573279573    -0.064884974025     1.007825032230

  Basis Set: AUG-CC-PVTZ
    Blend: AUG-CC-PVTZ
  Basis Set: (AUG-CC-PVTZ AUX)
    Blend: AUG-CC-PVTZ-JKFIT
	 Reference Energy          =    -746.8910329146136746 [Eh]
	 Singles Energy            =      -0.0000000000000000 [Eh]
	 Same-Spin Energy          =      -0.4272934243976338 [Eh]
	 Opposite-Spin Energy      =      -1.4582091465330838 [Eh]
	 Correlation Energy        =      -1.8855025709307176 [Eh]
	 Total Energy              =    -748.7765354855444002 [Eh]

	 ================> DF-SCS-MP2 Energies <==================
	-----------------------------------------------------------
	 SCS Same-Spin Scale       =       0.3333333333333333 [-]
	 SCS Opposite-Spin Scale   =       1.2000000000000000 [-]
	 SCS Same-Spin Energy      =      -0.1424311414658779 [Eh]
	 SCS Opposite-Spin Energy  =      -1.7498509758397005 [Eh]
	 SCS Correlation Energy    =      -1.8922821173055784 [Eh]
	 SCS Total Energy          =    -748.7833150319193010 [Eh]
	-----------------------------------------------------------

  Dipole Moment: [D]
     X:    -0.0513      Y:     2.8910      Z:    -2.2741     Total:     3.6786

*** Psi4 exiting successfully. Buy a developer a beer!
