                               Psi4 1.4a3.dev225

  ==> Input File <==

--------------------------------------------------------------------------
#psi4
#
memory 32 gb

molecule  {
0 1
  S       -0.2613620    -0.5930190    -0.1424790
  O       -0.2870700    -1.2499240     1.2262220
  C        2.3977240     0.0716980     0.1844310
  C        1.0261530     0.6905850    -0.0782140
  C       -1.6743200     0.5466190    -0.2136450
  C        2.8653030    -0.7972080    -0.9817560
  C        3.4104270     1.1761770     0.4821660
  C       -2.9771600    -0.2389800    -0.1306750
  C       -4.1937400     0.6821530    -0.1120660
  H        2.2853292    -0.6162652     1.1578107
  H        0.7552030     1.3745990     0.7353710
  H        1.0111040     1.2381230    -1.0301620
  H       -1.5863530     1.2355690     0.6350930
  H       -1.6018540     1.1165020    -1.1483330
  H        2.9531350    -0.1978260    -1.8953020
  H        3.8477320    -1.2283710    -0.7670690
  H        2.1762820    -1.6227130    -1.1817050
  H        3.5229730     1.8417250    -0.3809710
  H        4.3924350     0.7485930     0.7071400
  H        3.0997810     1.7802300     1.3402560
  H       -3.0432920    -0.9285740    -0.9804800
  H       -2.9504610    -0.8515990     0.7760110
  H       -4.1584820     1.3575060     0.7479640
  H       -4.2413300     1.2926870    -1.0190020
  H       -5.1195520     0.1037900    -0.0468840
units angstrom
no_reorient  #important for SAPT in psi4, default
symmetry c1  #important for SAPT in psi4, default
}

set PROPERTIES_ORIGIN ["COM"]
properties('MP2/aug-cc-pvtz', properties = ['dipole'])
--------------------------------------------------------------------------

    Molecular point group: c1
  Charge       = 0
  Multiplicity = 1
  Basis Set: AUG-CC-PVTZ
    Blend: AUG-CC-PVTZ
  Basis Set: (AUG-CC-PVTZ AUX)
    Blend: AUG-CC-PVTZ-JKFIT

    Orbital Energies [Eh]
    ---------------------

    Doubly Occupied:

       1A    -92.057665     2A    -20.497254     3A    -11.261814
       4A    -11.260614     5A    -11.248725     6A    -11.233512
       7A    -11.223779     8A    -11.221722     9A    -11.218568
      10A     -9.045110    11A     -6.726709    12A     -6.726518
      13A     -6.725230    14A     -1.316926    15A     -1.107708
      16A     -1.084464    17A     -1.007460    18A     -0.942196
      19A     -0.937713    20A     -0.845063    21A     -0.799590
      22A     -0.762645    23A     -0.663651    24A     -0.647410
      25A     -0.629674    26A     -0.611220    27A     -0.592702
      28A     -0.587278    29A     -0.566516    30A     -0.554293
      31A     -0.545424    32A     -0.533439    33A     -0.514227
      34A     -0.506432    35A     -0.499470    36A     -0.486157
      37A     -0.480634    38A     -0.475588    39A     -0.459218
      40A     -0.403335    41A     -0.359327

  @DF-RHF Final Energy:  -746.88495064776441

   => Energetics <=

    Nuclear Repulsion Energy =            574.8218982958403558
    One-Electron Energy =               -2164.6797363836403747
    Two-Electron Energy =                 842.9728874400356062
    Total Energy =                       -746.8849506477644127
  Basis Set: (AUG-CC-PVTZ AUX)
    Blend: AUG-CC-PVTZ-RI
    Molecular point group: c1

    Geometry (in Angstrom), charge = 0, multiplicity = 1:

       Center              X                  Y                   Z               Mass
    ------------   -----------------  -----------------  -----------------  -----------------
         S           -0.252299103716    -0.547885084575    -0.159307749373    31.972071174400
         O           -0.278007103716    -1.204790084575     1.209393250627    15.994914619570
         C            2.406786896284     0.116831915425     0.167602250627    12.000000000000
         C            1.035215896284     0.735718915425    -0.095042749373    12.000000000000
         C           -1.665257103716     0.591752915425    -0.230473749373    12.000000000000
         C            2.874365896284    -0.752074084575    -0.998584749373    12.000000000000
         C            3.419489896284     1.221310915425     0.465337250627    12.000000000000
         C           -2.968097103716    -0.193846084575    -0.147503749373    12.000000000000
         C           -4.184677103716     0.727286915425    -0.128894749373    12.000000000000
         H            2.294392096284    -0.571131284575     1.140981950627     1.007825032230
         H            0.764265896284     1.419732915425     0.718542250627     1.007825032230
         H            1.020166896284     1.283256915425    -1.046990749373     1.007825032230
         H           -1.577290103716     1.280702915425     0.618264250627     1.007825032230
         H           -1.592791103716     1.161635915425    -1.165161749373     1.007825032230
         H            2.962197896284    -0.152692084575    -1.912130749373     1.007825032230
         H            3.856794896284    -1.183237084575    -0.783897749373     1.007825032230
         H            2.185344896284    -1.577579084575    -1.198533749373     1.007825032230
         H            3.532035896284     1.886858915425    -0.397799749373     1.007825032230
         H            4.401497896284     0.793726915425     0.690311250627     1.007825032230
         H            3.108843896284     1.825363915425     1.323427250627     1.007825032230
         H           -3.034229103716    -0.883440084575    -0.997308749373     1.007825032230
         H           -2.941398103716    -0.806465084575     0.759182250627     1.007825032230
         H           -4.149419103716     1.402639915425     0.731135250627     1.007825032230
         H           -4.232267103716     1.337820915425    -1.035830749373     1.007825032230
         H           -5.110489103716     0.148923915425    -0.063712749373     1.007825032230

  Basis Set: AUG-CC-PVTZ
    Blend: AUG-CC-PVTZ
  Basis Set: (AUG-CC-PVTZ AUX)
    Blend: AUG-CC-PVTZ-JKFIT
	 Reference Energy          =    -746.8849506477644127 [Eh]
	 Singles Energy            =      -0.0000000000000000 [Eh]
	 Same-Spin Energy          =      -0.4274760697968328 [Eh]
	 Opposite-Spin Energy      =      -1.4591760118810835 [Eh]
	 Correlation Energy        =      -1.8866520816779162 [Eh]
	 Total Energy              =    -748.7716027294422929 [Eh]

	 ================> DF-SCS-MP2 Energies <==================
	-----------------------------------------------------------
	 SCS Same-Spin Scale       =       0.3333333333333333 [-]
	 SCS Opposite-Spin Scale   =       1.2000000000000000 [-]
	 SCS Same-Spin Energy      =      -0.1424920232656109 [Eh]
	 SCS Opposite-Spin Energy  =      -1.7510112142573002 [Eh]
	 SCS Correlation Energy    =      -1.8935032375229111 [Eh]
	 SCS Total Energy          =    -748.7784538852873766 [Eh]
	-----------------------------------------------------------

  Dipole Moment: [D]
     X:    -0.0618      Y:     2.9005      Z:    -2.3076     Total:     3.7070

*** Psi4 exiting successfully. Buy a developer a beer!
