                               Psi4 1.4a3.dev225

  ==> Input File <==

--------------------------------------------------------------------------
#psi4
#
memory 32 gb

molecule  {
0 1
  S       -0.2613620    -0.5930190    -0.1424790
  O       -0.2870700    -1.2499240     1.2262220
  C        2.3977240     0.0716980     0.1844310
  C        1.0261530     0.6905850    -0.0782140
  C       -1.5991565     0.4059730    -0.2118158
  C        2.8653030    -0.7972080    -0.9817560
  C        3.4104270     1.1761770     0.4821660
  C       -2.9771600    -0.2389800    -0.1306750
  C       -4.1937400     0.6821530    -0.1120660
  H        2.2947170    -0.5588030     1.0765090
  H        0.7552030     1.3745990     0.7353710
  H        1.0111040     1.2381230    -1.0301620
  H       -1.5863530     1.2355690     0.6350930
  H       -1.6018540     1.1165020    -1.1483330
  H        2.9531350    -0.1978260    -1.8953020
  H        3.8477320    -1.2283710    -0.7670690
  H        2.1762820    -1.6227130    -1.1817050
  H        3.5229730     1.8417250    -0.3809710
  H        4.3924350     0.7485930     0.7071400
  H        3.0997810     1.7802300     1.3402560
  H       -3.0432920    -0.9285740    -0.9804800
  H       -2.9504610    -0.8515990     0.7760110
  H       -4.1584820     1.3575060     0.7479640
  H       -4.2413300     1.2926870    -1.0190020
  H       -5.1195520     0.1037900    -0.0468840
units angstrom
no_reorient  #important for SAPT in psi4, default
symmetry c1  #important for SAPT in psi4, default
}

set PROPERTIES_ORIGIN ["COM"]
properties('MP2/aug-cc-pvtz', properties = ['dipole'])
--------------------------------------------------------------------------

    Molecular point group: c1
  Charge       = 0
  Multiplicity = 1
  Basis Set: AUG-CC-PVTZ
    Blend: AUG-CC-PVTZ
  Basis Set: (AUG-CC-PVTZ AUX)
    Blend: AUG-CC-PVTZ-JKFIT

    Orbital Energies [Eh]
    ---------------------

    Doubly Occupied:

       1A    -92.057384     2A    -20.495590     3A    -11.268540
       4A    -11.261477     5A    -11.238851     6A    -11.235944
       7A    -11.227516     8A    -11.221878     9A    -11.218178
      10A     -9.046951    11A     -6.729080    12A     -6.728389
      13A     -6.727101    14A     -1.321670    15A     -1.114158
      16A     -1.089870    17A     -1.017886    18A     -0.946705
      19A     -0.937788    20A     -0.855927    21A     -0.785436
      22A     -0.774226    23A     -0.661867    24A     -0.653585
      25A     -0.634664    26A     -0.613737    27A     -0.594899
      28A     -0.587347    29A     -0.564369    30A     -0.549900
      31A     -0.545826    32A     -0.536843    33A     -0.521660
      34A     -0.505058    35A     -0.493204    36A     -0.480928
      37A     -0.474337    38A     -0.473162    39A     -0.466116
      40A     -0.415379    41A     -0.359531

  @DF-RHF Final Energy:  -746.86830818522924

   => Energetics <=

    Nuclear Repulsion Energy =            577.9957434135561698
    One-Electron Energy =               -2170.8621902371041870
    Two-Electron Energy =                 845.9981386383186646
    Total Energy =                       -746.8683081852292389
  Basis Set: (AUG-CC-PVTZ AUX)
    Blend: AUG-CC-PVTZ-RI
    Molecular point group: c1

    Geometry (in Angstrom), charge = 0, multiplicity = 1:

       Center              X                  Y                   Z               Mass
    ------------   -----------------  -----------------  -----------------  -----------------
         S           -0.258453535510    -0.536879506246    -0.158902680815    31.972071174400
         O           -0.284161535510    -1.193784506246     1.209798319185    15.994914619570
         C            2.400632464490     0.127837493754     0.168007319185    12.000000000000
         C            1.029061464490     0.746724493754    -0.094637680815    12.000000000000
         C           -1.596248035510     0.462112493754    -0.228239480815    12.000000000000
         C            2.868211464490    -0.741068506246    -0.998179680815    12.000000000000
         C            3.413335464490     1.232316493754     0.465742319185    12.000000000000
         C           -2.974251535510    -0.182840506246    -0.147098680815    12.000000000000
         C           -4.190831535510     0.738292493754    -0.128489680815    12.000000000000
         H            2.297625464490    -0.502663506246     1.060085319185     1.007825032230
         H            0.758111464490     1.430738493754     0.718947319185     1.007825032230
         H            1.014012464490     1.294262493754    -1.046585680815     1.007825032230
         H           -1.583444535510     1.291708493754     0.618669319185     1.007825032230
         H           -1.598945535510     1.172641493754    -1.164756680815     1.007825032230
         H            2.956043464490    -0.141686506246    -1.911725680815     1.007825032230
         H            3.850640464490    -1.172231506246    -0.783492680815     1.007825032230
         H            2.179190464490    -1.566573506246    -1.198128680815     1.007825032230
         H            3.525881464490     1.897864493754    -0.397394680815     1.007825032230
         H            4.395343464490     0.804732493754     0.690716319185     1.007825032230
         H            3.102689464490     1.836369493754     1.323832319185     1.007825032230
         H           -3.040383535510    -0.872434506246    -0.996903680815     1.007825032230
         H           -2.947552535510    -0.795459506246     0.759587319185     1.007825032230
         H           -4.155573535510     1.413645493754     0.731540319185     1.007825032230
         H           -4.238421535510     1.348826493754    -1.035425680815     1.007825032230
         H           -5.116643535510     0.159929493754    -0.063307680815     1.007825032230

  Basis Set: AUG-CC-PVTZ
    Blend: AUG-CC-PVTZ
  Basis Set: (AUG-CC-PVTZ AUX)
    Blend: AUG-CC-PVTZ-JKFIT
	 Reference Energy          =    -746.8683081852292389 [Eh]
	 Singles Energy            =      -0.0000000000000000 [Eh]
	 Same-Spin Energy          =      -0.4285483951075143 [Eh]
	 Opposite-Spin Energy      =      -1.4592563742790039 [Eh]
	 Correlation Energy        =      -1.8878047693865181 [Eh]
	 Total Energy              =    -748.7561129546157872 [Eh]

	 ================> DF-SCS-MP2 Energies <==================
	-----------------------------------------------------------
	 SCS Same-Spin Scale       =       0.3333333333333333 [-]
	 SCS Opposite-Spin Scale   =       1.2000000000000000 [-]
	 SCS Same-Spin Energy      =      -0.1428494650358381 [Eh]
	 SCS Opposite-Spin Energy  =      -1.7511076491348045 [Eh]
	 SCS Correlation Energy    =      -1.8939571141706426 [Eh]
	 SCS Total Energy          =    -748.7622652993999282 [Eh]
	-----------------------------------------------------------

  Dipole Moment: [D]
     X:    -0.1608      Y:     2.9779      Z:    -2.3282     Total:     3.7834

*** Psi4 exiting successfully. Buy a developer a beer!
