                               Psi4 1.4a3.dev225

  ==> Input File <==

--------------------------------------------------------------------------
#psi4
#
memory 32 gb

molecule  {
0 1
  S       -0.2613620    -0.5930190    -0.1424790
  O       -0.2870700    -1.2499240     1.2262220
  C        2.3977240     0.0716980     0.1844310
  C        1.0261530     0.6905850    -0.0782140
  C       -1.6743200     0.5466190    -0.2136450
  C        2.8653030    -0.7972080    -0.9817560
  C        3.4435701     1.2123237     0.4919101
  C       -2.9771600    -0.2389800    -0.1306750
  C       -4.1937400     0.6821530    -0.1120660
  H        2.2947170    -0.5588030     1.0765090
  H        0.7552030     1.3745990     0.7353710
  H        1.0111040     1.2381230    -1.0301620
  H       -1.5863530     1.2355690     0.6350930
  H       -1.6018540     1.1165020    -1.1483330
  H        2.9531350    -0.1978260    -1.8953020
  H        3.8477320    -1.2283710    -0.7670690
  H        2.1762820    -1.6227130    -1.1817050
  H        3.5229730     1.8417250    -0.3809710
  H        4.3924350     0.7485930     0.7071400
  H        3.0997810     1.7802300     1.3402560
  H       -3.0432920    -0.9285740    -0.9804800
  H       -2.9504610    -0.8515990     0.7760110
  H       -4.1584820     1.3575060     0.7479640
  H       -4.2413300     1.2926870    -1.0190020
  H       -5.1195520     0.1037900    -0.0468840
units angstrom
no_reorient  #important for SAPT in psi4, default
symmetry c1  #important for SAPT in psi4, default
}

set PROPERTIES_ORIGIN ["COM"]
properties('MP2/aug-cc-pvtz', properties = ['dipole'])
--------------------------------------------------------------------------

    Molecular point group: c1
  Charge       = 0
  Multiplicity = 1
  Basis Set: AUG-CC-PVTZ
    Blend: AUG-CC-PVTZ
  Basis Set: (AUG-CC-PVTZ AUX)
    Blend: AUG-CC-PVTZ-JKFIT

    Orbital Energies [Eh]
    ---------------------

    Doubly Occupied:

       1A    -92.057457     2A    -20.497342     3A    -11.261638
       4A    -11.259672     5A    -11.239711     6A    -11.233405
       7A    -11.223701     8A    -11.219147     9A    -11.217676
      10A     -9.044918    11A     -6.726515    12A     -6.726326
      13A     -6.725040    14A     -1.316979    15A     -1.105885
      16A     -1.083636    17A     -1.006333    18A     -0.941809
      19A     -0.937817    20A     -0.846173    21A     -0.800249
      22A     -0.771873    23A     -0.664045    24A     -0.648047
      25A     -0.628305    26A     -0.611274    27A     -0.592931
      28A     -0.588403    29A     -0.565488    30A     -0.555110
      31A     -0.548722    32A     -0.537966    33A     -0.513498
      34A     -0.506680    35A     -0.499455    36A     -0.485736
      37A     -0.478325    38A     -0.477147    39A     -0.467286
      40A     -0.402890    41A     -0.359025

  @DF-RHF Final Energy:  -746.89003456977821

   => Energetics <=

    Nuclear Repulsion Energy =            574.4039732305608368
    One-Electron Energy =               -2163.8407467251231537
    Two-Electron Energy =                 842.5467389247839947
    Total Energy =                       -746.8900345697782086
  Basis Set: (AUG-CC-PVTZ AUX)
    Blend: AUG-CC-PVTZ-RI
    Molecular point group: c1

    Geometry (in Angstrom), charge = 0, multiplicity = 1:

       Center              X                  Y                   Z               Mass
    ------------   -----------------  -----------------  -----------------  -----------------
         S           -0.255048596920    -0.551205126340    -0.159544029980    31.972071174400
         O           -0.280756596920    -1.208110126340     1.209156970020    15.994914619570
         C            2.404037403080     0.113511873660     0.167365970020    12.000000000000
         C            1.032466403080     0.732398873660    -0.095279029980    12.000000000000
         C           -1.668006596920     0.588432873660    -0.230710029980    12.000000000000
         C            2.871616403080    -0.755394126340    -0.998821029980    12.000000000000
         C            3.449883503080     1.254137573660     0.474845070020    12.000000000000
         C           -2.970846596920    -0.197166126340    -0.147740029980    12.000000000000
         C           -4.187426596920     0.723966873660    -0.129131029980    12.000000000000
         H            2.301030403080    -0.516989126340     1.059443970020     1.007825032230
         H            0.761516403080     1.416412873660     0.718305970020     1.007825032230
         H            1.017417403080     1.279936873660    -1.047227029980     1.007825032230
         H           -1.580039596920     1.277382873660     0.618027970020     1.007825032230
         H           -1.595540596920     1.158315873660    -1.165398029980     1.007825032230
         H            2.959448403080    -0.156012126340    -1.912367029980     1.007825032230
         H            3.854045403080    -1.186557126340    -0.784134029980     1.007825032230
         H            2.182595403080    -1.580899126340    -1.198770029980     1.007825032230
         H            3.529286403080     1.883538873660    -0.398036029980     1.007825032230
         H            4.398748403080     0.790406873660     0.690074970020     1.007825032230
         H            3.106094403080     1.822043873660     1.323190970020     1.007825032230
         H           -3.036978596920    -0.886760126340    -0.997545029980     1.007825032230
         H           -2.944147596920    -0.809785126340     0.758945970020     1.007825032230
         H           -4.152168596920     1.399319873660     0.730898970020     1.007825032230
         H           -4.235016596920     1.334500873660    -1.036067029980     1.007825032230
         H           -5.113238596920     0.145603873660    -0.063949029980     1.007825032230

  Basis Set: AUG-CC-PVTZ
    Blend: AUG-CC-PVTZ
  Basis Set: (AUG-CC-PVTZ AUX)
    Blend: AUG-CC-PVTZ-JKFIT
	 Reference Energy          =    -746.8900345697782086 [Eh]
	 Singles Energy            =      -0.0000000000000000 [Eh]
	 Same-Spin Energy          =      -0.4270121507495017 [Eh]
	 Opposite-Spin Energy      =      -1.4581085945173060 [Eh]
	 Correlation Energy        =      -1.8851207452668077 [Eh]
	 Total Energy              =    -748.7751553150450263 [Eh]

	 ================> DF-SCS-MP2 Energies <==================
	-----------------------------------------------------------
	 SCS Same-Spin Scale       =       0.3333333333333333 [-]
	 SCS Opposite-Spin Scale   =       1.2000000000000000 [-]
	 SCS Same-Spin Energy      =      -0.1423373835831672 [Eh]
	 SCS Opposite-Spin Energy  =      -1.7497303134207671 [Eh]
	 SCS Correlation Energy    =      -1.8920676970039343 [Eh]
	 SCS Total Energy          =    -748.7821022667820898 [Eh]
	-----------------------------------------------------------

  Dipole Moment: [D]
     X:    -0.0518      Y:     2.8846      Z:    -2.2816     Total:     3.6782

*** Psi4 exiting successfully. Buy a developer a beer!
