                               Psi4 1.4a3.dev225

  ==> Input File <==

--------------------------------------------------------------------------
#psi4
#
memory 32 gb

molecule  {
0 1
  S       -0.2613620    -0.5930190    -0.1424790
  O       -0.2870700    -1.2499240     1.2262220
  C        2.4888168     0.0473551     0.2342174
  C        1.0261530     0.6905850    -0.0782140
  C       -1.6743200     0.5466190    -0.2136450
  C        2.8653030    -0.7972080    -0.9817560
  C        3.4104270     1.1761770     0.4821660
  C       -2.9771600    -0.2389800    -0.1306750
  C       -4.1937400     0.6821530    -0.1120660
  H        2.2947170    -0.5588030     1.0765090
  H        0.7552030     1.3745990     0.7353710
  H        1.0111040     1.2381230    -1.0301620
  H       -1.5863530     1.2355690     0.6350930
  H       -1.6018540     1.1165020    -1.1483330
  H        2.9531350    -0.1978260    -1.8953020
  H        3.8477320    -1.2283710    -0.7670690
  H        2.1762820    -1.6227130    -1.1817050
  H        3.5229730     1.8417250    -0.3809710
  H        4.3924350     0.7485930     0.7071400
  H        3.0997810     1.7802300     1.3402560
  H       -3.0432920    -0.9285740    -0.9804800
  H       -2.9504610    -0.8515990     0.7760110
  H       -4.1584820     1.3575060     0.7479640
  H       -4.2413300     1.2926870    -1.0190020
  H       -5.1195520     0.1037900    -0.0468840
units angstrom
no_reorient  #important for SAPT in psi4, default
symmetry c1  #important for SAPT in psi4, default
}

set PROPERTIES_ORIGIN ["COM"]
properties('MP2/aug-cc-pvtz', properties = ['dipole'])
--------------------------------------------------------------------------

    Molecular point group: c1
  Charge       = 0
  Multiplicity = 1
  Basis Set: AUG-CC-PVTZ
    Blend: AUG-CC-PVTZ
  Basis Set: (AUG-CC-PVTZ AUX)
    Blend: AUG-CC-PVTZ-JKFIT

    Orbital Energies [Eh]
    ---------------------

    Doubly Occupied:

       1A    -92.056274     2A    -20.496141     3A    -11.260416
       4A    -11.259401     5A    -11.239912     6A    -11.232540
       7A    -11.223065     8A    -11.220557     9A    -11.218728
      10A     -9.043592    11A     -6.725191    12A     -6.725033
      13A     -6.723748    14A     -1.315639    15A     -1.104799
      16A     -1.084721    17A     -1.008613    18A     -0.942370
      19A     -0.937026    20A     -0.840608    21A     -0.799179
      22A     -0.778974    23A     -0.661429    24A     -0.647686
      25A     -0.626301    26A     -0.610804    27A     -0.595405
      28A     -0.587962    29A     -0.566043    30A     -0.553888
      31A     -0.550072    32A     -0.532571    33A     -0.511827
      34A     -0.506356    35A     -0.498478    36A     -0.495662
      37A     -0.484620    38A     -0.484125    39A     -0.449053
      40A     -0.399929    41A     -0.358236

  @DF-RHF Final Energy:  -746.88220177152493

   => Energetics <=

    Nuclear Repulsion Energy =            574.0422092568776407
    One-Electron Energy =               -2163.1348737664857254
    Two-Electron Energy =                 842.2104627380831516
    Total Energy =                       -746.8822017715249331
  Basis Set: (AUG-CC-PVTZ AUX)
    Blend: AUG-CC-PVTZ-RI
    Molecular point group: c1

    Geometry (in Angstrom), charge = 0, multiplicity = 1:

       Center              X                  Y                   Z               Mass
    ------------   -----------------  -----------------  -----------------  -----------------
         S           -0.259744296385    -0.546303617232    -0.162788681922    31.972071174400
         O           -0.285452296385    -1.203208617232     1.205912318078    15.994914619570
         C            2.490434503615     0.094070482768     0.213907718078    12.000000000000
         C            1.027770703615     0.737300382768    -0.098523681922    12.000000000000
         C           -1.672702296385     0.593334382768    -0.233954681922    12.000000000000
         C            2.866920703615    -0.750492617232    -1.002065681922    12.000000000000
         C            3.412044703615     1.222892382768     0.461856318078    12.000000000000
         C           -2.975542296385    -0.192264617232    -0.150984681922    12.000000000000
         C           -4.192122296385     0.728868382768    -0.132375681922    12.000000000000
         H            2.296334703615    -0.512087617232     1.056199318078     1.007825032230
         H            0.756820703615     1.421314382768     0.715061318078     1.007825032230
         H            1.012721703615     1.284838382768    -1.050471681922     1.007825032230
         H           -1.584735296385     1.282284382768     0.614783318078     1.007825032230
         H           -1.600236296385     1.163217382768    -1.168642681922     1.007825032230
         H            2.954752703615    -0.151110617232    -1.915611681922     1.007825032230
         H            3.849349703615    -1.181655617232    -0.787378681922     1.007825032230
         H            2.177899703615    -1.575997617232    -1.202014681922     1.007825032230
         H            3.524590703615     1.888440382768    -0.401280681922     1.007825032230
         H            4.394052703615     0.795308382768     0.686830318078     1.007825032230
         H            3.101398703615     1.826945382768     1.319946318078     1.007825032230
         H           -3.041674296385    -0.881858617232    -1.000789681922     1.007825032230
         H           -2.948843296385    -0.804883617232     0.755701318078     1.007825032230
         H           -4.156864296385     1.404221382768     0.727654318078     1.007825032230
         H           -4.239712296385     1.339402382768    -1.039311681922     1.007825032230
         H           -5.117934296385     0.150505382768    -0.067193681922     1.007825032230

  Basis Set: AUG-CC-PVTZ
    Blend: AUG-CC-PVTZ
  Basis Set: (AUG-CC-PVTZ AUX)
    Blend: AUG-CC-PVTZ-JKFIT
	 Reference Energy          =    -746.8822017715249331 [Eh]
	 Singles Energy            =      -0.0000000000000000 [Eh]
	 Same-Spin Energy          =      -0.4272752340937231 [Eh]
	 Opposite-Spin Energy      =      -1.4585102046608149 [Eh]
	 Correlation Energy        =      -1.8857854387545381 [Eh]
	 Total Energy              =    -748.7679872102794434 [Eh]

	 ================> DF-SCS-MP2 Energies <==================
	-----------------------------------------------------------
	 SCS Same-Spin Scale       =       0.3333333333333333 [-]
	 SCS Opposite-Spin Scale   =       1.2000000000000000 [-]
	 SCS Same-Spin Energy      =      -0.1424250780312410 [Eh]
	 SCS Opposite-Spin Energy  =      -1.7502122455929778 [Eh]
	 SCS Correlation Energy    =      -1.8926373236242189 [Eh]
	 SCS Total Energy          =    -748.7748390951491047 [Eh]
	-----------------------------------------------------------

  Dipole Moment: [D]
     X:     0.0648      Y:     2.9095      Z:    -2.2741     Total:     3.6934

*** Psi4 exiting successfully. Buy a developer a beer!
