                               Psi4 1.4a3.dev225

  ==> Input File <==

--------------------------------------------------------------------------
#psi4
#
memory 32 gb

molecule  {
0 1
  S       -0.2613620    -0.5930190    -0.1424790
  O       -0.2870700    -1.2499240     1.2262220
  C        2.3977240     0.0716980     0.1844310
  C        1.0261530     0.6905850    -0.0782140
  C       -1.6743200     0.5466190    -0.2136450
  C        2.8653030    -0.7972080    -0.9817560
  C        3.4104270     1.1761770     0.4821660
  C       -2.9771600    -0.2389800    -0.1306750
  C       -4.1937400     0.6821530    -0.1120660
  H        2.2759414    -0.6737274     1.2391123
  H        0.7552030     1.3745990     0.7353710
  H        1.0111040     1.2381230    -1.0301620
  H       -1.5863530     1.2355690     0.6350930
  H       -1.6018540     1.1165020    -1.1483330
  H        2.9531350    -0.1978260    -1.8953020
  H        3.8477320    -1.2283710    -0.7670690
  H        2.1762820    -1.6227130    -1.1817050
  H        3.5229730     1.8417250    -0.3809710
  H        4.3924350     0.7485930     0.7071400
  H        3.0997810     1.7802300     1.3402560
  H       -3.0432920    -0.9285740    -0.9804800
  H       -2.9504610    -0.8515990     0.7760110
  H       -4.1584820     1.3575060     0.7479640
  H       -4.2413300     1.2926870    -1.0190020
  H       -5.1195520     0.1037900    -0.0468840
units angstrom
no_reorient  #important for SAPT in psi4, default
symmetry c1  #important for SAPT in psi4, default
}

set PROPERTIES_ORIGIN ["COM"]
properties('MP2/aug-cc-pvtz', properties = ['dipole'])
--------------------------------------------------------------------------

    Molecular point group: c1
  Charge       = 0
  Multiplicity = 1
  Basis Set: AUG-CC-PVTZ
    Blend: AUG-CC-PVTZ
  Basis Set: (AUG-CC-PVTZ AUX)
    Blend: AUG-CC-PVTZ-JKFIT

    Orbital Energies [Eh]
    ---------------------

    Doubly Occupied:

       1A    -92.057804     2A    -20.497029     3A    -11.261933
       4A    -11.261594     5A    -11.258754     6A    -11.233577
       7A    -11.223830     8A    -11.222567     9A    -11.219532
      10A     -9.045230    11A     -6.726831    12A     -6.726636
      13A     -6.725346    14A     -1.316729    15A     -1.106716
      16A     -1.084105    17A     -1.007467    18A     -0.942548
      19A     -0.938379    20A     -0.844866    21A     -0.799415
      22A     -0.755089    23A     -0.663077    24A     -0.645464
      25A     -0.629758    26A     -0.611500    27A     -0.592590
      28A     -0.586615    29A     -0.566683    30A     -0.554406
      31A     -0.545813    32A     -0.533782    33A     -0.514498
      34A     -0.506503    35A     -0.499565    36A     -0.486279
      37A     -0.481538    38A     -0.476221    39A     -0.444390
      40A     -0.402956    41A     -0.359310

  @DF-RHF Final Energy:  -746.87142037268404

   => Energetics <=

    Nuclear Repulsion Energy =            574.4101982611647372
    One-Electron Energy =               -2163.8493868888153884
    Two-Electron Energy =                 842.5677682549667225
    Total Energy =                       -746.8714203726840424
  Basis Set: (AUG-CC-PVTZ AUX)
    Blend: AUG-CC-PVTZ-RI
    Molecular point group: c1

    Geometry (in Angstrom), charge = 0, multiplicity = 1:

       Center              X                  Y                   Z               Mass
    ------------   -----------------  -----------------  -----------------  -----------------
         S           -0.252235216079    -0.547494031914    -0.159861038441    31.972071174400
         O           -0.277943216079    -1.204399031914     1.208839961559    15.994914619570
         C            2.406850783921     0.117222968086     0.167048961559    12.000000000000
         C            1.035279783921     0.736109968086    -0.095596038441    12.000000000000
         C           -1.665193216079     0.592143968086    -0.231027038441    12.000000000000
         C            2.874429783921    -0.751683031914    -0.999138038441    12.000000000000
         C            3.419553783921     1.221701968086     0.464783961559    12.000000000000
         C           -2.968033216079    -0.193455031914    -0.148057038441    12.000000000000
         C           -4.184613216079     0.727677968086    -0.129448038441    12.000000000000
         H            2.285068183921    -0.628202431914     1.221730261559     1.007825032230
         H            0.764329783921     1.420123968086     0.717988961559     1.007825032230
         H            1.020230783921     1.283647968086    -1.047544038441     1.007825032230
         H           -1.577226216079     1.281093968086     0.617710961559     1.007825032230
         H           -1.592727216079     1.162026968086    -1.165715038441     1.007825032230
         H            2.962261783921    -0.152301031914    -1.912684038441     1.007825032230
         H            3.856858783921    -1.182846031914    -0.784451038441     1.007825032230
         H            2.185408783921    -1.577188031914    -1.199087038441     1.007825032230
         H            3.532099783921     1.887249968086    -0.398353038441     1.007825032230
         H            4.401561783921     0.794117968086     0.689757961559     1.007825032230
         H            3.108907783921     1.825754968086     1.322873961559     1.007825032230
         H           -3.034165216079    -0.883049031914    -0.997862038441     1.007825032230
         H           -2.941334216079    -0.806074031914     0.758628961559     1.007825032230
         H           -4.149355216079     1.403030968086     0.730581961559     1.007825032230
         H           -4.232203216079     1.338211968086    -1.036384038441     1.007825032230
         H           -5.110425216079     0.149314968086    -0.064266038441     1.007825032230

  Basis Set: AUG-CC-PVTZ
    Blend: AUG-CC-PVTZ
  Basis Set: (AUG-CC-PVTZ AUX)
    Blend: AUG-CC-PVTZ-JKFIT
	 Reference Energy          =    -746.8714203726840424 [Eh]
	 Singles Energy            =      -0.0000000000000000 [Eh]
	 Same-Spin Energy          =      -0.4277157486703644 [Eh]
	 Opposite-Spin Energy      =      -1.4602978941501199 [Eh]
	 Correlation Energy        =      -1.8880136428204843 [Eh]
	 Total Energy              =    -748.7594340155045529 [Eh]

	 ================> DF-SCS-MP2 Energies <==================
	-----------------------------------------------------------
	 SCS Same-Spin Scale       =       0.3333333333333333 [-]
	 SCS Opposite-Spin Scale   =       1.2000000000000000 [-]
	 SCS Same-Spin Energy      =      -0.1425719162234548 [Eh]
	 SCS Opposite-Spin Energy  =      -1.7523574729801439 [Eh]
	 SCS Correlation Energy    =      -1.8949293892035988 [Eh]
	 SCS Total Energy          =    -748.7663497618876818 [Eh]
	-----------------------------------------------------------

  Dipole Moment: [D]
     X:    -0.0727      Y:     2.9214      Z:    -2.3486     Total:     3.7491

*** Psi4 exiting successfully. Buy a developer a beer!
