                               Psi4 1.4a3.dev225

  ==> Input File <==

--------------------------------------------------------------------------
#psi4
#
memory 32 gb

molecule  {
0 1
  S       -0.2613620    -0.5930190    -0.1424790
  O       -0.2870700    -1.2499240     1.2262220
  C        2.3977240     0.0716980     0.1844310
  C        1.0261530     0.6905850    -0.0782140
  C       -1.6743200     0.5466190    -0.2136450
  C        2.8653030    -0.7972080    -0.9817560
  C        3.4104270     1.1761770     0.4821660
  C       -2.9771600    -0.2389800    -0.1306750
  C       -4.1937400     0.6821530    -0.1120660
  H        2.2947170    -0.5588030     1.0765090
  H        0.7552030     1.3745990     0.7353710
  H        1.0111040     1.2381230    -1.0301620
  H       -1.5863530     1.2355690     0.6350930
  H       -1.6018540     1.1165020    -1.1483330
  H        2.9611478    -0.1431452    -1.9786435
  H        3.8477320    -1.2283710    -0.7670690
  H        2.1762820    -1.6227130    -1.1817050
  H        3.5229730     1.8417250    -0.3809710
  H        4.3924350     0.7485930     0.7071400
  H        3.0997810     1.7802300     1.3402560
  H       -3.0432920    -0.9285740    -0.9804800
  H       -2.9504610    -0.8515990     0.7760110
  H       -4.1584820     1.3575060     0.7479640
  H       -4.2413300     1.2926870    -1.0190020
  H       -5.1195520     0.1037900    -0.0468840
units angstrom
no_reorient  #important for SAPT in psi4, default
symmetry c1  #important for SAPT in psi4, default
}

set PROPERTIES_ORIGIN ["COM"]
properties('MP2/aug-cc-pvtz', properties = ['dipole'])
--------------------------------------------------------------------------

    Molecular point group: c1
  Charge       = 0
  Multiplicity = 1
  Basis Set: AUG-CC-PVTZ
    Blend: AUG-CC-PVTZ
  Basis Set: (AUG-CC-PVTZ AUX)
    Blend: AUG-CC-PVTZ-JKFIT

    Orbital Energies [Eh]
    ---------------------

    Doubly Occupied:

       1A    -92.057795     2A    -20.497714     3A    -11.261907
       4A    -11.260026     5A    -11.239195     6A    -11.233591
       7A    -11.230125     8A    -11.223833     9A    -11.221283
      10A     -9.045262    11A     -6.726859    12A     -6.726672
      13A     -6.725386    14A     -1.317392    15A     -1.109450
      16A     -1.085047    17A     -1.007373    18A     -0.941755
      19A     -0.932493    20A     -0.845389    21A     -0.800194
      22A     -0.770430    23A     -0.664731    24A     -0.649347
      25A     -0.630168    26A     -0.610537    27A     -0.593342
      28A     -0.586808    29A     -0.566273    30A     -0.554029
      31A     -0.537282    32A     -0.529739    33A     -0.514663
      34A     -0.506260    35A     -0.499553    36A     -0.486255
      37A     -0.480974    38A     -0.475696    39A     -0.469481
      40A     -0.403712    41A     -0.359624

  @DF-RHF Final Energy:  -746.88538130939367

   => Energetics <=

    Nuclear Repulsion Energy =            574.8497830360552143
    One-Electron Energy =               -2164.7150394153454727
    Two-Electron Energy =                 842.9798750698965932
    Total Energy =                       -746.8853813093936651
  Basis Set: (AUG-CC-PVTZ AUX)
    Blend: AUG-CC-PVTZ-RI
    Molecular point group: c1

    Geometry (in Angstrom), charge = 0, multiplicity = 1:

       Center              X                  Y                   Z               Mass
    ------------   -----------------  -----------------  -----------------  -----------------
         S           -0.252417521579    -0.548648261387    -0.158187288244    31.972071174400
         O           -0.278125521579    -1.205553261387     1.210513711756    15.994914619570
         C            2.406668478421     0.116068738613     0.168722711756    12.000000000000
         C            1.035097478421     0.734955738613    -0.093922288244    12.000000000000
         C           -1.665375521579     0.590989738613    -0.229353288244    12.000000000000
         C            2.874247478421    -0.752837261387    -0.997464288244    12.000000000000
         C            3.419371478421     1.220547738613     0.466457711756    12.000000000000
         C           -2.968215521579    -0.194609261387    -0.146383288244    12.000000000000
         C           -4.184795521579     0.726523738613    -0.127774288244    12.000000000000
         H            2.303661478421    -0.514432261387     1.060800711756     1.007825032230
         H            0.764147478421     1.418969738613     0.719662711756     1.007825032230
         H            1.020048478421     1.282493738613    -1.045870288244     1.007825032230
         H           -1.577408521579     1.279939738613     0.619384711756     1.007825032230
         H           -1.592909521579     1.160872738613    -1.164041288244     1.007825032230
         H            2.970092278421    -0.098774461387    -1.994351788244     1.007825032230
         H            3.856676478421    -1.184000261387    -0.782777288244     1.007825032230
         H            2.185226478421    -1.578342261387    -1.197413288244     1.007825032230
         H            3.531917478421     1.886095738613    -0.396679288244     1.007825032230
         H            4.401379478421     0.792963738613     0.691431711756     1.007825032230
         H            3.108725478421     1.824600738613     1.324547711756     1.007825032230
         H           -3.034347521579    -0.884203261387    -0.996188288244     1.007825032230
         H           -2.941516521579    -0.807228261387     0.760302711756     1.007825032230
         H           -4.149537521579     1.401876738613     0.732255711756     1.007825032230
         H           -4.232385521579     1.337057738613    -1.034710288244     1.007825032230
         H           -5.110607521579     0.148160738613    -0.062592288244     1.007825032230

  Basis Set: AUG-CC-PVTZ
    Blend: AUG-CC-PVTZ
  Basis Set: (AUG-CC-PVTZ AUX)
    Blend: AUG-CC-PVTZ-JKFIT
	 Reference Energy          =    -746.8853813093936651 [Eh]
	 Singles Energy            =      -0.0000000000000000 [Eh]
	 Same-Spin Energy          =      -0.4272449437628528 [Eh]
	 Opposite-Spin Energy      =      -1.4589022184595657 [Eh]
	 Correlation Energy        =      -1.8861471622224184 [Eh]
	 Total Energy              =    -748.7715284716160795 [Eh]

	 ================> DF-SCS-MP2 Energies <==================
	-----------------------------------------------------------
	 SCS Same-Spin Scale       =       0.3333333333333333 [-]
	 SCS Opposite-Spin Scale   =       1.2000000000000000 [-]
	 SCS Same-Spin Energy      =      -0.1424149812542843 [Eh]
	 SCS Opposite-Spin Energy  =      -1.7506826621514788 [Eh]
	 SCS Correlation Energy    =      -1.8930976434057631 [Eh]
	 SCS Total Energy          =    -748.7784789527994462 [Eh]
	-----------------------------------------------------------

  Dipole Moment: [D]
     X:    -0.0689      Y:     2.8619      Z:    -2.2121     Total:     3.6178

*** Psi4 exiting successfully. Buy a developer a beer!
