                               Psi4 1.4a3.dev225

  ==> Input File <==

--------------------------------------------------------------------------
#psi4
#
memory 32 gb

molecule  {
0 1
  S       -0.2613620    -0.5930190    -0.1424790
  O       -0.2870700    -1.2499240     1.2262220
  C        2.3977240     0.0716980     0.1844310
  C        1.1124428     0.5975339    -0.0738620
  C       -1.6743200     0.5466190    -0.2136450
  C        2.8653030    -0.7972080    -0.9817560
  C        3.4104270     1.1761770     0.4821660
  C       -2.9771600    -0.2389800    -0.1306750
  C       -4.1937400     0.6821530    -0.1120660
  H        2.2947170    -0.5588030     1.0765090
  H        0.7552030     1.3745990     0.7353710
  H        1.0111040     1.2381230    -1.0301620
  H       -1.5863530     1.2355690     0.6350930
  H       -1.6018540     1.1165020    -1.1483330
  H        2.9531350    -0.1978260    -1.8953020
  H        3.8477320    -1.2283710    -0.7670690
  H        2.1762820    -1.6227130    -1.1817050
  H        3.5229730     1.8417250    -0.3809710
  H        4.3924350     0.7485930     0.7071400
  H        3.0997810     1.7802300     1.3402560
  H       -3.0432920    -0.9285740    -0.9804800
  H       -2.9504610    -0.8515990     0.7760110
  H       -4.1584820     1.3575060     0.7479640
  H       -4.2413300     1.2926870    -1.0190020
  H       -5.1195520     0.1037900    -0.0468840
units angstrom
no_reorient  #important for SAPT in psi4, default
symmetry c1  #important for SAPT in psi4, default
}

set PROPERTIES_ORIGIN ["COM"]
properties('MP2/aug-cc-pvtz', properties = ['dipole'])
--------------------------------------------------------------------------

    Molecular point group: c1
  Charge       = 0
  Multiplicity = 1
  Basis Set: AUG-CC-PVTZ
    Blend: AUG-CC-PVTZ
  Basis Set: (AUG-CC-PVTZ AUX)
    Blend: AUG-CC-PVTZ-JKFIT

    Orbital Energies [Eh]
    ---------------------

    Doubly Occupied:

       1A    -92.057297     2A    -20.495111     3A    -11.268174
       4A    -11.264251     5A    -11.235495     6A    -11.231474
       7A    -11.225045     8A    -11.223228     9A    -11.218253
      10A     -9.044839    11A     -6.726412    12A     -6.726388
      13A     -6.724964    14A     -1.316067    15A     -1.126056
      16A     -1.088052    17A     -1.004966    18A     -0.944040
      19A     -0.938817    20A     -0.852919    21A     -0.803814
      22A     -0.766581    23A     -0.664162    24A     -0.654459
      25A     -0.632238    26A     -0.614518    27A     -0.593777
      28A     -0.584459    29A     -0.567915    30A     -0.549829
      31A     -0.544628    32A     -0.530906    33A     -0.515694
      34A     -0.504225    35A     -0.501990    36A     -0.492450
      37A     -0.485857    38A     -0.477577    39A     -0.461007
      40A     -0.405555    41A     -0.353477

  @DF-RHF Final Energy:  -746.87406249384685

   => Energetics <=

    Nuclear Repulsion Energy =            576.3726480130828804
    One-Electron Energy =               -2167.6594842363037969
    Two-Electron Energy =                 844.4127737293740665
    Total Energy =                       -746.8740624938468500
  Basis Set: (AUG-CC-PVTZ AUX)
    Blend: AUG-CC-PVTZ-RI
    Molecular point group: c1

    Geometry (in Angstrom), charge = 0, multiplicity = 1:

       Center              X                  Y                   Z               Mass
    ------------   -----------------  -----------------  -----------------  -----------------
         S           -0.259355106371    -0.540736149964    -0.159107104834    31.972071174400
         O           -0.285063106371    -1.197641149964     1.209593895166    15.994914619570
         C            2.399730893629     0.123980850036     0.167802895166    12.000000000000
         C            1.114449693629     0.649816750036    -0.090490104834    12.000000000000
         C           -1.672313106371     0.598901850036    -0.230273104834    12.000000000000
         C            2.867309893629    -0.744925149964    -0.998384104834    12.000000000000
         C            3.412433893629     1.228459850036     0.465537895166    12.000000000000
         C           -2.975153106371    -0.186697149964    -0.147303104834    12.000000000000
         C           -4.191733106371     0.734435850036    -0.128694104834    12.000000000000
         H            2.296723893629    -0.506520149964     1.059880895166     1.007825032230
         H            0.757209893629     1.426881850036     0.718742895166     1.007825032230
         H            1.013110893629     1.290405850036    -1.046790104834     1.007825032230
         H           -1.584346106371     1.287851850036     0.618464895166     1.007825032230
         H           -1.599847106371     1.168784850036    -1.164961104834     1.007825032230
         H            2.955141893629    -0.145543149964    -1.911930104834     1.007825032230
         H            3.849738893629    -1.176088149964    -0.783697104834     1.007825032230
         H            2.178288893629    -1.570430149964    -1.198333104834     1.007825032230
         H            3.524979893629     1.894007850036    -0.397599104834     1.007825032230
         H            4.394441893629     0.800875850036     0.690511895166     1.007825032230
         H            3.101787893629     1.832512850036     1.323627895166     1.007825032230
         H           -3.041285106371    -0.876291149964    -0.997108104834     1.007825032230
         H           -2.948454106371    -0.799316149964     0.759382895166     1.007825032230
         H           -4.156475106371     1.409788850036     0.731335895166     1.007825032230
         H           -4.239323106371     1.344969850036    -1.035630104834     1.007825032230
         H           -5.117545106371     0.156072850036    -0.063512104834     1.007825032230

  Basis Set: AUG-CC-PVTZ
    Blend: AUG-CC-PVTZ
  Basis Set: (AUG-CC-PVTZ AUX)
    Blend: AUG-CC-PVTZ-JKFIT
	 Reference Energy          =    -746.8740624938468500 [Eh]
	 Singles Energy            =      -0.0000000000000000 [Eh]
	 Same-Spin Energy          =      -0.4286243355405216 [Eh]
	 Opposite-Spin Energy      =      -1.4597497697351187 [Eh]
	 Correlation Energy        =      -1.8883741052756404 [Eh]
	 Total Energy              =    -748.7624365991224522 [Eh]

	 ================> DF-SCS-MP2 Energies <==================
	-----------------------------------------------------------
	 SCS Same-Spin Scale       =       0.3333333333333333 [-]
	 SCS Opposite-Spin Scale   =       1.2000000000000000 [-]
	 SCS Same-Spin Energy      =      -0.1428747785135072 [Eh]
	 SCS Opposite-Spin Energy  =      -1.7516997236821423 [Eh]
	 SCS Correlation Energy    =      -1.8945745021956495 [Eh]
	 SCS Total Energy          =    -748.7686369960424599 [Eh]
	-----------------------------------------------------------

  Dipole Moment: [D]
     X:    -0.0424      Y:     2.9161      Z:    -2.2805     Total:     3.7022

*** Psi4 exiting successfully. Buy a developer a beer!
