                               Psi4 1.4a3.dev225

  ==> Input File <==

--------------------------------------------------------------------------
#psi4
#
memory 32 gb

molecule  {
0 1
  S       -0.2613620    -0.5930190    -0.1424790
  O       -0.2870700    -1.2499240     1.2262220
  C        2.3977240     0.0716980     0.1844310
  C        1.0261530     0.6905850    -0.0782140
  C       -1.6743200     0.5466190    -0.2136450
  C        2.8653030    -0.7972080    -0.9817560
  C        3.4104270     1.1761770     0.4821660
  C       -3.0027020    -0.1994968    -0.2260611
  C       -4.1937400     0.6821530    -0.1120660
  H        2.2947170    -0.5588030     1.0765090
  H        0.7552030     1.3745990     0.7353710
  H        1.0111040     1.2381230    -1.0301620
  H       -1.5863530     1.2355690     0.6350930
  H       -1.6018540     1.1165020    -1.1483330
  H        2.9531350    -0.1978260    -1.8953020
  H        3.8477320    -1.2283710    -0.7670690
  H        2.1762820    -1.6227130    -1.1817050
  H        3.5229730     1.8417250    -0.3809710
  H        4.3924350     0.7485930     0.7071400
  H        3.0997810     1.7802300     1.3402560
  H       -3.0432920    -0.9285740    -0.9804800
  H       -2.9504610    -0.8515990     0.7760110
  H       -4.1584820     1.3575060     0.7479640
  H       -4.2413300     1.2926870    -1.0190020
  H       -5.1195520     0.1037900    -0.0468840
units angstrom
no_reorient  #important for SAPT in psi4, default
symmetry c1  #important for SAPT in psi4, default
}

set PROPERTIES_ORIGIN ["COM"]
properties('MP2/aug-cc-pvtz', properties = ['dipole'])
--------------------------------------------------------------------------

    Molecular point group: c1
  Charge       = 0
  Multiplicity = 1
  Basis Set: AUG-CC-PVTZ
    Blend: AUG-CC-PVTZ
  Basis Set: (AUG-CC-PVTZ AUX)
    Blend: AUG-CC-PVTZ-JKFIT

    Orbital Energies [Eh]
    ---------------------

    Doubly Occupied:

       1A    -92.058691     2A    -20.497366     3A    -11.262204
       4A    -11.260526     5A    -11.238198     6A    -11.236091
       7A    -11.222867     8A    -11.221377     9A    -11.218085
      10A     -9.046020    11A     -6.727614    12A     -6.727460
      13A     -6.726164    14A     -1.316987    15A     -1.110262
      16A     -1.088099    17A     -1.011040    18A     -0.944442
      19A     -0.937526    20A     -0.844968    21A     -0.799174
      22A     -0.773301    23A     -0.662237    24A     -0.649013
      25A     -0.633115    26A     -0.610520    27A     -0.594082
      28A     -0.591784    29A     -0.564294    30A     -0.557624
      31A     -0.545966    32A     -0.536485    33A     -0.521821
      34A     -0.509297    35A     -0.504857    36A     -0.480784
      37A     -0.476935    38A     -0.473408    39A     -0.453947
      40A     -0.404822    41A     -0.359502

  @DF-RHF Final Energy:  -746.87969845543307

   => Energetics <=

    Nuclear Repulsion Energy =            575.1023803511089909
    One-Electron Energy =               -2165.1662529880468355
    Two-Electron Energy =                 843.1841741815048863
    Total Energy =                       -746.8796984554330720
  Basis Set: (AUG-CC-PVTZ AUX)
    Blend: AUG-CC-PVTZ-RI
    Molecular point group: c1

    Geometry (in Angstrom), charge = 0, multiplicity = 1:

       Center              X                  Y                   Z               Mass
    ------------   -----------------  -----------------  -----------------  -----------------
         S           -0.250293307545    -0.551475484966    -0.151025265881    31.972071174400
         O           -0.276001307545    -1.208380484966     1.217675734119    15.994914619570
         C            2.408792692455     0.113241515034     0.175884734119    12.000000000000
         C            1.037221692455     0.732128515034    -0.086760265881    12.000000000000
         C           -1.663251307545     0.588162515034    -0.222191265881    12.000000000000
         C            2.876371692455    -0.755664484966    -0.990302265881    12.000000000000
         C            3.421495692455     1.217720515034     0.473619734119    12.000000000000
         C           -2.991633307545    -0.157953284966    -0.234607365881    12.000000000000
         C           -4.182671307545     0.723696515034    -0.120612265881    12.000000000000
         H            2.305785692455    -0.517259484966     1.067962734119     1.007825032230
         H            0.766271692455     1.416142515034     0.726824734119     1.007825032230
         H            1.022172692455     1.279666515034    -1.038708265881     1.007825032230
         H           -1.575284307545     1.277112515034     0.626546734119     1.007825032230
         H           -1.590785307545     1.158045515034    -1.156879265881     1.007825032230
         H            2.964203692455    -0.156282484966    -1.903848265881     1.007825032230
         H            3.858800692455    -1.186827484966    -0.775615265881     1.007825032230
         H            2.187350692455    -1.581169484966    -1.190251265881     1.007825032230
         H            3.534041692455     1.883268515034    -0.389517265881     1.007825032230
         H            4.403503692455     0.790136515034     0.698593734119     1.007825032230
         H            3.110849692455     1.821773515034     1.331709734119     1.007825032230
         H           -3.032223307545    -0.887030484966    -0.989026265881     1.007825032230
         H           -2.939392307545    -0.810055484966     0.767464734119     1.007825032230
         H           -4.147413307545     1.399049515034     0.739417734119     1.007825032230
         H           -4.230261307545     1.334230515034    -1.027548265881     1.007825032230
         H           -5.108483307545     0.145333515034    -0.055430265881     1.007825032230

  Basis Set: AUG-CC-PVTZ
    Blend: AUG-CC-PVTZ
  Basis Set: (AUG-CC-PVTZ AUX)
    Blend: AUG-CC-PVTZ-JKFIT
	 Reference Energy          =    -746.8796984554330720 [Eh]
	 Singles Energy            =      -0.0000000000000000 [Eh]
	 Same-Spin Energy          =      -0.4277416679845301 [Eh]
	 Opposite-Spin Energy      =      -1.4591211481660948 [Eh]
	 Correlation Energy        =      -1.8868628161506249 [Eh]
	 Total Energy              =    -748.7665612715836687 [Eh]

	 ================> DF-SCS-MP2 Energies <==================
	-----------------------------------------------------------
	 SCS Same-Spin Scale       =       0.3333333333333333 [-]
	 SCS Opposite-Spin Scale   =       1.2000000000000000 [-]
	 SCS Same-Spin Energy      =      -0.1425805559948433 [Eh]
	 SCS Opposite-Spin Energy  =      -1.7509453777993138 [Eh]
	 SCS Correlation Energy    =      -1.8935259337941572 [Eh]
	 SCS Total Energy          =    -748.7732243892272663 [Eh]
	-----------------------------------------------------------

  Dipole Moment: [D]
     X:    -0.0230      Y:     2.8943      Z:    -2.3077     Total:     3.7018

*** Psi4 exiting successfully. Buy a developer a beer!
