                               Psi4 1.4a3.dev225

  ==> Input File <==

--------------------------------------------------------------------------
#psi4
#
memory 32 gb

molecule  {
0 1
  S       -0.2613620    -0.5930190    -0.1424790
  O       -0.2870700    -1.2499240     1.2262220
  C        2.3977240     0.0716980     0.1844310
  C        1.0261530     0.6905850    -0.0782140
  C       -1.6743200     0.5466190    -0.2136450
  C        2.8653030    -0.7972080    -0.9817560
  C        3.4104270     1.1761770     0.4821660
  C       -2.9771600    -0.2389800    -0.1306750
  C       -4.1937400     0.6821530    -0.1120660
  H        2.2947170    -0.5588030     1.0765090
  H        0.7552030     1.3745990     0.7353710
  H        1.0111040     1.2381230    -1.0301620
  H       -1.5863530     1.2355690     0.6350930
  H       -1.6018540     1.1165020    -1.1483330
  H        2.9531350    -0.1978260    -1.8953020
  H        3.8477320    -1.2283710    -0.7670690
  H        2.1762820    -1.6227130    -1.1817050
  H        3.5229730     1.8417250    -0.3809710
  H        4.3924350     0.7485930     0.7071400
  H        3.0997810     1.7802300     1.3402560
  H       -3.0432920    -0.9285740    -0.9804800
  H       -2.9504610    -0.8515990     0.7760110
  H       -4.1584820     1.3575060     0.7479640
  H       -4.2435044     1.3205824    -1.0604401
  H       -5.1195520     0.1037900    -0.0468840
units angstrom
no_reorient  #important for SAPT in psi4, default
symmetry c1  #important for SAPT in psi4, default
}

set PROPERTIES_ORIGIN ["COM"]
properties('MP2/aug-cc-pvtz', properties = ['dipole'])
--------------------------------------------------------------------------

    Molecular point group: c1
  Charge       = 0
  Multiplicity = 1
  Basis Set: AUG-CC-PVTZ
    Blend: AUG-CC-PVTZ
  Basis Set: (AUG-CC-PVTZ AUX)
    Blend: AUG-CC-PVTZ-JKFIT

    Orbital Energies [Eh]
    ---------------------

    Doubly Occupied:

       1A    -92.057682     2A    -20.497563     3A    -11.261852
       4A    -11.259903     5A    -11.237797     6A    -11.234155
       7A    -11.229978     8A    -11.221095     9A    -11.217838
      10A     -9.045142    11A     -6.726740    12A     -6.726553
      13A     -6.725267    14A     -1.317227    15A     -1.109682
      16A     -1.084786    17A     -1.006924    18A     -0.940504
      19A     -0.937252    20A     -0.844042    21A     -0.799657
      22A     -0.772987    23A     -0.664123    24A     -0.649291
      25A     -0.629751    26A     -0.610702    27A     -0.592350
      28A     -0.588237    29A     -0.562616    30A     -0.554449
      31A     -0.545114    32A     -0.533114    33A     -0.514323
      34A     -0.505941    35A     -0.499011    36A     -0.484021
      37A     -0.479979    38A     -0.475792    39A     -0.472558
      40A     -0.403590    41A     -0.359465

  @DF-RHF Final Energy:  -746.88966036581303

   => Energetics <=

    Nuclear Repulsion Energy =            575.0730545414913877
    One-Electron Energy =               -2165.1673267121814206
    Two-Electron Energy =                 843.2046118048771177
    Total Energy =                       -746.8896603658130289
  Basis Set: (AUG-CC-PVTZ AUX)
    Blend: AUG-CC-PVTZ-RI
    Molecular point group: c1

    Geometry (in Angstrom), charge = 0, multiplicity = 1:

       Center              X                  Y                   Z               Mass
    ------------   -----------------  -----------------  -----------------  -----------------
         S           -0.252348193713    -0.548465976303    -0.158472457208    31.972071174400
         O           -0.278056193713    -1.205370976303     1.210228542792    15.994914619570
         C            2.406737806287     0.116251023697     0.168437542792    12.000000000000
         C            1.035166806287     0.735138023697    -0.094207457208    12.000000000000
         C           -1.665306193713     0.591172023697    -0.229638457208    12.000000000000
         C            2.874316806287    -0.752654976303    -0.997749457208    12.000000000000
         C            3.419440806287     1.220730023697     0.466172542792    12.000000000000
         C           -2.968146193713    -0.194426976303    -0.146668457208    12.000000000000
         C           -4.184726193713     0.726706023697    -0.128059457208    12.000000000000
         H            2.303730806287    -0.514249976303     1.060515542792     1.007825032230
         H            0.764216806287     1.419152023697     0.719377542792     1.007825032230
         H            1.020117806287     1.282676023697    -1.046155457208     1.007825032230
         H           -1.577339193713     1.280122023697     0.619099542792     1.007825032230
         H           -1.592840193713     1.161055023697    -1.164326457208     1.007825032230
         H            2.962148806287    -0.153272976303    -1.911295457208     1.007825032230
         H            3.856745806287    -1.183817976303    -0.783062457208     1.007825032230
         H            2.185295806287    -1.578159976303    -1.197698457208     1.007825032230
         H            3.531986806287     1.886278023697    -0.396964457208     1.007825032230
         H            4.401448806287     0.793146023697     0.691146542792     1.007825032230
         H            3.108794806287     1.824783023697     1.324262542792     1.007825032230
         H           -3.034278193713    -0.884020976303    -0.996473457208     1.007825032230
         H           -2.941447193713    -0.807045976303     0.760017542792     1.007825032230
         H           -4.149468193713     1.402059023697     0.731970542792     1.007825032230
         H           -4.234490593713     1.365135423697    -1.076433557208     1.007825032230
         H           -5.110538193713     0.148343023697    -0.062877457208     1.007825032230

  Basis Set: AUG-CC-PVTZ
    Blend: AUG-CC-PVTZ
  Basis Set: (AUG-CC-PVTZ AUX)
    Blend: AUG-CC-PVTZ-JKFIT
	 Reference Energy          =    -746.8896603658130289 [Eh]
	 Singles Energy            =      -0.0000000000000000 [Eh]
	 Same-Spin Energy          =      -0.4272278619392037 [Eh]
	 Opposite-Spin Energy      =      -1.4585309310034766 [Eh]
	 Correlation Energy        =      -1.8857587929426805 [Eh]
	 Total Energy              =    -748.7754191587556534 [Eh]

	 ================> DF-SCS-MP2 Energies <==================
	-----------------------------------------------------------
	 SCS Same-Spin Scale       =       0.3333333333333333 [-]
	 SCS Opposite-Spin Scale   =       1.2000000000000000 [-]
	 SCS Same-Spin Energy      =      -0.1424092873130679 [Eh]
	 SCS Opposite-Spin Energy  =      -1.7502371172041720 [Eh]
	 SCS Correlation Energy    =      -1.8926464045172398 [Eh]
	 SCS Total Energy          =    -748.7823067703302513 [Eh]
	-----------------------------------------------------------

  Dipole Moment: [D]
     X:    -0.0422      Y:     2.8644      Z:    -2.2522     Total:     3.6441

*** Psi4 exiting successfully. Buy a developer a beer!
