                               Psi4 1.4a3.dev225

  ==> Input File <==

--------------------------------------------------------------------------
#psi4
#
memory 32 gb

molecule  {
0 1
  S       -0.2613620    -0.5930190    -0.1424790
  O       -0.2867314    -1.2412714     1.2081938
  C        2.3977240     0.0716980     0.1844310
  C        1.0261530     0.6905850    -0.0782140
  C       -1.6743200     0.5466190    -0.2136450
  C        2.8653030    -0.7972080    -0.9817560
  C        3.4104270     1.1761770     0.4821660
  C       -2.9771600    -0.2389800    -0.1306750
  C       -4.1937400     0.6821530    -0.1120660
  H        2.2947170    -0.5588030     1.0765090
  H        0.7552030     1.3745990     0.7353710
  H        1.0111040     1.2381230    -1.0301620
  H       -1.5863530     1.2355690     0.6350930
  H       -1.6018540     1.1165020    -1.1483330
  H        2.9531350    -0.1978260    -1.8953020
  H        3.8477320    -1.2283710    -0.7670690
  H        2.1762820    -1.6227130    -1.1817050
  H        3.5229730     1.8417250    -0.3809710
  H        4.3924350     0.7485930     0.7071400
  H        3.0997810     1.7802300     1.3402560
  H       -3.0432920    -0.9285740    -0.9804800
  H       -2.9504610    -0.8515990     0.7760110
  H       -4.1584820     1.3575060     0.7479640
  H       -4.2413300     1.2926870    -1.0190020
  H       -5.1195520     0.1037900    -0.0468840
units angstrom
no_reorient  #important for SAPT in psi4, default
symmetry c1  #important for SAPT in psi4, default
}

set PROPERTIES_ORIGIN ["COM"]
properties('MP2/aug-cc-pvtz', properties = ['dipole'])
--------------------------------------------------------------------------

    Molecular point group: c1
  Charge       = 0
  Multiplicity = 1
  Basis Set: AUG-CC-PVTZ
    Blend: AUG-CC-PVTZ
  Basis Set: (AUG-CC-PVTZ AUX)
    Blend: AUG-CC-PVTZ-JKFIT

    Orbital Energies [Eh]
    ---------------------

    Doubly Occupied:

       1A    -92.056968     2A    -20.497339     3A    -11.260204
       4A    -11.258312     5A    -11.237444     6A    -11.233143
       7A    -11.223464     8A    -11.220783     9A    -11.217539
      10A     -9.044526    11A     -6.726109    12A     -6.726029
      13A     -6.724674    14A     -1.328457    15A     -1.109099
      16A     -1.084504    17A     -1.006643    18A     -0.941422
      19A     -0.936944    20A     -0.844793    21A     -0.799287
      22A     -0.772233    23A     -0.664205    24A     -0.649559
      25A     -0.630104    26A     -0.611147    27A     -0.593539
      28A     -0.588131    29A     -0.567145    30A     -0.555788
      31A     -0.545091    32A     -0.533384    33A     -0.514754
      34A     -0.509651    35A     -0.499302    36A     -0.486097
      37A     -0.480542    38A     -0.475913    39A     -0.472561
      40A     -0.404015    41A     -0.358021

  @DF-RHF Final Energy:  -746.89279188329135

   => Energetics <=

    Nuclear Repulsion Energy =            576.1133690536049698
    One-Electron Energy =               -2167.2345939259130319
    Two-Electron Energy =                 844.2284329890168237
    Total Energy =                       -746.8927918832913520
  Basis Set: (AUG-CC-PVTZ AUX)
    Blend: AUG-CC-PVTZ-RI
    Molecular point group: c1

    Geometry (in Angstrom), charge = 0, multiplicity = 1:

       Center              X                  Y                   Z               Mass
    ------------   -----------------  -----------------  -----------------  -----------------
         S           -0.252399562344    -0.549210674039    -0.156807297341    31.972071174400
         O           -0.277768962344    -1.197463074039     1.193865502659    15.994914619570
         C            2.406686437656     0.115506325961     0.170102702659    12.000000000000
         C            1.035115437656     0.734393325961    -0.092542297341    12.000000000000
         C           -1.665357562344     0.590427325961    -0.227973297341    12.000000000000
         C            2.874265437656    -0.753399674039    -0.996084297341    12.000000000000
         C            3.419389437656     1.219985325961     0.467837702659    12.000000000000
         C           -2.968197562344    -0.195171674039    -0.145003297341    12.000000000000
         C           -4.184777562344     0.725961325961    -0.126394297341    12.000000000000
         H            2.303679437656    -0.514994674039     1.062180702659     1.007825032230
         H            0.764165437656     1.418407325961     0.721042702659     1.007825032230
         H            1.020066437656     1.281931325961    -1.044490297341     1.007825032230
         H           -1.577390562344     1.279377325961     0.620764702659     1.007825032230
         H           -1.592891562344     1.160310325961    -1.162661297341     1.007825032230
         H            2.962097437656    -0.154017674039    -1.909630297341     1.007825032230
         H            3.856694437656    -1.184562674039    -0.781397297341     1.007825032230
         H            2.185244437656    -1.578904674039    -1.196033297341     1.007825032230
         H            3.531935437656     1.885533325961    -0.395299297341     1.007825032230
         H            4.401397437656     0.792401325961     0.692811702659     1.007825032230
         H            3.108743437656     1.824038325961     1.325927702659     1.007825032230
         H           -3.034329562344    -0.884765674039    -0.994808297341     1.007825032230
         H           -2.941498562344    -0.807790674039     0.761682702659     1.007825032230
         H           -4.149519562344     1.401314325961     0.733635702659     1.007825032230
         H           -4.232367562344     1.336495325961    -1.033330297341     1.007825032230
         H           -5.110589562344     0.147598325961    -0.061212297341     1.007825032230

  Basis Set: AUG-CC-PVTZ
    Blend: AUG-CC-PVTZ
  Basis Set: (AUG-CC-PVTZ AUX)
    Blend: AUG-CC-PVTZ-JKFIT
	 Reference Energy          =    -746.8927918832913520 [Eh]
	 Singles Energy            =      -0.0000000000000000 [Eh]
	 Same-Spin Energy          =      -0.4270131907304361 [Eh]
	 Opposite-Spin Energy      =      -1.4574575694035692 [Eh]
	 Correlation Energy        =      -1.8844707601340054 [Eh]
	 Total Energy              =    -748.7772626434253880 [Eh]

	 ================> DF-SCS-MP2 Energies <==================
	-----------------------------------------------------------
	 SCS Same-Spin Scale       =       0.3333333333333333 [-]
	 SCS Opposite-Spin Scale   =       1.2000000000000000 [-]
	 SCS Same-Spin Energy      =      -0.1423377302434787 [Eh]
	 SCS Opposite-Spin Energy  =      -1.7489490832842829 [Eh]
	 SCS Correlation Energy    =      -1.8912868135277616 [Eh]
	 SCS Total Energy          =    -748.7840786968191651 [Eh]
	-----------------------------------------------------------

  Dipole Moment: [D]
     X:    -0.0540      Y:     2.8149      Z:    -2.1944     Total:     3.5696

*** Psi4 exiting successfully. Buy a developer a beer!
