                               Psi4 1.4a3.dev225

  ==> Input File <==

--------------------------------------------------------------------------
#psi4
#
memory 32 gb

molecule  {
0 1
  S       -0.2613620    -0.5930190    -0.1424790
  O       -0.2870700    -1.2499240     1.2262220
  C        2.3977240     0.0716980     0.1844310
  C        1.0924892     0.7635322    -0.2040765
  C       -1.6743200     0.5466190    -0.2136450
  C        2.8653030    -0.7972080    -0.9817560
  C        3.4104270     1.1761770     0.4821660
  C       -2.9771600    -0.2389800    -0.1306750
  C       -4.1937400     0.6821530    -0.1120660
  H        2.2947170    -0.5588030     1.0765090
  H        0.7552030     1.3745990     0.7353710
  H        1.0111040     1.2381230    -1.0301620
  H       -1.5863530     1.2355690     0.6350930
  H       -1.6018540     1.1165020    -1.1483330
  H        2.9531350    -0.1978260    -1.8953020
  H        3.8477320    -1.2283710    -0.7670690
  H        2.1762820    -1.6227130    -1.1817050
  H        3.5229730     1.8417250    -0.3809710
  H        4.3924350     0.7485930     0.7071400
  H        3.0997810     1.7802300     1.3402560
  H       -3.0432920    -0.9285740    -0.9804800
  H       -2.9504610    -0.8515990     0.7760110
  H       -4.1584820     1.3575060     0.7479640
  H       -4.2413300     1.2926870    -1.0190020
  H       -5.1195520     0.1037900    -0.0468840
units angstrom
no_reorient  #important for SAPT in psi4, default
symmetry c1  #important for SAPT in psi4, default
}

set PROPERTIES_ORIGIN ["COM"]
properties('MP2/aug-cc-pvtz', properties = ['dipole'])
--------------------------------------------------------------------------

    Molecular point group: c1
  Charge       = 0
  Multiplicity = 1
  Basis Set: AUG-CC-PVTZ
    Blend: AUG-CC-PVTZ
  Basis Set: (AUG-CC-PVTZ AUX)
    Blend: AUG-CC-PVTZ-JKFIT

    Orbital Energies [Eh]
    ---------------------

    Doubly Occupied:

       1A    -92.054879     2A    -20.501308     3A    -11.261745
       4A    -11.260646     5A    -11.239968     6A    -11.232046
       7A    -11.222752     8A    -11.220722     9A    -11.217394
      10A     -9.041717    11A     -6.723266    12A     -6.722959
      13A     -6.721855    14A     -1.315690    15A     -1.110458
      16A     -1.084126    17A     -1.001839    18A     -0.942944
      19A     -0.937791    20A     -0.844102    21A     -0.796603
      22A     -0.788806    23A     -0.662963    24A     -0.650211
      25A     -0.628770    26A     -0.616694    27A     -0.593364
      28A     -0.589863    29A     -0.566359    30A     -0.559702
      31A     -0.545000    32A     -0.528027    33A     -0.511333
      34A     -0.505986    35A     -0.498516    36A     -0.489171
      37A     -0.484864    38A     -0.478142    39A     -0.464446
      40A     -0.398104    41A     -0.350627

  @DF-RHF Final Energy:  -746.86223692370129

   => Energetics <=

    Nuclear Repulsion Energy =            573.5407401129162963
    One-Electron Energy =               -2162.0744400340449829
    Two-Electron Energy =                 841.6714629974272839
    Total Energy =                       -746.8622369237012890
  Basis Set: (AUG-CC-PVTZ AUX)
    Blend: AUG-CC-PVTZ-RI
    Molecular point group: c1

    Geometry (in Angstrom), charge = 0, multiplicity = 1:

       Center              X                  Y                   Z               Mass
    ------------   -----------------  -----------------  -----------------  -----------------
         S           -0.257738254017    -0.554187093255    -0.148555744638    31.972071174400
         O           -0.283446254017    -1.211092093255     1.220145255362    15.994914619570
         C            2.401347745983     0.110529906745     0.178354255362    12.000000000000
         C            1.096112945983     0.802364106745    -0.210153244638    12.000000000000
         C           -1.670696254017     0.585450906745    -0.219721744638    12.000000000000
         C            2.868926745983    -0.758376093255    -0.987832744638    12.000000000000
         C            3.414050745983     1.215008906745     0.476089255362    12.000000000000
         C           -2.973536254017    -0.200148093255    -0.136751744638    12.000000000000
         C           -4.190116254017     0.720984906745    -0.118142744638    12.000000000000
         H            2.298340745983    -0.519971093255     1.070432255362     1.007825032230
         H            0.758826745983     1.413430906745     0.729294255362     1.007825032230
         H            1.014727745983     1.276954906745    -1.036238744638     1.007825032230
         H           -1.582729254017     1.274400906745     0.629016255362     1.007825032230
         H           -1.598230254017     1.155333906745    -1.154409744638     1.007825032230
         H            2.956758745983    -0.158994093255    -1.901378744638     1.007825032230
         H            3.851355745983    -1.189539093255    -0.773145744638     1.007825032230
         H            2.179905745983    -1.583881093255    -1.187781744638     1.007825032230
         H            3.526596745983     1.880556906745    -0.387047744638     1.007825032230
         H            4.396058745983     0.787424906745     0.701063255362     1.007825032230
         H            3.103404745983     1.819061906745     1.334179255362     1.007825032230
         H           -3.039668254017    -0.889742093255    -0.986556744638     1.007825032230
         H           -2.946837254017    -0.812767093255     0.769934255362     1.007825032230
         H           -4.154858254017     1.396337906745     0.741887255362     1.007825032230
         H           -4.237706254017     1.331518906745    -1.025078744638     1.007825032230
         H           -5.115928254017     0.142621906745    -0.052960744638     1.007825032230

  Basis Set: AUG-CC-PVTZ
    Blend: AUG-CC-PVTZ
  Basis Set: (AUG-CC-PVTZ AUX)
    Blend: AUG-CC-PVTZ-JKFIT
	 Reference Energy          =    -746.8622369237012890 [Eh]
	 Singles Energy            =      -0.0000000000000000 [Eh]
	 Same-Spin Energy          =      -0.4278459055937009 [Eh]
	 Opposite-Spin Energy      =      -1.4603718195281805 [Eh]
	 Correlation Energy        =      -1.8882177251218815 [Eh]
	 Total Energy              =    -748.7504546488231654 [Eh]

	 ================> DF-SCS-MP2 Energies <==================
	-----------------------------------------------------------
	 SCS Same-Spin Scale       =       0.3333333333333333 [-]
	 SCS Opposite-Spin Scale   =       1.2000000000000000 [-]
	 SCS Same-Spin Energy      =      -0.1426153018645670 [Eh]
	 SCS Opposite-Spin Energy  =      -1.7524461834338165 [Eh]
	 SCS Correlation Energy    =      -1.8950614852983836 [Eh]
	 SCS Total Energy          =    -748.7572984089996453 [Eh]
	-----------------------------------------------------------

  Dipole Moment: [D]
     X:    -0.0622      Y:     2.8177      Z:    -2.2755     Total:     3.6223

*** Psi4 exiting successfully. Buy a developer a beer!
