                               Psi4 1.4a3.dev225

  ==> Input File <==

--------------------------------------------------------------------------
#psi4
#
memory 32 gb

molecule  {
0 1
  S       -0.2613620    -0.5930190    -0.1424790
  O       -0.2870700    -1.2499240     1.2262220
  C        2.3977240     0.0716980     0.1844310
  C        1.0466279     0.7156952    -0.1205568
  C       -1.6743200     0.5466190    -0.2136450
  C        2.8653030    -0.7972080    -0.9817560
  C        3.4104270     1.1761770     0.4821660
  C       -2.9771600    -0.2389800    -0.1306750
  C       -4.1937400     0.6821530    -0.1120660
  H        2.2947170    -0.5588030     1.0765090
  H        0.7552030     1.3745990     0.7353710
  H        1.0111040     1.2381230    -1.0301620
  H       -1.5863530     1.2355690     0.6350930
  H       -1.6018540     1.1165020    -1.1483330
  H        2.9531350    -0.1978260    -1.8953020
  H        3.8477320    -1.2283710    -0.7670690
  H        2.1762820    -1.6227130    -1.1817050
  H        3.5229730     1.8417250    -0.3809710
  H        4.3924350     0.7485930     0.7071400
  H        3.0997810     1.7802300     1.3402560
  H       -3.0432920    -0.9285740    -0.9804800
  H       -2.9504610    -0.8515990     0.7760110
  H       -4.1584820     1.3575060     0.7479640
  H       -4.2413300     1.2926870    -1.0190020
  H       -5.1195520     0.1037900    -0.0468840
units angstrom
no_reorient  #important for SAPT in psi4, default
symmetry c1  #important for SAPT in psi4, default
}

set PROPERTIES_ORIGIN ["COM"]
properties('MP2/aug-cc-pvtz', properties = ['dipole'])
--------------------------------------------------------------------------

    Molecular point group: c1
  Charge       = 0
  Multiplicity = 1
  Basis Set: AUG-CC-PVTZ
    Blend: AUG-CC-PVTZ
  Basis Set: (AUG-CC-PVTZ AUX)
    Blend: AUG-CC-PVTZ-JKFIT

    Orbital Energies [Eh]
    ---------------------

    Doubly Occupied:

       1A    -92.056719     2A    -20.498782     3A    -11.261382
       4A    -11.259806     5A    -11.238064     6A    -11.233002
       7A    -11.223421     8A    -11.220825     9A    -11.217565
      10A     -9.043939    11A     -6.725519    12A     -6.725302
      13A     -6.724078    14A     -1.316525    15A     -1.109590
      16A     -1.084757    17A     -1.005503    18A     -0.941733
      19A     -0.937289    20A     -0.844905    21A     -0.798947
      22A     -0.776891    23A     -0.664308    24A     -0.649888
      25A     -0.626660    26A     -0.612883    27A     -0.592209
      28A     -0.590859    29A     -0.566387    30A     -0.556814
      31A     -0.544909    32A     -0.531630    33A     -0.512613
      34A     -0.506997    35A     -0.499071    36A     -0.485754
      37A     -0.480782    38A     -0.479259    39A     -0.470575
      40A     -0.401831    41A     -0.356867

  @DF-RHF Final Energy:  -746.88855131507489

   => Energetics <=

    Nuclear Repulsion Energy =            574.6954092125507714
    One-Electron Energy =               -2164.4182350345722625
    Two-Electron Energy =                 842.8342745069467128
    Total Energy =                       -746.8885513150748920
  Basis Set: (AUG-CC-PVTZ AUX)
    Blend: AUG-CC-PVTZ-RI
    Molecular point group: c1

    Geometry (in Angstrom), charge = 0, multiplicity = 1:

       Center              X                  Y                   Z               Mass
    ------------   -----------------  -----------------  -----------------  -----------------
         S           -0.254022084963    -0.550310832027    -0.155323396767    31.972071174400
         O           -0.279730084963    -1.207215832027     1.213377603233    15.994914619570
         C            2.405063915037     0.114406167973     0.171586603233    12.000000000000
         C            1.053967815037     0.758403367973    -0.133401196767    12.000000000000
         C           -1.666980084963     0.589327167973    -0.226489396767    12.000000000000
         C            2.872642915037    -0.754499832027    -0.994600396767    12.000000000000
         C            3.417766915037     1.218885167973     0.469321603233    12.000000000000
         C           -2.969820084963    -0.196271832027    -0.143519396767    12.000000000000
         C           -4.186400084963     0.724861167973    -0.124910396767    12.000000000000
         H            2.302056915037    -0.516094832027     1.063664603233     1.007825032230
         H            0.762542915037     1.417307167973     0.722526603233     1.007825032230
         H            1.018443915037     1.280831167973    -1.043006396767     1.007825032230
         H           -1.579013084963     1.278277167973     0.622248603233     1.007825032230
         H           -1.594514084963     1.159210167973    -1.161177396767     1.007825032230
         H            2.960474915037    -0.155117832027    -1.908146396767     1.007825032230
         H            3.855071915037    -1.185662832027    -0.779913396767     1.007825032230
         H            2.183621915037    -1.580004832027    -1.194549396767     1.007825032230
         H            3.530312915037     1.884433167973    -0.393815396767     1.007825032230
         H            4.399774915037     0.791301167973     0.694295603233     1.007825032230
         H            3.107120915037     1.822938167973     1.327411603233     1.007825032230
         H           -3.035952084963    -0.885865832027    -0.993324396767     1.007825032230
         H           -2.943121084963    -0.808890832027     0.763166603233     1.007825032230
         H           -4.151142084963     1.400214167973     0.735119603233     1.007825032230
         H           -4.233990084963     1.335395167973    -1.031846396767     1.007825032230
         H           -5.112212084963     0.146498167973    -0.059728396767     1.007825032230

  Basis Set: AUG-CC-PVTZ
    Blend: AUG-CC-PVTZ
  Basis Set: (AUG-CC-PVTZ AUX)
    Blend: AUG-CC-PVTZ-JKFIT
	 Reference Energy          =    -746.8885513150748920 [Eh]
	 Singles Energy            =      -0.0000000000000000 [Eh]
	 Same-Spin Energy          =      -0.4273087400211411 [Eh]
	 Opposite-Spin Energy      =      -1.4585695303127499 [Eh]
	 Correlation Energy        =      -1.8858782703338910 [Eh]
	 Total Energy              =    -748.7744295854088250 [Eh]

	 ================> DF-SCS-MP2 Energies <==================
	-----------------------------------------------------------
	 SCS Same-Spin Scale       =       0.3333333333333333 [-]
	 SCS Opposite-Spin Scale   =       1.2000000000000000 [-]
	 SCS Same-Spin Energy      =      -0.1424362466737137 [Eh]
	 SCS Opposite-Spin Energy  =      -1.7502834363752999 [Eh]
	 SCS Correlation Energy    =      -1.8927196830490136 [Eh]
	 SCS Total Energy          =    -748.7812709981238868 [Eh]
	-----------------------------------------------------------

  Dipole Moment: [D]
     X:    -0.0561      Y:     2.8719      Z:    -2.2817     Total:     3.6684

*** Psi4 exiting successfully. Buy a developer a beer!
