                               Psi4 1.4a3.dev225

  ==> Input File <==

--------------------------------------------------------------------------
#psi4
#
memory 32 gb

molecule  {
0 1
  S       -0.2613620    -0.5930190    -0.1424790
  O       -0.3087644    -1.2359544     1.2322626
  C        2.3977240     0.0716980     0.1844310
  C        1.0261530     0.6905850    -0.0782140
  C       -1.6743200     0.5466190    -0.2136450
  C        2.8653030    -0.7972080    -0.9817560
  C        3.4104270     1.1761770     0.4821660
  C       -2.9771600    -0.2389800    -0.1306750
  C       -4.1937400     0.6821530    -0.1120660
  H        2.2947170    -0.5588030     1.0765090
  H        0.7552030     1.3745990     0.7353710
  H        1.0111040     1.2381230    -1.0301620
  H       -1.5863530     1.2355690     0.6350930
  H       -1.6018540     1.1165020    -1.1483330
  H        2.9531350    -0.1978260    -1.8953020
  H        3.8477320    -1.2283710    -0.7670690
  H        2.1762820    -1.6227130    -1.1817050
  H        3.5229730     1.8417250    -0.3809710
  H        4.3924350     0.7485930     0.7071400
  H        3.0997810     1.7802300     1.3402560
  H       -3.0432920    -0.9285740    -0.9804800
  H       -2.9504610    -0.8515990     0.7760110
  H       -4.1584820     1.3575060     0.7479640
  H       -4.2413300     1.2926870    -1.0190020
  H       -5.1195520     0.1037900    -0.0468840
units angstrom
no_reorient  #important for SAPT in psi4, default
symmetry c1  #important for SAPT in psi4, default
}

set PROPERTIES_ORIGIN ["COM"]
properties('MP2/aug-cc-pvtz', properties = ['dipole'])
--------------------------------------------------------------------------

    Molecular point group: c1
  Charge       = 0
  Multiplicity = 1
  Basis Set: AUG-CC-PVTZ
    Blend: AUG-CC-PVTZ
  Basis Set: (AUG-CC-PVTZ AUX)
    Blend: AUG-CC-PVTZ-JKFIT

    Orbital Energies [Eh]
    ---------------------

    Doubly Occupied:

       1A    -92.057738     2A    -20.496914     3A    -11.261220
       4A    -11.259978     5A    -11.238137     6A    -11.232933
       7A    -11.223390     8A    -11.221288     9A    -11.218140
      10A     -9.045199    11A     -6.726790    12A     -6.726606
      13A     -6.725314    14A     -1.317032    15A     -1.109799
      16A     -1.084552    17A     -1.007507    18A     -0.941806
      19A     -0.937524    20A     -0.845514    21A     -0.799936
      22A     -0.773295    23A     -0.664273    24A     -0.649322
      25A     -0.629629    26A     -0.611246    27A     -0.592968
      28A     -0.587869    29A     -0.566318    30A     -0.553867
      31A     -0.545424    32A     -0.533330    33A     -0.513885
      34A     -0.506375    35A     -0.498962    36A     -0.485647
      37A     -0.480189    38A     -0.475692    39A     -0.472899
      40A     -0.403063    41A     -0.359762

  @DF-RHF Final Energy:  -746.89168461911379

   => Energetics <=

    Nuclear Repulsion Energy =            575.3301336334022835
    One-Electron Energy =               -2165.6809720177279814
    Two-Electron Energy =                 843.4591537652119086
    Total Energy =                       -746.8916846191137893
  Basis Set: (AUG-CC-PVTZ AUX)
    Blend: AUG-CC-PVTZ-RI
    Molecular point group: c1

    Geometry (in Angstrom), charge = 0, multiplicity = 1:

       Center              X                  Y                   Z               Mass
    ------------   -----------------  -----------------  -----------------  -----------------
         S           -0.250019855740    -0.549784944452    -0.159406883522    31.972071174400
         O           -0.297422255740    -1.192720344452     1.215334716478    15.994914619570
         C            2.409066144260     0.114932055548     0.167503116478    12.000000000000
         C            1.037495144260     0.733819055548    -0.095141883522    12.000000000000
         C           -1.662977855740     0.589853055548    -0.230572883522    12.000000000000
         C            2.876645144260    -0.753973944452    -0.998683883522    12.000000000000
         C            3.421769144260     1.219411055548     0.465238116478    12.000000000000
         C           -2.965817855740    -0.195745944452    -0.147602883522    12.000000000000
         C           -4.182397855740     0.725387055548    -0.128993883522    12.000000000000
         H            2.306059144260    -0.515568944452     1.059581116478     1.007825032230
         H            0.766545144260     1.417833055548     0.718443116478     1.007825032230
         H            1.022446144260     1.281357055548    -1.047089883522     1.007825032230
         H           -1.575010855740     1.278803055548     0.618165116478     1.007825032230
         H           -1.590511855740     1.159736055548    -1.165260883522     1.007825032230
         H            2.964477144260    -0.154591944452    -1.912229883522     1.007825032230
         H            3.859074144260    -1.185136944452    -0.783996883522     1.007825032230
         H            2.187624144260    -1.579478944452    -1.198632883522     1.007825032230
         H            3.534315144260     1.884959055548    -0.397898883522     1.007825032230
         H            4.403777144260     0.791827055548     0.690212116478     1.007825032230
         H            3.111123144260     1.823464055548     1.323328116478     1.007825032230
         H           -3.031949855740    -0.885339944452    -0.997407883522     1.007825032230
         H           -2.939118855740    -0.808364944452     0.759083116478     1.007825032230
         H           -4.147139855740     1.400740055548     0.731036116478     1.007825032230
         H           -4.229987855740     1.335921055548    -1.035929883522     1.007825032230
         H           -5.108209855740     0.147024055548    -0.063811883522     1.007825032230

  Basis Set: AUG-CC-PVTZ
    Blend: AUG-CC-PVTZ
  Basis Set: (AUG-CC-PVTZ AUX)
    Blend: AUG-CC-PVTZ-JKFIT
	 Reference Energy          =    -746.8916846191137893 [Eh]
	 Singles Energy            =      -0.0000000000000000 [Eh]
	 Same-Spin Energy          =      -0.4272644586175046 [Eh]
	 Opposite-Spin Energy      =      -1.4582451388803179 [Eh]
	 Correlation Energy        =      -1.8855095974978227 [Eh]
	 Total Energy              =    -748.7771942166116332 [Eh]

	 ================> DF-SCS-MP2 Energies <==================
	-----------------------------------------------------------
	 SCS Same-Spin Scale       =       0.3333333333333333 [-]
	 SCS Opposite-Spin Scale   =       1.2000000000000000 [-]
	 SCS Same-Spin Energy      =      -0.1424214862058349 [Eh]
	 SCS Opposite-Spin Energy  =      -1.7498941666563814 [Eh]
	 SCS Correlation Energy    =      -1.8923156528622163 [Eh]
	 SCS Total Energy          =    -748.7840002719759696 [Eh]
	-----------------------------------------------------------

  Dipole Moment: [D]
     X:     0.0047      Y:     2.8610      Z:    -2.2979     Total:     3.6696

*** Psi4 exiting successfully. Buy a developer a beer!
