                               Psi4 1.4a3.dev225

  ==> Input File <==

--------------------------------------------------------------------------
#psi4
#
memory 32 gb

molecule  {
0 1
  S       -0.2613620    -0.5930190    -0.1424790
  O       -0.3737347    -1.1928880     1.2478652
  C        2.3977240     0.0716980     0.1844310
  C        1.0261530     0.6905850    -0.0782140
  C       -1.6743200     0.5466190    -0.2136450
  C        2.8653030    -0.7972080    -0.9817560
  C        3.4104270     1.1761770     0.4821660
  C       -2.9771600    -0.2389800    -0.1306750
  C       -4.1937400     0.6821530    -0.1120660
  H        2.2947170    -0.5588030     1.0765090
  H        0.7552030     1.3745990     0.7353710
  H        1.0111040     1.2381230    -1.0301620
  H       -1.5863530     1.2355690     0.6350930
  H       -1.6018540     1.1165020    -1.1483330
  H        2.9531350    -0.1978260    -1.8953020
  H        3.8477320    -1.2283710    -0.7670690
  H        2.1762820    -1.6227130    -1.1817050
  H        3.5229730     1.8417250    -0.3809710
  H        4.3924350     0.7485930     0.7071400
  H        3.0997810     1.7802300     1.3402560
  H       -3.0432920    -0.9285740    -0.9804800
  H       -2.9504610    -0.8515990     0.7760110
  H       -4.1584820     1.3575060     0.7479640
  H       -4.2413300     1.2926870    -1.0190020
  H       -5.1195520     0.1037900    -0.0468840
units angstrom
no_reorient  #important for SAPT in psi4, default
symmetry c1  #important for SAPT in psi4, default
}

set PROPERTIES_ORIGIN ["COM"]
properties('MP2/aug-cc-pvtz', properties = ['dipole'])
--------------------------------------------------------------------------

    Molecular point group: c1
  Charge       = 0
  Multiplicity = 1
  Basis Set: AUG-CC-PVTZ
    Blend: AUG-CC-PVTZ
  Basis Set: (AUG-CC-PVTZ AUX)
    Blend: AUG-CC-PVTZ-JKFIT

    Orbital Energies [Eh]
    ---------------------

    Doubly Occupied:

       1A    -92.058135     2A    -20.495219     3A    -11.260410
       4A    -11.259684     5A    -11.239292     6A    -11.231252
       7A    -11.222277     8A    -11.221972     9A    -11.219143
      10A     -9.045626    11A     -6.727192    12A     -6.727020
      13A     -6.725710    14A     -1.316883    15A     -1.110313
      16A     -1.082881    17A     -1.007050    18A     -0.941354
      19A     -0.938416    20A     -0.845142    21A     -0.799149
      22A     -0.774338    23A     -0.663643    24A     -0.649128
      25A     -0.629421    26A     -0.611678    27A     -0.592865
      28A     -0.587597    29A     -0.566030    30A     -0.552707
      31A     -0.546146    32A     -0.533702    33A     -0.513434
      34A     -0.506183    35A     -0.497587    36A     -0.484442
      37A     -0.480464    38A     -0.475767    39A     -0.473807
      40A     -0.401662    41A     -0.360913

  @DF-RHF Final Energy:  -746.89112064534379

   => Energetics <=

    Nuclear Repulsion Energy =            575.5404753879861346
    One-Electron Energy =               -2166.1119211066802563
    Two-Electron Energy =                 843.6803250733503319
    Total Energy =                       -746.8911206453437899
  Basis Set: (AUG-CC-PVTZ AUX)
    Blend: AUG-CC-PVTZ-RI
    Molecular point group: c1

    Geometry (in Angstrom), charge = 0, multiplicity = 1:

       Center              X                  Y                   Z               Mass
    ------------   -----------------  -----------------  -----------------  -----------------
         S           -0.243002642832    -0.554436394391    -0.161092065307    31.972071174400
         O           -0.355375342832    -1.154305394391     1.229252134693    15.994914619570
         C            2.416083357168     0.110280605609     0.165817934693    12.000000000000
         C            1.044512357168     0.729167605609    -0.096827065307    12.000000000000
         C           -1.655960642832     0.585201605609    -0.232258065307    12.000000000000
         C            2.883662357168    -0.758625394391    -1.000369065307    12.000000000000
         C            3.428786357168     1.214759605609     0.463552934693    12.000000000000
         C           -2.958800642832    -0.200397394391    -0.149288065307    12.000000000000
         C           -4.175380642832     0.720735605609    -0.130679065307    12.000000000000
         H            2.313076357168    -0.520220394391     1.057895934693     1.007825032230
         H            0.773562357168     1.413181605609     0.716757934693     1.007825032230
         H            1.029463357168     1.276705605609    -1.048775065307     1.007825032230
         H           -1.567993642832     1.274151605609     0.616479934693     1.007825032230
         H           -1.583494642832     1.155084605609    -1.166946065307     1.007825032230
         H            2.971494357168    -0.159243394391    -1.913915065307     1.007825032230
         H            3.866091357168    -1.189788394391    -0.785682065307     1.007825032230
         H            2.194641357168    -1.584130394391    -1.200318065307     1.007825032230
         H            3.541332357168     1.880307605609    -0.399584065307     1.007825032230
         H            4.410794357168     0.787175605609     0.688526934693     1.007825032230
         H            3.118140357168     1.818812605609     1.321642934693     1.007825032230
         H           -3.024932642832    -0.889991394391    -0.999093065307     1.007825032230
         H           -2.932101642832    -0.813016394391     0.757397934693     1.007825032230
         H           -4.140122642832     1.396088605609     0.729350934693     1.007825032230
         H           -4.222970642832     1.331269605609    -1.037615065307     1.007825032230
         H           -5.101192642832     0.142372605609    -0.065497065307     1.007825032230

  Basis Set: AUG-CC-PVTZ
    Blend: AUG-CC-PVTZ
  Basis Set: (AUG-CC-PVTZ AUX)
    Blend: AUG-CC-PVTZ-JKFIT
	 Reference Energy          =    -746.8911206453437899 [Eh]
	 Singles Energy            =      -0.0000000000000000 [Eh]
	 Same-Spin Energy          =      -0.4273023699676060 [Eh]
	 Opposite-Spin Energy      =      -1.4583191950579830 [Eh]
	 Correlation Energy        =      -1.8856215650255890 [Eh]
	 Total Energy              =    -748.7767422103694344 [Eh]

	 ================> DF-SCS-MP2 Energies <==================
	-----------------------------------------------------------
	 SCS Same-Spin Scale       =       0.3333333333333333 [-]
	 SCS Opposite-Spin Scale   =       1.2000000000000000 [-]
	 SCS Same-Spin Energy      =      -0.1424341233225353 [Eh]
	 SCS Opposite-Spin Energy  =      -1.7499830340695797 [Eh]
	 SCS Correlation Energy    =      -1.8924171573921149 [Eh]
	 SCS Total Energy          =    -748.7835378027358502 [Eh]
	-----------------------------------------------------------

  Dipole Moment: [D]
     X:     0.1790      Y:     2.7800      Z:    -2.3510     Total:     3.6452

*** Psi4 exiting successfully. Buy a developer a beer!
