                               Psi4 1.4a3.dev225

  ==> Input File <==

--------------------------------------------------------------------------
#psi4
#
memory 32 gb

molecule  {
0 1
  S       -0.2613620    -0.5930190    -0.1424790
  O       -0.2870700    -1.2499240     1.2262220
  C        2.3977240     0.0716980     0.1844310
  C        1.0261530     0.6905850    -0.0782140
  C       -1.7025918     0.5916618    -0.2140534
  C        2.8653030    -0.7972080    -0.9817560
  C        3.4104270     1.1761770     0.4821660
  C       -2.9771600    -0.2389800    -0.1306750
  C       -4.1937400     0.6821530    -0.1120660
  H        2.2947170    -0.5588030     1.0765090
  H        0.7552030     1.3745990     0.7353710
  H        1.0111040     1.2381230    -1.0301620
  H       -1.5863530     1.2355690     0.6350930
  H       -1.6018540     1.1165020    -1.1483330
  H        2.9531350    -0.1978260    -1.8953020
  H        3.8477320    -1.2283710    -0.7670690
  H        2.1762820    -1.6227130    -1.1817050
  H        3.5229730     1.8417250    -0.3809710
  H        4.3924350     0.7485930     0.7071400
  H        3.0997810     1.7802300     1.3402560
  H       -3.0432920    -0.9285740    -0.9804800
  H       -2.9504610    -0.8515990     0.7760110
  H       -4.1584820     1.3575060     0.7479640
  H       -4.2413300     1.2926870    -1.0190020
  H       -5.1195520     0.1037900    -0.0468840
units angstrom
no_reorient  #important for SAPT in psi4, default
symmetry c1  #important for SAPT in psi4, default
}

set PROPERTIES_ORIGIN ["COM"]
properties('MP2/aug-cc-pvtz', properties = ['dipole'])
--------------------------------------------------------------------------

    Molecular point group: c1
  Charge       = 0
  Multiplicity = 1
  Basis Set: AUG-CC-PVTZ
    Blend: AUG-CC-PVTZ
  Basis Set: (AUG-CC-PVTZ AUX)
    Blend: AUG-CC-PVTZ-JKFIT

    Orbital Energies [Eh]
    ---------------------

    Doubly Occupied:

       1A    -92.056488     2A    -20.497645     3A    -11.261051
       4A    -11.259185     5A    -11.237202     6A    -11.233539
       7A    -11.222991     8A    -11.220669     9A    -11.217484
      10A     -9.043596    11A     -6.725114    12A     -6.724914
      13A     -6.723680    14A     -1.315675    15A     -1.108502
      16A     -1.084529    17A     -1.004734    18A     -0.940911
      19A     -0.936874    20A     -0.842903    21A     -0.804719
      22A     -0.772004    23A     -0.667503    24A     -0.649450
      25A     -0.627021    26A     -0.610097    27A     -0.593171
      28A     -0.588278    29A     -0.567738    30A     -0.555363
      31A     -0.544852    32A     -0.532662    33A     -0.511704
      34A     -0.506714    35A     -0.502187    36A     -0.489507
      37A     -0.479669    38A     -0.475243    39A     -0.471897
      40A     -0.398305    41A     -0.357437

  @DF-RHF Final Energy:  -746.88955863929903

   => Energetics <=

    Nuclear Repulsion Energy =            574.4037285918855105
    One-Electron Energy =               -2163.8601636555667938
    Two-Electron Energy =                 842.5668764243822579
    Total Energy =                       -746.8895586392990253
  Basis Set: (AUG-CC-PVTZ AUX)
    Blend: AUG-CC-PVTZ-RI
    Molecular point group: c1

    Geometry (in Angstrom), charge = 0, multiplicity = 1:

       Center              X                  Y                   Z               Mass
    ------------   -----------------  -----------------  -----------------  -----------------
         S           -0.250072110190    -0.551925982738    -0.158721366725    31.972071174400
         O           -0.275780110190    -1.208830982738     1.209979633275    15.994914619570
         C            2.409013889810     0.112791017262     0.168188633275    12.000000000000
         C            1.037442889810     0.731678017262    -0.094456366725    12.000000000000
         C           -1.691301910190     0.632754817262    -0.230295766725    12.000000000000
         C            2.876592889810    -0.756114982738    -0.997998366725    12.000000000000
         C            3.421716889810     1.217270017262     0.465923633275    12.000000000000
         C           -2.965870110190    -0.197886982738    -0.146917366725    12.000000000000
         C           -4.182450110190     0.723246017262    -0.128308366725    12.000000000000
         H            2.306006889810    -0.517709982738     1.060266633275     1.007825032230
         H            0.766492889810     1.415692017262     0.719128633275     1.007825032230
         H            1.022393889810     1.279216017262    -1.046404366725     1.007825032230
         H           -1.575063110190     1.276662017262     0.618850633275     1.007825032230
         H           -1.590564110190     1.157595017262    -1.164575366725     1.007825032230
         H            2.964424889810    -0.156732982738    -1.911544366725     1.007825032230
         H            3.859021889810    -1.187277982738    -0.783311366725     1.007825032230
         H            2.187571889810    -1.581619982738    -1.197947366725     1.007825032230
         H            3.534262889810     1.882818017262    -0.397213366725     1.007825032230
         H            4.403724889810     0.789686017262     0.690897633275     1.007825032230
         H            3.111070889810     1.821323017262     1.324013633275     1.007825032230
         H           -3.032002110190    -0.887480982738    -0.996722366725     1.007825032230
         H           -2.939171110190    -0.810505982738     0.759768633275     1.007825032230
         H           -4.147192110190     1.398599017262     0.731721633275     1.007825032230
         H           -4.230040110190     1.333780017262    -1.035244366725     1.007825032230
         H           -5.108262110190     0.144883017262    -0.063126366725     1.007825032230

  Basis Set: AUG-CC-PVTZ
    Blend: AUG-CC-PVTZ
  Basis Set: (AUG-CC-PVTZ AUX)
    Blend: AUG-CC-PVTZ-JKFIT
	 Reference Energy          =    -746.8895586392990253 [Eh]
	 Singles Energy            =      -0.0000000000000000 [Eh]
	 Same-Spin Energy          =      -0.4272791882717270 [Eh]
	 Opposite-Spin Energy      =      -1.4586713825288298 [Eh]
	 Correlation Energy        =      -1.8859505708005568 [Eh]
	 Total Energy              =    -748.7755092100995853 [Eh]

	 ================> DF-SCS-MP2 Energies <==================
	-----------------------------------------------------------
	 SCS Same-Spin Scale       =       0.3333333333333333 [-]
	 SCS Opposite-Spin Scale   =       1.2000000000000000 [-]
	 SCS Same-Spin Energy      =      -0.1424263960905756 [Eh]
	 SCS Opposite-Spin Energy  =      -1.7504056590345958 [Eh]
	 SCS Correlation Energy    =      -1.8928320551251714 [Eh]
	 SCS Total Energy          =    -748.7823906944241799 [Eh]
	-----------------------------------------------------------

  Dipole Moment: [D]
     X:    -0.0325      Y:     2.8569      Z:    -2.2644     Total:     3.6456

*** Psi4 exiting successfully. Buy a developer a beer!
