                               Psi4 1.4a3.dev225

  ==> Input File <==

--------------------------------------------------------------------------
#psi4
#
memory 32 gb

molecule  {
0 1
  S       -0.2613620    -0.5930190    -0.1424790
  O       -0.2870700    -1.2499240     1.2262220
  C        2.3977240     0.0716980     0.1844310
  C        1.0261530     0.6905850    -0.0782140
  C       -1.6743200     0.5466190    -0.2136450
  C        2.8653030    -0.7972080    -0.9817560
  C        3.4104270     1.1761770     0.4821660
  C       -2.9841460    -0.2294608    -0.1545018
  C       -4.1937400     0.6821530    -0.1120660
  H        2.2947170    -0.5588030     1.0765090
  H        0.7552030     1.3745990     0.7353710
  H        1.0111040     1.2381230    -1.0301620
  H       -1.5863530     1.2355690     0.6350930
  H       -1.6018540     1.1165020    -1.1483330
  H        2.9531350    -0.1978260    -1.8953020
  H        3.8477320    -1.2283710    -0.7670690
  H        2.1762820    -1.6227130    -1.1817050
  H        3.5229730     1.8417250    -0.3809710
  H        4.3924350     0.7485930     0.7071400
  H        3.0997810     1.7802300     1.3402560
  H       -3.0432920    -0.9285740    -0.9804800
  H       -2.9504610    -0.8515990     0.7760110
  H       -4.1584820     1.3575060     0.7479640
  H       -4.2413300     1.2926870    -1.0190020
  H       -5.1195520     0.1037900    -0.0468840
units angstrom
no_reorient  #important for SAPT in psi4, default
symmetry c1  #important for SAPT in psi4, default
}

set PROPERTIES_ORIGIN ["COM"]
properties('MP2/aug-cc-pvtz', properties = ['dipole'])
--------------------------------------------------------------------------

    Molecular point group: c1
  Charge       = 0
  Multiplicity = 1
  Basis Set: AUG-CC-PVTZ
    Blend: AUG-CC-PVTZ
  Basis Set: (AUG-CC-PVTZ AUX)
    Blend: AUG-CC-PVTZ-JKFIT

    Orbital Energies [Eh]
    ---------------------

    Doubly Occupied:

       1A    -92.057845     2A    -20.497418     3A    -11.261702
       4A    -11.259994     5A    -11.237849     6A    -11.233830
       7A    -11.223373     8A    -11.221130     9A    -11.217862
      10A     -9.045270    11A     -6.726867    12A     -6.726689
      13A     -6.725400    14A     -1.317062    15A     -1.109767
      16A     -1.085708    17A     -1.008481    18A     -0.942548
      19A     -0.937289    20A     -0.845256    21A     -0.799577
      22A     -0.773019    23A     -0.663902    24A     -0.649383
      25A     -0.630427    26A     -0.610864    27A     -0.593026
      28A     -0.588924    29A     -0.565867    30A     -0.554901
      31A     -0.545332    32A     -0.533796    33A     -0.515489
      34A     -0.506708    35A     -0.501142    36A     -0.481291
      37A     -0.478796    38A     -0.476025    39A     -0.472585
      40A     -0.403830    41A     -0.359385

  @DF-RHF Final Energy:  -746.89075139032343

   => Energetics <=

    Nuclear Repulsion Energy =            575.2290841229909120
    One-Electron Energy =               -2165.4684541540409555
    Two-Electron Energy =                 843.3486186407264995
    Total Energy =                       -746.8907513903234303
  Basis Set: (AUG-CC-PVTZ AUX)
    Blend: AUG-CC-PVTZ-RI
    Molecular point group: c1

    Geometry (in Angstrom), charge = 0, multiplicity = 1:

       Center              X                  Y                   Z               Mass
    ------------   -----------------  -----------------  -----------------  -----------------
         S           -0.251796911520    -0.549047483807    -0.156823759518    31.972071174400
         O           -0.277504911520    -1.205952483807     1.211877240482    15.994914619570
         C            2.407289088480     0.115669516193     0.170086240482    12.000000000000
         C            1.035718088480     0.734556516193    -0.092558759518    12.000000000000
         C           -1.664754911520     0.590590516193    -0.227989759518    12.000000000000
         C            2.874868088480    -0.753236483807    -0.996100759518    12.000000000000
         C            3.419992088480     1.220148516193     0.467821240482    12.000000000000
         C           -2.974580911520    -0.185489283807    -0.168846559518    12.000000000000
         C           -4.184174911520     0.726124516193    -0.126410759518    12.000000000000
         H            2.304282088480    -0.514831483807     1.062164240482     1.007825032230
         H            0.764768088480     1.418570516193     0.721026240482     1.007825032230
         H            1.020669088480     1.282094516193    -1.044506759518     1.007825032230
         H           -1.576787911520     1.279540516193     0.620748240482     1.007825032230
         H           -1.592288911520     1.160473516193    -1.162677759518     1.007825032230
         H            2.962700088480    -0.153854483807    -1.909646759518     1.007825032230
         H            3.857297088480    -1.184399483807    -0.781413759518     1.007825032230
         H            2.185847088480    -1.578741483807    -1.196049759518     1.007825032230
         H            3.532538088480     1.885696516193    -0.395315759518     1.007825032230
         H            4.402000088480     0.792564516193     0.692795240482     1.007825032230
         H            3.109346088480     1.824201516193     1.325911240482     1.007825032230
         H           -3.033726911520    -0.884602483807    -0.994824759518     1.007825032230
         H           -2.940895911520    -0.807627483807     0.761666240482     1.007825032230
         H           -4.148916911520     1.401477516193     0.733619240482     1.007825032230
         H           -4.231764911520     1.336658516193    -1.033346759518     1.007825032230
         H           -5.109986911520     0.147761516193    -0.061228759518     1.007825032230

  Basis Set: AUG-CC-PVTZ
    Blend: AUG-CC-PVTZ
  Basis Set: (AUG-CC-PVTZ AUX)
    Blend: AUG-CC-PVTZ-JKFIT
	 Reference Energy          =    -746.8907513903234303 [Eh]
	 Singles Energy            =      -0.0000000000000000 [Eh]
	 Same-Spin Energy          =      -0.4273406673914507 [Eh]
	 Opposite-Spin Energy      =      -1.4583411094009926 [Eh]
	 Correlation Energy        =      -1.8856817767924432 [Eh]
	 Total Energy              =    -748.7764331671158970 [Eh]

	 ================> DF-SCS-MP2 Energies <==================
	-----------------------------------------------------------
	 SCS Same-Spin Scale       =       0.3333333333333333 [-]
	 SCS Opposite-Spin Scale   =       1.2000000000000000 [-]
	 SCS Same-Spin Energy      =      -0.1424468891304836 [Eh]
	 SCS Opposite-Spin Energy  =      -1.7500093312811911 [Eh]
	 SCS Correlation Energy    =      -1.8924562204116746 [Eh]
	 SCS Total Energy          =    -748.7832076107350758 [Eh]
	-----------------------------------------------------------

  Dipole Moment: [D]
     X:    -0.0461      Y:     2.8858      Z:    -2.2845     Total:     3.6809

*** Psi4 exiting successfully. Buy a developer a beer!
