                               Psi4 1.4a3.dev225

  ==> Input File <==

--------------------------------------------------------------------------
#psi4
#
memory 32 gb

molecule  {
0 1
  S       -0.2613620    -0.5930190    -0.1424790
  O       -0.2870700    -1.2499240     1.2262220
  C        2.3977240     0.0716980     0.1844310
  C        1.0261530     0.6905850    -0.0782140
  C       -1.6743200     0.5466190    -0.2136450
  C        2.8653030    -0.7972080    -0.9817560
  C        3.4104270     1.1761770     0.4821660
  C       -2.9771600    -0.2389800    -0.1306750
  C       -4.1937400     0.6821530    -0.1120660
  H        2.2947170    -0.5588030     1.0765090
  H        0.7552030     1.3745990     0.7353710
  H        1.0111040     1.2381230    -1.0301620
  H       -1.5863530     1.2355690     0.6350930
  H       -1.6018540     1.1165020    -1.1483330
  H        2.9531350    -0.1978260    -1.8953020
  H        3.8477320    -1.2283710    -0.7670690
  H        2.1762820    -1.6227130    -1.1817050
  H        3.5229730     1.8417250    -0.3809710
  H        4.3920959     0.7315367     0.6729599
  H        3.0997810     1.7802300     1.3402560
  H       -3.0432920    -0.9285740    -0.9804800
  H       -2.9504610    -0.8515990     0.7760110
  H       -4.1584820     1.3575060     0.7479640
  H       -4.2413300     1.2926870    -1.0190020
  H       -5.1195520     0.1037900    -0.0468840
units angstrom
no_reorient  #important for SAPT in psi4, default
symmetry c1  #important for SAPT in psi4, default
}

set PROPERTIES_ORIGIN ["COM"]
properties('MP2/aug-cc-pvtz', properties = ['dipole'])
--------------------------------------------------------------------------

    Molecular point group: c1
  Charge       = 0
  Multiplicity = 1
  Basis Set: AUG-CC-PVTZ
    Blend: AUG-CC-PVTZ
  Basis Set: (AUG-CC-PVTZ AUX)
    Blend: AUG-CC-PVTZ-JKFIT

    Orbital Energies [Eh]
    ---------------------

    Doubly Occupied:

       1A    -92.057503     2A    -20.497412     3A    -11.261684
       4A    -11.259734     5A    -11.237557     6A    -11.233436
       7A    -11.223724     8A    -11.221136     9A    -11.217901
      10A     -9.044966    11A     -6.726564    12A     -6.726375
      13A     -6.725091    14A     -1.317061    15A     -1.109696
      16A     -1.085062    17A     -1.007716    18A     -0.941983
      19A     -0.937104    20A     -0.845597    21A     -0.800119
      22A     -0.772866    23A     -0.664390    24A     -0.648930
      25A     -0.629610    26A     -0.612240    27A     -0.593355
      28A     -0.587666    29A     -0.566302    30A     -0.554200
      31A     -0.544887    32A     -0.533530    33A     -0.514029
      34A     -0.506472    35A     -0.499394    36A     -0.486027
      37A     -0.480307    38A     -0.475290    39A     -0.472591
      40A     -0.403291    41A     -0.359304

  @DF-RHF Final Energy:  -746.89148852226811

   => Energetics <=

    Nuclear Repulsion Energy =            575.3066573479530916
    One-Electron Energy =               -2165.6320896128231652
    Two-Electron Energy =                 843.4339437426018549
    Total Energy =                       -746.8914885222681050
  Basis Set: (AUG-CC-PVTZ AUX)
    Blend: AUG-CC-PVTZ-RI
    Molecular point group: c1

    Geometry (in Angstrom), charge = 0, multiplicity = 1:

       Center              X                  Y                   Z               Mass
    ------------   -----------------  -----------------  -----------------  -----------------
         S           -0.252360683645    -0.548160062469    -0.158521850727    31.972071174400
         O           -0.278068683645    -1.205065062469     1.210179149273    15.994914619570
         C            2.406725316355     0.116556937531     0.168388149273    12.000000000000
         C            1.035154316355     0.735443937531    -0.094256850727    12.000000000000
         C           -1.665318683645     0.591477937531    -0.229687850727    12.000000000000
         C            2.874304316355    -0.752349062469    -0.997798850727    12.000000000000
         C            3.419428316355     1.221035937531     0.466123149273    12.000000000000
         C           -2.968158683645    -0.194121062469    -0.146717850727    12.000000000000
         C           -4.184738683645     0.727011937531    -0.128108850727    12.000000000000
         H            2.303718316355    -0.513944062469     1.060466149273     1.007825032230
         H            0.764204316355     1.419457937531     0.719328149273     1.007825032230
         H            1.020105316355     1.282981937531    -1.046204850727     1.007825032230
         H           -1.577351683645     1.280427937531     0.619050149273     1.007825032230
         H           -1.592852683645     1.161360937531    -1.164375850727     1.007825032230
         H            2.962136316355    -0.152967062469    -1.911344850727     1.007825032230
         H            3.856733316355    -1.183512062469    -0.783111850727     1.007825032230
         H            2.185283316355    -1.577854062469    -1.197747850727     1.007825032230
         H            3.531974316355     1.886583937531    -0.397013850727     1.007825032230
         H            4.401097216355     0.776395637531     0.656917049273     1.007825032230
         H            3.108782316355     1.825088937531     1.324213149273     1.007825032230
         H           -3.034290683645    -0.883715062469    -0.996522850727     1.007825032230
         H           -2.941459683645    -0.806740062469     0.759968149273     1.007825032230
         H           -4.149480683645     1.402364937531     0.731921149273     1.007825032230
         H           -4.232328683645     1.337545937531    -1.035044850727     1.007825032230
         H           -5.110550683645     0.148648937531    -0.062926850727     1.007825032230

  Basis Set: AUG-CC-PVTZ
    Blend: AUG-CC-PVTZ
  Basis Set: (AUG-CC-PVTZ AUX)
    Blend: AUG-CC-PVTZ-JKFIT
	 Reference Energy          =    -746.8914885222681050 [Eh]
	 Singles Energy            =      -0.0000000000000000 [Eh]
	 Same-Spin Energy          =      -0.4272893448841669 [Eh]
	 Opposite-Spin Energy      =      -1.4582856842036722 [Eh]
	 Correlation Energy        =      -1.8855750290878390 [Eh]
	 Total Energy              =    -748.7770635513559228 [Eh]

	 ================> DF-SCS-MP2 Energies <==================
	-----------------------------------------------------------
	 SCS Same-Spin Scale       =       0.3333333333333333 [-]
	 SCS Opposite-Spin Scale   =       1.2000000000000000 [-]
	 SCS Same-Spin Energy      =      -0.1424297816280556 [Eh]
	 SCS Opposite-Spin Energy  =      -1.7499428210444066 [Eh]
	 SCS Correlation Energy    =      -1.8923726026724621 [Eh]
	 SCS Total Energy          =    -748.7838611249405858 [Eh]
	-----------------------------------------------------------

  Dipole Moment: [D]
     X:    -0.0519      Y:     2.8848      Z:    -2.2899     Total:     3.6835

*** Psi4 exiting successfully. Buy a developer a beer!
