                               Psi4 1.4a3.dev225

  ==> Input File <==

--------------------------------------------------------------------------
#psi4
#
memory 32 gb

molecule  {
0 1
  S       -0.2613620    -0.5930190    -0.1424790
  O       -0.2870700    -1.2499240     1.2262220
  C        2.3977240     0.0716980     0.1844310
  C        1.0261530     0.6905850    -0.0782140
  C       -1.6882596     0.5692635    -0.2138619
  C        2.8653030    -0.7972080    -0.9817560
  C        3.4104270     1.1761770     0.4821660
  C       -2.9771600    -0.2389800    -0.1306750
  C       -4.1937400     0.6821530    -0.1120660
  H        2.2947170    -0.5588030     1.0765090
  H        0.7552030     1.3745990     0.7353710
  H        1.0111040     1.2381230    -1.0301620
  H       -1.5863530     1.2355690     0.6350930
  H       -1.6018540     1.1165020    -1.1483330
  H        2.9531350    -0.1978260    -1.8953020
  H        3.8477320    -1.2283710    -0.7670690
  H        2.1762820    -1.6227130    -1.1817050
  H        3.5229730     1.8417250    -0.3809710
  H        4.3924350     0.7485930     0.7071400
  H        3.0997810     1.7802300     1.3402560
  H       -3.0432920    -0.9285740    -0.9804800
  H       -2.9504610    -0.8515990     0.7760110
  H       -4.1584820     1.3575060     0.7479640
  H       -4.2413300     1.2926870    -1.0190020
  H       -5.1195520     0.1037900    -0.0468840
units angstrom
no_reorient  #important for SAPT in psi4, default
symmetry c1  #important for SAPT in psi4, default
}

set PROPERTIES_ORIGIN ["COM"]
properties('MP2/aug-cc-pvtz', properties = ['dipole'])
--------------------------------------------------------------------------

    Molecular point group: c1
  Charge       = 0
  Multiplicity = 1
  Basis Set: AUG-CC-PVTZ
    Blend: AUG-CC-PVTZ
  Basis Set: (AUG-CC-PVTZ AUX)
    Blend: AUG-CC-PVTZ-JKFIT

    Orbital Energies [Eh]
    ---------------------

    Doubly Occupied:

       1A    -92.057108     2A    -20.497577     3A    -11.261277
       4A    -11.259513     5A    -11.237482     6A    -11.233450
       7A    -11.223336     8A    -11.220868     9A    -11.217651
      10A     -9.044371    11A     -6.725924    12A     -6.725738
      13A     -6.724476    14A     -1.316391    15A     -1.109057
      16A     -1.084721    17A     -1.006164    18A     -0.941382
      19A     -0.937055    20A     -0.844230    21A     -0.802505
      22A     -0.772483    23A     -0.665839    24A     -0.649382
      25A     -0.628350    26A     -0.610611    27A     -0.592978
      28A     -0.588148    29A     -0.567006    30A     -0.554909
      31A     -0.545024    32A     -0.532919    33A     -0.512809
      34A     -0.506616    35A     -0.500804    36A     -0.487923
      37A     -0.479869    38A     -0.475501    39A     -0.472229
      40A     -0.400926    41A     -0.358535

  @DF-RHF Final Energy:  -746.89114544453992

   => Energetics <=

    Nuclear Repulsion Energy =            574.8355259760377294
    One-Electron Energy =               -2164.7070736945424869
    Two-Electron Energy =                 842.9804022739647280
    Total Energy =                       -746.8911454445399158
  Basis Set: (AUG-CC-PVTZ AUX)
    Blend: AUG-CC-PVTZ-RI
    Molecular point group: c1

    Geometry (in Angstrom), charge = 0, multiplicity = 1:

       Center              X                  Y                   Z               Mass
    ------------   -----------------  -----------------  -----------------  -----------------
         S           -0.251233457080    -0.550111034855    -0.158736884086    31.972071174400
         O           -0.276941457080    -1.207016034855     1.209964115914    15.994914619570
         C            2.407852542920     0.114605965145     0.168173115914    12.000000000000
         C            1.036281542920     0.733492965145    -0.094471884086    12.000000000000
         C           -1.678131057080     0.612171465145    -0.230119784086    12.000000000000
         C            2.875431542920    -0.754300034855    -0.998013884086    12.000000000000
         C            3.420555542920     1.219084965145     0.465908115914    12.000000000000
         C           -2.967031457080    -0.196072034855    -0.146932884086    12.000000000000
         C           -4.183611457080     0.725060965145    -0.128323884086    12.000000000000
         H            2.304845542920    -0.515895034855     1.060251115914     1.007825032230
         H            0.765331542920     1.417506965145     0.719113115914     1.007825032230
         H            1.021232542920     1.281030965145    -1.046419884086     1.007825032230
         H           -1.576224457080     1.278476965145     0.618835115914     1.007825032230
         H           -1.591725457080     1.159409965145    -1.164590884086     1.007825032230
         H            2.963263542920    -0.154918034855    -1.911559884086     1.007825032230
         H            3.857860542920    -1.185463034855    -0.783326884086     1.007825032230
         H            2.186410542920    -1.579805034855    -1.197962884086     1.007825032230
         H            3.533101542920     1.884632965145    -0.397228884086     1.007825032230
         H            4.402563542920     0.791500965145     0.690882115914     1.007825032230
         H            3.109909542920     1.823137965145     1.323998115914     1.007825032230
         H           -3.033163457080    -0.885666034855    -0.996737884086     1.007825032230
         H           -2.940332457080    -0.808691034855     0.759753115914     1.007825032230
         H           -4.148353457080     1.400413965145     0.731706115914     1.007825032230
         H           -4.231201457080     1.335594965145    -1.035259884086     1.007825032230
         H           -5.109423457080     0.146697965145    -0.063141884086     1.007825032230

  Basis Set: AUG-CC-PVTZ
    Blend: AUG-CC-PVTZ
  Basis Set: (AUG-CC-PVTZ AUX)
    Blend: AUG-CC-PVTZ-JKFIT
	 Reference Energy          =    -746.8911454445399158 [Eh]
	 Singles Energy            =      -0.0000000000000000 [Eh]
	 Same-Spin Energy          =      -0.4272452415416571 [Eh]
	 Opposite-Spin Energy      =      -1.4584101073141520 [Eh]
	 Correlation Energy        =      -1.8856553488558090 [Eh]
	 Total Energy              =    -748.7768007933957506 [Eh]

	 ================> DF-SCS-MP2 Energies <==================
	-----------------------------------------------------------
	 SCS Same-Spin Scale       =       0.3333333333333333 [-]
	 SCS Opposite-Spin Scale   =       1.2000000000000000 [-]
	 SCS Same-Spin Energy      =      -0.1424150805138857 [Eh]
	 SCS Opposite-Spin Energy  =      -1.7500921287769824 [Eh]
	 SCS Correlation Energy    =      -1.8925072092908681 [Eh]
	 SCS Total Energy          =    -748.7836526538308135 [Eh]
	-----------------------------------------------------------

  Dipole Moment: [D]
     X:    -0.0420      Y:     2.8717      Z:    -2.2711     Total:     3.6615

*** Psi4 exiting successfully. Buy a developer a beer!
