                               Psi4 1.4a3.dev225

  ==> Input File <==

--------------------------------------------------------------------------
#psi4
#
memory 32 gb

molecule  {
0 1
  S       -0.2613620    -0.5930190    -0.1424790
  O       -0.2870700    -1.2499240     1.2262220
  C        2.3977240     0.0716980     0.1844310
  C        1.0261530     0.6905850    -0.0782140
  C       -1.6743200     0.5466190    -0.2136450
  C        2.8653030    -0.7972080    -0.9817560
  C        3.4104270     1.1761770     0.4821660
  C       -2.9771600    -0.2389800    -0.1306750
  C       -4.1937400     0.6821530    -0.1120660
  H        2.2947170    -0.5588030     1.0765090
  H        0.7552030     1.3745990     0.7353710
  H        1.0111040     1.2381230    -1.0301620
  H       -1.5863530     1.2355690     0.6350930
  H       -1.6018540     1.1165020    -1.1483330
  H        2.9451222    -0.2525068    -1.8119605
  H        3.8477320    -1.2283710    -0.7670690
  H        2.1762820    -1.6227130    -1.1817050
  H        3.5229730     1.8417250    -0.3809710
  H        4.3924350     0.7485930     0.7071400
  H        3.0997810     1.7802300     1.3402560
  H       -3.0432920    -0.9285740    -0.9804800
  H       -2.9504610    -0.8515990     0.7760110
  H       -4.1584820     1.3575060     0.7479640
  H       -4.2413300     1.2926870    -1.0190020
  H       -5.1195520     0.1037900    -0.0468840
units angstrom
no_reorient  #important for SAPT in psi4, default
symmetry c1  #important for SAPT in psi4, default
}

set PROPERTIES_ORIGIN ["COM"]
properties('MP2/aug-cc-pvtz', properties = ['dipole'])
--------------------------------------------------------------------------

    Molecular point group: c1
  Charge       = 0
  Multiplicity = 1
  Basis Set: AUG-CC-PVTZ
    Blend: AUG-CC-PVTZ
  Basis Set: (AUG-CC-PVTZ AUX)
    Blend: AUG-CC-PVTZ-JKFIT

    Orbital Energies [Eh]
    ---------------------

    Doubly Occupied:

       1A    -92.057440     2A    -20.497267     3A    -11.261608
       4A    -11.259708     5A    -11.236578     6A    -11.233386
       7A    -11.223687     8A    -11.220909     9A    -11.204915
      10A     -9.044890    11A     -6.726489    12A     -6.726300
      13A     -6.725015    14A     -1.316897    15A     -1.110358
      16A     -1.085263    17A     -1.008394    18A     -0.946060
      19A     -0.940622    20A     -0.846107    21A     -0.800333
      22A     -0.776295    23A     -0.664342    24A     -0.649604
      25A     -0.629365    26A     -0.612868    27A     -0.593279
      28A     -0.589700    29A     -0.567671    30A     -0.557206
      31A     -0.552303    32A     -0.533420    33A     -0.513529
      34A     -0.506464    35A     -0.499300    36A     -0.485999
      37A     -0.479607    38A     -0.476353    39A     -0.473071
      40A     -0.403306    41A     -0.359158

  @DF-RHF Final Energy:  -746.88558939339816

   => Energetics <=

    Nuclear Repulsion Energy =            575.7448844758827136
    One-Electron Energy =               -2166.4708215354521599
    Two-Electron Energy =                 843.8403476661711693
    Total Energy =                       -746.8855893933981633
  Basis Set: (AUG-CC-PVTZ AUX)
    Blend: AUG-CC-PVTZ-RI
    Molecular point group: c1

    Geometry (in Angstrom), charge = 0, multiplicity = 1:

       Center              X                  Y                   Z               Mass
    ------------   -----------------  -----------------  -----------------  -----------------
         S           -0.252308461127    -0.547904013086    -0.159321631007    31.972071174400
         O           -0.278016461127    -1.204809013086     1.209379368993    15.994914619570
         C            2.406777538873     0.116812986914     0.167588368993    12.000000000000
         C            1.035206538873     0.735699986914    -0.095056631007    12.000000000000
         C           -1.665266461127     0.591733986914    -0.230487631007    12.000000000000
         C            2.874356538873    -0.752093013086    -0.998598631007    12.000000000000
         C            3.419480538873     1.221291986914     0.465323368993    12.000000000000
         C           -2.968106461127    -0.193865013086    -0.147517631007    12.000000000000
         C           -4.184686461127     0.727267986914    -0.128908631007    12.000000000000
         H            2.303770538873    -0.513688013086     1.059666368993     1.007825032230
         H            0.764256538873     1.419713986914     0.718528368993     1.007825032230
         H            1.020157538873     1.283237986914    -1.047004631007     1.007825032230
         H           -1.577299461127     1.280683986914     0.618250368993     1.007825032230
         H           -1.592800461127     1.161616986914    -1.165175631007     1.007825032230
         H            2.954175738873    -0.207391813086    -1.828803131007     1.007825032230
         H            3.856785538873    -1.183256013086    -0.783911631007     1.007825032230
         H            2.185335538873    -1.577598013086    -1.198547631007     1.007825032230
         H            3.532026538873     1.886839986914    -0.397813631007     1.007825032230
         H            4.401488538873     0.793707986914     0.690297368993     1.007825032230
         H            3.108834538873     1.825344986914     1.323413368993     1.007825032230
         H           -3.034238461127    -0.883459013086    -0.997322631007     1.007825032230
         H           -2.941407461127    -0.806484013086     0.759168368993     1.007825032230
         H           -4.149428461127     1.402620986914     0.731121368993     1.007825032230
         H           -4.232276461127     1.337801986914    -1.035844631007     1.007825032230
         H           -5.110498461127     0.148904986914    -0.063726631007     1.007825032230

  Basis Set: AUG-CC-PVTZ
    Blend: AUG-CC-PVTZ
  Basis Set: (AUG-CC-PVTZ AUX)
    Blend: AUG-CC-PVTZ-JKFIT
	 Reference Energy          =    -746.8855893933981633 [Eh]
	 Singles Energy            =      -0.0000000000000000 [Eh]
	 Same-Spin Energy          =      -0.4272951483196279 [Eh]
	 Opposite-Spin Energy      =      -1.4578017440426527 [Eh]
	 Correlation Energy        =      -1.8850968923622806 [Eh]
	 Total Energy              =    -748.7706862857604619 [Eh]

	 ================> DF-SCS-MP2 Energies <==================
	-----------------------------------------------------------
	 SCS Same-Spin Scale       =       0.3333333333333333 [-]
	 SCS Opposite-Spin Scale   =       1.2000000000000000 [-]
	 SCS Same-Spin Energy      =      -0.1424317161065426 [Eh]
	 SCS Opposite-Spin Energy  =      -1.7493620928511833 [Eh]
	 SCS Correlation Energy    =      -1.8917938089577260 [Eh]
	 SCS Total Energy          =    -748.7773832023558498 [Eh]
	-----------------------------------------------------------

  Dipole Moment: [D]
     X:    -0.0407      Y:     2.9063      Z:    -2.3299     Total:     3.7251

*** Psi4 exiting successfully. Buy a developer a beer!
