                               Psi4 1.4a3.dev225

  ==> Input File <==

--------------------------------------------------------------------------
#psi4
#
memory 32 gb

molecule  {
0 1
  S       -0.2613620    -0.5930190    -0.1424790
  O       -0.2870700    -1.2499240     1.2262220
  C        2.3977240     0.0716980     0.1844310
  C        1.0261530     0.6905850    -0.0782140
  C       -1.6743200     0.5466190    -0.2136450
  C        2.8653030    -0.7972080    -0.9817560
  C        3.4104270     1.1761770     0.4821660
  C       -2.9771600    -0.2389800    -0.1306750
  C       -4.1937400     0.6821530    -0.1120660
  H        2.2947170    -0.5588030     1.0765090
  H        0.7552030     1.3745990     0.7353710
  H        1.0111040     1.2381230    -1.0301620
  H       -1.5863530     1.2355690     0.6350930
  H       -1.6005330     1.1268908    -1.1653720
  H        2.9531350    -0.1978260    -1.8953020
  H        3.8477320    -1.2283710    -0.7670690
  H        2.1762820    -1.6227130    -1.1817050
  H        3.5229730     1.8417250    -0.3809710
  H        4.3924350     0.7485930     0.7071400
  H        3.0997810     1.7802300     1.3402560
  H       -3.0432920    -0.9285740    -0.9804800
  H       -2.9504610    -0.8515990     0.7760110
  H       -4.1584820     1.3575060     0.7479640
  H       -4.2413300     1.2926870    -1.0190020
  H       -5.1195520     0.1037900    -0.0468840
units angstrom
no_reorient  #important for SAPT in psi4, default
symmetry c1  #important for SAPT in psi4, default
}

set PROPERTIES_ORIGIN ["COM"]
properties('MP2/aug-cc-pvtz', properties = ['dipole'])
--------------------------------------------------------------------------

    Molecular point group: c1
  Charge       = 0
  Multiplicity = 1
  Basis Set: AUG-CC-PVTZ
    Blend: AUG-CC-PVTZ
  Basis Set: (AUG-CC-PVTZ AUX)
    Blend: AUG-CC-PVTZ-JKFIT

    Orbital Energies [Eh]
    ---------------------

    Doubly Occupied:

       1A    -92.057724     2A    -20.497612     3A    -11.264035
       4A    -11.259812     5A    -11.237733     6A    -11.233654
       7A    -11.223763     8A    -11.221051     9A    -11.217794
      10A     -9.045168    11A     -6.726764    12A     -6.726574
      13A     -6.725290    14A     -1.317235    15A     -1.109522
      16A     -1.084565    17A     -1.007569    18A     -0.941373
      19A     -0.937212    20A     -0.845713    21A     -0.798912
      22A     -0.772904    23A     -0.663601    24A     -0.648671
      25A     -0.629760    26A     -0.611078    27A     -0.592907
      28A     -0.587950    29A     -0.565184    30A     -0.554278
      31A     -0.545124    32A     -0.533102    33A     -0.514096
      34A     -0.506391    35A     -0.499436    36A     -0.485498
      37A     -0.480022    38A     -0.475701    39A     -0.472523
      40A     -0.403550    41A     -0.359460

  @DF-RHF Final Energy:  -746.89107911964675

   => Energetics <=

    Nuclear Repulsion Energy =            575.1694208018504924
    One-Electron Energy =               -2165.3603857646385222
    Two-Electron Energy =                 843.2998858431412827
    Total Energy =                       -746.8910791196467471
  Basis Set: (AUG-CC-PVTZ AUX)
    Blend: AUG-CC-PVTZ-RI
    Molecular point group: c1

    Geometry (in Angstrom), charge = 0, multiplicity = 1:

       Center              X                  Y                   Z               Mass
    ------------   -----------------  -----------------  -----------------  -----------------
         S           -0.252371981272    -0.548346837069    -0.158638502591    31.972071174400
         O           -0.278079981272    -1.205251837069     1.210062497409    15.994914619570
         C            2.406714018728     0.116370162931     0.168271497409    12.000000000000
         C            1.035143018728     0.735257162931    -0.094373502591    12.000000000000
         C           -1.665329981272     0.591291162931    -0.229804502591    12.000000000000
         C            2.874293018728    -0.752535837069    -0.997915502591    12.000000000000
         C            3.419417018728     1.220849162931     0.466006497409    12.000000000000
         C           -2.968169981272    -0.194307837069    -0.146834502591    12.000000000000
         C           -4.184749981272     0.726825162931    -0.128225502591    12.000000000000
         H            2.303707018728    -0.514130837069     1.060349497409     1.007825032230
         H            0.764193018728     1.419271162931     0.719211497409     1.007825032230
         H            1.020094018728     1.282795162931    -1.046321502591     1.007825032230
         H           -1.577362981272     1.280241162931     0.618933497409     1.007825032230
         H           -1.591542981272     1.171562962931    -1.181531502591     1.007825032230
         H            2.962125018728    -0.153153837069    -1.911461502591     1.007825032230
         H            3.856722018728    -1.183698837069    -0.783228502591     1.007825032230
         H            2.185272018728    -1.578040837069    -1.197864502591     1.007825032230
         H            3.531963018728     1.886397162931    -0.397130502591     1.007825032230
         H            4.401425018728     0.793265162931     0.690980497409     1.007825032230
         H            3.108771018728     1.824902162931     1.324096497409     1.007825032230
         H           -3.034301981272    -0.883901837069    -0.996639502591     1.007825032230
         H           -2.941470981272    -0.806926837069     0.759851497409     1.007825032230
         H           -4.149491981272     1.402178162931     0.731804497409     1.007825032230
         H           -4.232339981272     1.337359162931    -1.035161502591     1.007825032230
         H           -5.110561981272     0.148462162931    -0.063043502591     1.007825032230

  Basis Set: AUG-CC-PVTZ
    Blend: AUG-CC-PVTZ
  Basis Set: (AUG-CC-PVTZ AUX)
    Blend: AUG-CC-PVTZ-JKFIT
	 Reference Energy          =    -746.8910791196467471 [Eh]
	 Singles Energy            =      -0.0000000000000000 [Eh]
	 Same-Spin Energy          =      -0.4272945818251521 [Eh]
	 Opposite-Spin Energy      =      -1.4583941721296396 [Eh]
	 Correlation Energy        =      -1.8856887539547917 [Eh]
	 Total Energy              =    -748.7767678736015569 [Eh]

	 ================> DF-SCS-MP2 Energies <==================
	-----------------------------------------------------------
	 SCS Same-Spin Scale       =       0.3333333333333333 [-]
	 SCS Opposite-Spin Scale   =       1.2000000000000000 [-]
	 SCS Same-Spin Energy      =      -0.1424315272750507 [Eh]
	 SCS Opposite-Spin Energy  =      -1.7500730065555674 [Eh]
	 SCS Correlation Energy    =      -1.8925045338306181 [Eh]
	 SCS Total Energy          =    -748.7835836534774216 [Eh]
	-----------------------------------------------------------

  Dipole Moment: [D]
     X:    -0.0551      Y:     2.8803      Z:    -2.2716     Total:     3.6687

*** Psi4 exiting successfully. Buy a developer a beer!
