                               Psi4 1.4a3.dev225

  ==> Input File <==

--------------------------------------------------------------------------
#psi4
#
memory 32 gb

molecule  {
0 1
  S       -0.2613620    -0.5930190    -0.1424790
  O       -0.2870700    -1.2499240     1.2262220
  C        2.3977240     0.0716980     0.1844310
  C        1.0261530     0.6905850    -0.0782140
  C       -1.6743200     0.5466190    -0.2136450
  C        2.8653030    -0.7972080    -0.9817560
  C        3.4104270     1.1761770     0.4821660
  C       -2.9771600    -0.2389800    -0.1306750
  C       -4.1937400     0.6821530    -0.1120660
  H        2.2947170    -0.5588030     1.0765090
  H        0.7552030     1.3745990     0.7353710
  H        1.0111040     1.2381230    -1.0301620
  H       -1.5863530     1.2355690     0.6350930
  H       -1.6018540     1.1165020    -1.1483330
  H        2.9531350    -0.1978260    -1.8953020
  H        3.8477320    -1.2283710    -0.7670690
  H        2.1762820    -1.6227130    -1.1817050
  H        3.5229730     1.8417250    -0.3809710
  H        4.3924350     0.7485930     0.7071400
  H        3.0997810     1.7802300     1.3402560
  H       -3.0432920    -0.9285740    -0.9804800
  H       -2.9504610    -0.8515990     0.7760110
  H       -4.1584820     1.3575060     0.7479640
  H       -4.2369812     1.2368961    -0.9361258
  H       -5.1195520     0.1037900    -0.0468840
units angstrom
no_reorient  #important for SAPT in psi4, default
symmetry c1  #important for SAPT in psi4, default
}

set PROPERTIES_ORIGIN ["COM"]
properties('MP2/aug-cc-pvtz', properties = ['dipole'])
--------------------------------------------------------------------------

    Molecular point group: c1
  Charge       = 0
  Multiplicity = 1
  Basis Set: AUG-CC-PVTZ
    Blend: AUG-CC-PVTZ
  Basis Set: (AUG-CC-PVTZ AUX)
    Blend: AUG-CC-PVTZ-JKFIT

    Orbital Energies [Eh]
    ---------------------

    Doubly Occupied:

       1A    -92.057443     2A    -20.497295     3A    -11.261561
       4A    -11.259712     5A    -11.237654     6A    -11.232352
       7A    -11.220991     8A    -11.217728     9A    -11.210913
      10A     -9.044896    11A     -6.726494    12A     -6.726305
      13A     -6.725020    14A     -1.316924    15A     -1.109610
      16A     -1.086166    17A     -1.009991    18A     -0.945865
      19A     -0.937157    20A     -0.849817    21A     -0.801443
      22A     -0.772877    23A     -0.665666    24A     -0.649651
      25A     -0.629886    26A     -0.612565    27A     -0.595415
      28A     -0.587587    29A     -0.573774    30A     -0.553842
      31A     -0.545240    32A     -0.533377    33A     -0.513790
      34A     -0.507793    35A     -0.500064    36A     -0.488412
      37A     -0.479987    38A     -0.475454    39A     -0.472408
      40A     -0.403300    41A     -0.359184

  @DF-RHF Final Energy:  -746.88546408732350

   => Energetics <=

    Nuclear Repulsion Energy =            575.7105245617312903
    One-Electron Energy =               -2166.4007634925083039
    Two-Electron Energy =                 843.8047748434535151
    Total Energy =                       -746.8854640873234985
  Basis Set: (AUG-CC-PVTZ AUX)
    Blend: AUG-CC-PVTZ-RI
    Molecular point group: c1

    Geometry (in Angstrom), charge = 0, multiplicity = 1:

       Center              X                  Y                   Z               Mass
    ------------   -----------------  -----------------  -----------------  -----------------
         S           -0.252392586631    -0.547896458423    -0.159318464459    31.972071174400
         O           -0.278100586631    -1.204801458423     1.209382535541    15.994914619570
         C            2.406693413369     0.116820541577     0.167591535541    12.000000000000
         C            1.035122413369     0.735707541577    -0.095053464459    12.000000000000
         C           -1.665350586631     0.591741541577    -0.230484464459    12.000000000000
         C            2.874272413369    -0.752085458423    -0.998595464459    12.000000000000
         C            3.419396413369     1.221299541577     0.465326535541    12.000000000000
         C           -2.968190586631    -0.193857458423    -0.147514464459    12.000000000000
         C           -4.184770586631     0.727275541577    -0.128905464459    12.000000000000
         H            2.303686413369    -0.513680458423     1.059669535541     1.007825032230
         H            0.764172413369     1.419721541577     0.718531535541     1.007825032230
         H            1.020073413369     1.283245541577    -1.047001464459     1.007825032230
         H           -1.577383586631     1.280691541577     0.618253535541     1.007825032230
         H           -1.592884586631     1.161624541577    -1.165172464459     1.007825032230
         H            2.962104413369    -0.152703458423    -1.912141464459     1.007825032230
         H            3.856701413369    -1.183248458423    -0.783908464459     1.007825032230
         H            2.185251413369    -1.577590458423    -1.198544464459     1.007825032230
         H            3.531942413369     1.886847541577    -0.397810464459     1.007825032230
         H            4.401404413369     0.793715541577     0.690300535541     1.007825032230
         H            3.108750413369     1.825352541577     1.323416535541     1.007825032230
         H           -3.034322586631    -0.883451458423    -0.997319464459     1.007825032230
         H           -2.941491586631    -0.806476458423     0.759171535541     1.007825032230
         H           -4.149512586631     1.402628541577     0.731124535541     1.007825032230
         H           -4.228011786631     1.282018641577    -0.952965264459     1.007825032230
         H           -5.110582586631     0.148912541577    -0.063723464459     1.007825032230

  Basis Set: AUG-CC-PVTZ
    Blend: AUG-CC-PVTZ
  Basis Set: (AUG-CC-PVTZ AUX)
    Blend: AUG-CC-PVTZ-JKFIT
	 Reference Energy          =    -746.8854640873234985 [Eh]
	 Singles Energy            =      -0.0000000000000000 [Eh]
	 Same-Spin Energy          =      -0.4273503291299520 [Eh]
	 Opposite-Spin Energy      =      -1.4578408510792151 [Eh]
	 Correlation Energy        =      -1.8851911802091670 [Eh]
	 Total Energy              =    -748.7706552675326748 [Eh]

	 ================> DF-SCS-MP2 Energies <==================
	-----------------------------------------------------------
	 SCS Same-Spin Scale       =       0.3333333333333333 [-]
	 SCS Opposite-Spin Scale   =       1.2000000000000000 [-]
	 SCS Same-Spin Energy      =      -0.1424501097099840 [Eh]
	 SCS Opposite-Spin Energy  =      -1.7494090212950582 [Eh]
	 SCS Correlation Energy    =      -1.8918591310050421 [Eh]
	 SCS Total Energy          =    -748.7773232183285472 [Eh]
	-----------------------------------------------------------

  Dipole Moment: [D]
     X:    -0.0706      Y:     2.9233      Z:    -2.3198     Total:     3.7326

*** Psi4 exiting successfully. Buy a developer a beer!
