                               Psi4 1.4a3.dev225

  ==> Input File <==

--------------------------------------------------------------------------
#psi4
#
memory 32 gb

molecule  {
0 1
  S       -0.2613620    -0.5930190    -0.1424790
  O       -0.2870700    -1.2499240     1.2262220
  C        2.3977240     0.0716980     0.1844310
  C        0.9748440     0.6108572     0.0505261
  C       -1.6743200     0.5466190    -0.2136450
  C        2.8653030    -0.7972080    -0.9817560
  C        3.4104270     1.1761770     0.4821660
  C       -2.9771600    -0.2389800    -0.1306750
  C       -4.1937400     0.6821530    -0.1120660
  H        2.2947170    -0.5588030     1.0765090
  H        0.7552030     1.3745990     0.7353710
  H        1.0111040     1.2381230    -1.0301620
  H       -1.5863530     1.2355690     0.6350930
  H       -1.6018540     1.1165020    -1.1483330
  H        2.9531350    -0.1978260    -1.8953020
  H        3.8477320    -1.2283710    -0.7670690
  H        2.1762820    -1.6227130    -1.1817050
  H        3.5229730     1.8417250    -0.3809710
  H        4.3924350     0.7485930     0.7071400
  H        3.0997810     1.7802300     1.3402560
  H       -3.0432920    -0.9285740    -0.9804800
  H       -2.9504610    -0.8515990     0.7760110
  H       -4.1584820     1.3575060     0.7479640
  H       -4.2413300     1.2926870    -1.0190020
  H       -5.1195520     0.1037900    -0.0468840
units angstrom
no_reorient  #important for SAPT in psi4, default
symmetry c1  #important for SAPT in psi4, default
}

set PROPERTIES_ORIGIN ["COM"]
properties('MP2/aug-cc-pvtz', properties = ['dipole'])
--------------------------------------------------------------------------

    Molecular point group: c1
  Charge       = 0
  Multiplicity = 1
  Basis Set: AUG-CC-PVTZ
    Blend: AUG-CC-PVTZ
  Basis Set: (AUG-CC-PVTZ AUX)
    Blend: AUG-CC-PVTZ-JKFIT

    Orbital Energies [Eh]
    ---------------------

    Doubly Occupied:

       1A    -92.060239     2A    -20.493553     3A    -11.264012
       4A    -11.262775     5A    -11.238999     6A    -11.234840
       7A    -11.224703     8A    -11.222362     9A    -11.218965
      10A     -9.048505    11A     -6.730254    12A     -6.729903
      13A     -6.728535    14A     -1.319905    15A     -1.111230
      16A     -1.086087    17A     -1.014475    18A     -0.944220
      19A     -0.937610    20A     -0.849041    21A     -0.804052
      22A     -0.768548    23A     -0.664143    24A     -0.647495
      25A     -0.640801    26A     -0.612855    27A     -0.595375
      28A     -0.580368    29A     -0.566720    30A     -0.548522
      31A     -0.544041    32A     -0.535771    33A     -0.518916
      34A     -0.501819    35A     -0.500467    36A     -0.487369
      37A     -0.481503    38A     -0.481176    39A     -0.449267
      40A     -0.406680    41A     -0.364738

  @DF-RHF Final Energy:  -746.87022747705282

   => Energetics <=

    Nuclear Repulsion Energy =            576.9287819988821866
    One-Electron Energy =               -2168.7563417611895602
    Two-Electron Energy =                 844.9573322852545516
    Total Energy =                       -746.8702274770528220
  Basis Set: (AUG-CC-PVTZ AUX)
    Blend: AUG-CC-PVTZ-RI
    Molecular point group: c1

    Geometry (in Angstrom), charge = 0, multiplicity = 1:

       Center              X                  Y                   Z               Mass
    ------------   -----------------  -----------------  -----------------  -----------------
         S           -0.248205391851    -0.541815745072    -0.169186348292    31.972071174400
         O           -0.273913391851    -1.198720745072     1.199514651708    15.994914619570
         C            2.410880608149     0.122901254928     0.157723651708    12.000000000000
         C            0.988000608149     0.662060454928     0.023818751708    12.000000000000
         C           -1.661163391851     0.597822254928    -0.240352348292    12.000000000000
         C            2.878459608149    -0.746004745072    -1.008463348292    12.000000000000
         C            3.423583608149     1.227380254928     0.455458651708    12.000000000000
         C           -2.964003391851    -0.187776745072    -0.157382348292    12.000000000000
         C           -4.180583391851     0.733356254928    -0.138773348292    12.000000000000
         H            2.307873608149    -0.507599745072     1.049801651708     1.007825032230
         H            0.768359608149     1.425802254928     0.708663651708     1.007825032230
         H            1.024260608149     1.289326254928    -1.056869348292     1.007825032230
         H           -1.573196391851     1.286772254928     0.608385651708     1.007825032230
         H           -1.588697391851     1.167705254928    -1.175040348292     1.007825032230
         H            2.966291608149    -0.146622745072    -1.922009348292     1.007825032230
         H            3.860888608149    -1.177167745072    -0.793776348292     1.007825032230
         H            2.189438608149    -1.571509745072    -1.208412348292     1.007825032230
         H            3.536129608149     1.892928254928    -0.407678348292     1.007825032230
         H            4.405591608149     0.799796254928     0.680432651708     1.007825032230
         H            3.112937608149     1.831433254928     1.313548651708     1.007825032230
         H           -3.030135391851    -0.877370745072    -1.007187348292     1.007825032230
         H           -2.937304391851    -0.800395745072     0.749303651708     1.007825032230
         H           -4.145325391851     1.408709254928     0.721256651708     1.007825032230
         H           -4.228173391851     1.343890254928    -1.045709348292     1.007825032230
         H           -5.106395391851     0.154993254928    -0.073591348292     1.007825032230

  Basis Set: AUG-CC-PVTZ
    Blend: AUG-CC-PVTZ
  Basis Set: (AUG-CC-PVTZ AUX)
    Blend: AUG-CC-PVTZ-JKFIT
	 Reference Energy          =    -746.8702274770528220 [Eh]
	 Singles Energy            =      -0.0000000000000000 [Eh]
	 Same-Spin Energy          =      -0.4279569155969706 [Eh]
	 Opposite-Spin Energy      =      -1.4593064592550764 [Eh]
	 Correlation Energy        =      -1.8872633748520471 [Eh]
	 Total Energy              =    -748.7574908519048904 [Eh]

	 ================> DF-SCS-MP2 Energies <==================
	-----------------------------------------------------------
	 SCS Same-Spin Scale       =       0.3333333333333333 [-]
	 SCS Opposite-Spin Scale   =       1.2000000000000000 [-]
	 SCS Same-Spin Energy      =      -0.1426523051989902 [Eh]
	 SCS Opposite-Spin Energy  =      -1.7511677511060917 [Eh]
	 SCS Correlation Energy    =      -1.8938200563050818 [Eh]
	 SCS Total Energy          =    -748.7640475333579388 [Eh]
	-----------------------------------------------------------

  Dipole Moment: [D]
     X:    -0.0401      Y:     2.8853      Z:    -2.2330     Total:     3.6487

*** Psi4 exiting successfully. Buy a developer a beer!
