                               Psi4 1.4a3.dev225

  ==> Input File <==

--------------------------------------------------------------------------
#psi4
#
memory 32 gb

molecule  {
0 1
  S       -0.2511157    -0.5782435    -0.1163639
  O       -0.2870700    -1.2499240     1.2262220
  C        2.3977240     0.0716980     0.1844310
  C        1.0261530     0.6905850    -0.0782140
  C       -1.6743200     0.5466190    -0.2136450
  C        2.8653030    -0.7972080    -0.9817560
  C        3.4104270     1.1761770     0.4821660
  C       -2.9771600    -0.2389800    -0.1306750
  C       -4.1937400     0.6821530    -0.1120660
  H        2.2947170    -0.5588030     1.0765090
  H        0.7552030     1.3745990     0.7353710
  H        1.0111040     1.2381230    -1.0301620
  H       -1.5863530     1.2355690     0.6350930
  H       -1.6018540     1.1165020    -1.1483330
  H        2.9531350    -0.1978260    -1.8953020
  H        3.8477320    -1.2283710    -0.7670690
  H        2.1762820    -1.6227130    -1.1817050
  H        3.5229730     1.8417250    -0.3809710
  H        4.3924350     0.7485930     0.7071400
  H        3.0997810     1.7802300     1.3402560
  H       -3.0432920    -0.9285740    -0.9804800
  H       -2.9504610    -0.8515990     0.7760110
  H       -4.1584820     1.3575060     0.7479640
  H       -4.2413300     1.2926870    -1.0190020
  H       -5.1195520     0.1037900    -0.0468840
units angstrom
no_reorient  #important for SAPT in psi4, default
symmetry c1  #important for SAPT in psi4, default
}

set PROPERTIES_ORIGIN ["COM"]
properties('MP2/aug-cc-pvtz', properties = ['dipole'])
--------------------------------------------------------------------------

    Molecular point group: c1
  Charge       = 0
  Multiplicity = 1
  Basis Set: AUG-CC-PVTZ
    Blend: AUG-CC-PVTZ
  Basis Set: (AUG-CC-PVTZ AUX)
    Blend: AUG-CC-PVTZ-JKFIT

    Orbital Energies [Eh]
    ---------------------

    Doubly Occupied:

       1A    -92.055466     2A    -20.498611     3A    -11.260893
       4A    -11.258477     5A    -11.238236     6A    -11.233376
       7A    -11.223644     8A    -11.221179     9A    -11.217711
      10A     -9.043301    11A     -6.724952    12A     -6.724835
      13A     -6.723511    14A     -1.326990    15A     -1.111247
      16A     -1.084707    17A     -1.009240    18A     -0.942655
      19A     -0.937251    20A     -0.844900    21A     -0.799302
      22A     -0.772754    23A     -0.665322    24A     -0.650793
      25A     -0.630471    26A     -0.611793    27A     -0.594123
      28A     -0.588571    29A     -0.567118    30A     -0.556134
      31A     -0.545436    32A     -0.533792    33A     -0.515311
      34A     -0.508769    35A     -0.499272    36A     -0.486189
      37A     -0.480671    38A     -0.476597    39A     -0.473311
      40A     -0.406704    41A     -0.355699

  @DF-RHF Final Energy:  -746.89231239964681

   => Energetics <=

    Nuclear Repulsion Energy =            576.2354818356326405
    One-Electron Energy =               -2167.4569620323609342
    Two-Electron Energy =                 844.3291677970815954
    Total Energy =                       -746.8923123996468121
  Basis Set: (AUG-CC-PVTZ AUX)
    Blend: AUG-CC-PVTZ-RI
    Molecular point group: c1

    Geometry (in Angstrom), charge = 0, multiplicity = 1:

       Center              X                  Y                   Z               Mass
    ------------   -----------------  -----------------  -----------------  -----------------
         S           -0.244328796130    -0.536690564737    -0.138277427755    31.972071174400
         O           -0.280283096130    -1.208371064737     1.204308472245    15.994914619570
         C            2.404510903870     0.113250935263     0.162517472245    12.000000000000
         C            1.032939903870     0.732137935263    -0.100127527755    12.000000000000
         C           -1.667533096130     0.588171935263    -0.235558527755    12.000000000000
         C            2.872089903870    -0.755655064737    -1.003669527755    12.000000000000
         C            3.417213903870     1.217729935263     0.460252472245    12.000000000000
         C           -2.970373096130    -0.197427064737    -0.152588527755    12.000000000000
         C           -4.186953096130     0.723705935263    -0.133979527755    12.000000000000
         H            2.301503903870    -0.517250064737     1.054595472245     1.007825032230
         H            0.761989903870     1.416151935263     0.713457472245     1.007825032230
         H            1.017890903870     1.279675935263    -1.052075527755     1.007825032230
         H           -1.579566096130     1.277121935263     0.613179472245     1.007825032230
         H           -1.595067096130     1.158054935263    -1.170246527755     1.007825032230
         H            2.959921903870    -0.156273064737    -1.917215527755     1.007825032230
         H            3.854518903870    -1.186818064737    -0.788982527755     1.007825032230
         H            2.183068903870    -1.581160064737    -1.203618527755     1.007825032230
         H            3.529759903870     1.883277935263    -0.402884527755     1.007825032230
         H            4.399221903870     0.790145935263     0.685226472245     1.007825032230
         H            3.106567903870     1.821782935263     1.318342472245     1.007825032230
         H           -3.036505096130    -0.887021064737    -1.002393527755     1.007825032230
         H           -2.943674096130    -0.810046064737     0.754097472245     1.007825032230
         H           -4.151695096130     1.399058935263     0.726050472245     1.007825032230
         H           -4.234543096130     1.334239935263    -1.040915527755     1.007825032230
         H           -5.112765096130     0.145342935263    -0.068797527755     1.007825032230

  Basis Set: AUG-CC-PVTZ
    Blend: AUG-CC-PVTZ
  Basis Set: (AUG-CC-PVTZ AUX)
    Blend: AUG-CC-PVTZ-JKFIT
	 Reference Energy          =    -746.8923123996468121 [Eh]
	 Singles Energy            =      -0.0000000000000000 [Eh]
	 Same-Spin Energy          =      -0.4270981039475837 [Eh]
	 Opposite-Spin Energy      =      -1.4573710071395394 [Eh]
	 Correlation Energy        =      -1.8844691110871230 [Eh]
	 Total Energy              =    -748.7767815107339402 [Eh]

	 ================> DF-SCS-MP2 Energies <==================
	-----------------------------------------------------------
	 SCS Same-Spin Scale       =       0.3333333333333333 [-]
	 SCS Opposite-Spin Scale   =       1.2000000000000000 [-]
	 SCS Same-Spin Energy      =      -0.1423660346491946 [Eh]
	 SCS Opposite-Spin Energy  =      -1.7488452085674473 [Eh]
	 SCS Correlation Energy    =      -1.8912112432166419 [Eh]
	 SCS Total Energy          =    -748.7835236428634289 [Eh]
	-----------------------------------------------------------

  Dipole Moment: [D]
     X:    -0.0194      Y:     2.8802      Z:    -2.2079     Total:     3.6291

*** Psi4 exiting successfully. Buy a developer a beer!
