                               Psi4 1.4a3.dev225

  ==> Input File <==

--------------------------------------------------------------------------
#psi4
#
memory 32 gb

molecule  {
0 1
  S       -0.2613620    -0.5930190    -0.1424790
  O       -0.2870700    -1.2499240     1.2262220
  C        2.3977240     0.0716980     0.1844310
  C        1.0261530     0.6905850    -0.0782140
  C       -1.6743200     0.5466190    -0.2136450
  C        2.8653030    -0.7972080    -0.9817560
  C        3.4104270     1.1761770     0.4821660
  C       -2.9771600    -0.2389800    -0.1306750
  C       -4.3531793     0.8028724    -0.1096272
  H        2.2947170    -0.5588030     1.0765090
  H        0.7552030     1.3745990     0.7353710
  H        1.0111040     1.2381230    -1.0301620
  H       -1.5863530     1.2355690     0.6350930
  H       -1.6018540     1.1165020    -1.1483330
  H        2.9531350    -0.1978260    -1.8953020
  H        3.8477320    -1.2283710    -0.7670690
  H        2.1762820    -1.6227130    -1.1817050
  H        3.5229730     1.8417250    -0.3809710
  H        4.3924350     0.7485930     0.7071400
  H        3.0997810     1.7802300     1.3402560
  H       -3.0432920    -0.9285740    -0.9804800
  H       -2.9504610    -0.8515990     0.7760110
  H       -4.1584820     1.3575060     0.7479640
  H       -4.2413300     1.2926870    -1.0190020
  H       -5.1195520     0.1037900    -0.0468840
units angstrom
no_reorient  #important for SAPT in psi4, default
symmetry c1  #important for SAPT in psi4, default
}

set PROPERTIES_ORIGIN ["COM"]
properties('MP2/aug-cc-pvtz', properties = ['dipole'])
--------------------------------------------------------------------------

    Molecular point group: c1
  Charge       = 0
  Multiplicity = 1
  Basis Set: AUG-CC-PVTZ
    Blend: AUG-CC-PVTZ
  Basis Set: (AUG-CC-PVTZ AUX)
    Blend: AUG-CC-PVTZ-JKFIT

    Orbital Energies [Eh]
    ---------------------

    Doubly Occupied:

       1A    -92.057056     2A    -20.497009     3A    -11.261585
       4A    -11.259436     5A    -11.239690     6A    -11.237487
       7A    -11.221671     8A    -11.220865     9A    -11.217572
      10A     -9.044527    11A     -6.726119    12A     -6.725924
      13A     -6.724638    14A     -1.316608    15A     -1.108619
      16A     -1.072252    17A     -0.999000    18A     -0.944340
      19A     -0.937012    20A     -0.852293    21A     -0.798372
      22A     -0.772627    23A     -0.662437    24A     -0.647239
      25A     -0.627552    26A     -0.610964    27A     -0.600302
      28A     -0.592938    29A     -0.576174    30A     -0.558303
      31A     -0.545164    32A     -0.533844    33A     -0.519369
      34A     -0.512322    35A     -0.493448    36A     -0.483425
      37A     -0.478696    38A     -0.473210    39A     -0.448312
      40A     -0.398271    41A     -0.358421

  @DF-RHF Final Energy:  -746.86483031687078

   => Energetics <=

    Nuclear Repulsion Energy =            572.3403894970558667
    One-Electron Energy =               -2159.7002518764747947
    Two-Electron Energy =                 840.4950320625481481
    Total Energy =                       -746.8648303168707798
  Basis Set: (AUG-CC-PVTZ AUX)
    Blend: AUG-CC-PVTZ-RI
    Molecular point group: c1

    Geometry (in Angstrom), charge = 0, multiplicity = 1:

       Center              X                  Y                   Z               Mass
    ------------   -----------------  -----------------  -----------------  -----------------
         S           -0.239443527823    -0.558058103700    -0.158952077074    31.972071174400
         O           -0.265151527823    -1.214963103700     1.209748922926    15.994914619570
         C            2.419642472177     0.106658896300     0.167957922926    12.000000000000
         C            1.048071472177     0.725545896300    -0.094687077074    12.000000000000
         C           -1.652401527823     0.581579896300    -0.230118077074    12.000000000000
         C            2.887221472177    -0.762247103700    -0.998229077074    12.000000000000
         C            3.432345472177     1.211137896300     0.465692922926    12.000000000000
         C           -2.955241527823    -0.204019103700    -0.147148077074    12.000000000000
         C           -4.331260827823     0.837833296300    -0.126100277074    12.000000000000
         H            2.316635472177    -0.523842103700     1.060035922926     1.007825032230
         H            0.777121472177     1.409559896300     0.718897922926     1.007825032230
         H            1.033022472177     1.273083896300    -1.046635077074     1.007825032230
         H           -1.564434527823     1.270529896300     0.618619922926     1.007825032230
         H           -1.579935527823     1.151462896300    -1.164806077074     1.007825032230
         H            2.975053472177    -0.162865103700    -1.911775077074     1.007825032230
         H            3.869650472177    -1.193410103700    -0.783542077074     1.007825032230
         H            2.198200472177    -1.587752103700    -1.198178077074     1.007825032230
         H            3.544891472177     1.876685896300    -0.397444077074     1.007825032230
         H            4.414353472177     0.783553896300     0.690666922926     1.007825032230
         H            3.121699472177     1.815190896300     1.323782922926     1.007825032230
         H           -3.021373527823    -0.893613103700    -0.996953077074     1.007825032230
         H           -2.928542527823    -0.816638103700     0.759537922926     1.007825032230
         H           -4.136563527823     1.392466896300     0.731490922926     1.007825032230
         H           -4.219411527823     1.327647896300    -1.035475077074     1.007825032230
         H           -5.097633527823     0.138750896300    -0.063357077074     1.007825032230

  Basis Set: AUG-CC-PVTZ
    Blend: AUG-CC-PVTZ
  Basis Set: (AUG-CC-PVTZ AUX)
    Blend: AUG-CC-PVTZ-JKFIT
	 Reference Energy          =    -746.8648303168707798 [Eh]
	 Singles Energy            =      -0.0000000000000000 [Eh]
	 Same-Spin Energy          =      -0.4273429484077667 [Eh]
	 Opposite-Spin Energy      =      -1.4596191590720435 [Eh]
	 Correlation Energy        =      -1.8869621074798102 [Eh]
	 Total Energy              =    -748.7517924243505831 [Eh]

	 ================> DF-SCS-MP2 Energies <==================
	-----------------------------------------------------------
	 SCS Same-Spin Scale       =       0.3333333333333333 [-]
	 SCS Opposite-Spin Scale   =       1.2000000000000000 [-]
	 SCS Same-Spin Energy      =      -0.1424476494692555 [Eh]
	 SCS Opposite-Spin Energy  =      -1.7515429908864522 [Eh]
	 SCS Correlation Energy    =      -1.8939906403557076 [Eh]
	 SCS Total Energy          =    -748.7588209572264759 [Eh]
	-----------------------------------------------------------

  Dipole Moment: [D]
     X:    -0.0251      Y:     2.8765      Z:    -2.2812     Total:     3.6714

*** Psi4 exiting successfully. Buy a developer a beer!
