                               Psi4 1.4a3.dev225

  ==> Input File <==

--------------------------------------------------------------------------
#psi4
#
memory 32 gb

molecule  {
0 1
  S       -0.2613620    -0.5930190    -0.1424790
  O       -0.2870700    -1.2499240     1.2262220
  C        2.3977240     0.0716980     0.1844310
  C        1.0261530     0.6905850    -0.0782140
  C       -1.6743200     0.5466190    -0.2136450
  C        2.8653030    -0.7972080    -0.9817560
  C        3.4211969     1.1348177     0.5798638
  C       -2.9771600    -0.2389800    -0.1306750
  C       -4.1937400     0.6821530    -0.1120660
  H        2.2947170    -0.5588030     1.0765090
  H        0.7552030     1.3745990     0.7353710
  H        1.0111040     1.2381230    -1.0301620
  H       -1.5863530     1.2355690     0.6350930
  H       -1.6018540     1.1165020    -1.1483330
  H        2.9531350    -0.1978260    -1.8953020
  H        3.8477320    -1.2283710    -0.7670690
  H        2.1762820    -1.6227130    -1.1817050
  H        3.5229730     1.8417250    -0.3809710
  H        4.3924350     0.7485930     0.7071400
  H        3.0997810     1.7802300     1.3402560
  H       -3.0432920    -0.9285740    -0.9804800
  H       -2.9504610    -0.8515990     0.7760110
  H       -4.1584820     1.3575060     0.7479640
  H       -4.2413300     1.2926870    -1.0190020
  H       -5.1195520     0.1037900    -0.0468840
units angstrom
no_reorient  #important for SAPT in psi4, default
symmetry c1  #important for SAPT in psi4, default
}

set PROPERTIES_ORIGIN ["COM"]
properties('MP2/aug-cc-pvtz', properties = ['dipole'])
--------------------------------------------------------------------------

    Molecular point group: c1
  Charge       = 0
  Multiplicity = 1
  Basis Set: AUG-CC-PVTZ
    Blend: AUG-CC-PVTZ
  Basis Set: (AUG-CC-PVTZ AUX)
    Blend: AUG-CC-PVTZ-JKFIT

    Orbital Energies [Eh]
    ---------------------

    Doubly Occupied:

       1A    -92.058237     2A    -20.497621     3A    -11.262125
       4A    -11.260650     5A    -11.238269     6A    -11.233761
       7A    -11.223957     8A    -11.223337     9A    -11.218807
      10A     -9.045656    11A     -6.727252    12A     -6.727070
      13A     -6.725777    14A     -1.317303    15A     -1.109356
      16A     -1.085225    17A     -1.008136    18A     -0.942636
      19A     -0.939312    20A     -0.846184    21A     -0.800566
      22A     -0.772665    23A     -0.664152    24A     -0.648816
      25A     -0.630186    26A     -0.621268    27A     -0.595717
      28A     -0.585679    29A     -0.568121    30A     -0.553726
      31A     -0.546359    32A     -0.526395    33A     -0.514809
      34A     -0.508315    35A     -0.500005    36A     -0.487723
      37A     -0.485327    38A     -0.478043    39A     -0.454545
      40A     -0.404640    41A     -0.359717

  @DF-RHF Final Energy:  -746.88087439985566

   => Energetics <=

    Nuclear Repulsion Energy =            575.0581341187803446
    One-Electron Energy =               -2165.0831277225297526
    Two-Electron Energy =                 843.1441192038937515
    Total Energy =                       -746.8808743998556565
  Basis Set: (AUG-CC-PVTZ AUX)
    Blend: AUG-CC-PVTZ-RI
    Molecular point group: c1

    Geometry (in Angstrom), charge = 0, multiplicity = 1:

       Center              X                  Y                   Z               Mass
    ------------   -----------------  -----------------  -----------------  -----------------
         S           -0.253235682905    -0.544924767982    -0.166670971828    31.972071174400
         O           -0.278943682905    -1.201829767982     1.202030028172    15.994914619570
         C            2.405850317095     0.119792232018     0.160239028172    12.000000000000
         C            1.034279317095     0.738679232018    -0.102405971828    12.000000000000
         C           -1.666193682905     0.594713232018    -0.237836971828    12.000000000000
         C            2.873429317095    -0.749113767982    -1.005947971828    12.000000000000
         C            3.429323217095     1.182911932018     0.555671828172    12.000000000000
         C           -2.969033682905    -0.190885767982    -0.154866971828    12.000000000000
         C           -4.185613682905     0.730247232018    -0.136257971828    12.000000000000
         H            2.302843317095    -0.510708767982     1.052317028172     1.007825032230
         H            0.763329317095     1.422693232018     0.711179028172     1.007825032230
         H            1.019230317095     1.286217232018    -1.054353971828     1.007825032230
         H           -1.578226682905     1.283663232018     0.610901028172     1.007825032230
         H           -1.593727682905     1.164596232018    -1.172524971828     1.007825032230
         H            2.961261317095    -0.149731767982    -1.919493971828     1.007825032230
         H            3.855858317095    -1.180276767982    -0.791260971828     1.007825032230
         H            2.184408317095    -1.574618767982    -1.205896971828     1.007825032230
         H            3.531099317095     1.889819232018    -0.405162971828     1.007825032230
         H            4.400561317095     0.796687232018     0.682948028172     1.007825032230
         H            3.107907317095     1.828324232018     1.316064028172     1.007825032230
         H           -3.035165682905    -0.880479767982    -1.004671971828     1.007825032230
         H           -2.942334682905    -0.803504767982     0.751819028172     1.007825032230
         H           -4.150355682905     1.405600232018     0.723772028172     1.007825032230
         H           -4.233203682905     1.340781232018    -1.043193971828     1.007825032230
         H           -5.111425682905     0.151884232018    -0.071075971828     1.007825032230

  Basis Set: AUG-CC-PVTZ
    Blend: AUG-CC-PVTZ
  Basis Set: (AUG-CC-PVTZ AUX)
    Blend: AUG-CC-PVTZ-JKFIT
	 Reference Energy          =    -746.8808743998556565 [Eh]
	 Singles Energy            =      -0.0000000000000000 [Eh]
	 Same-Spin Energy          =      -0.4273627785917644 [Eh]
	 Opposite-Spin Energy      =      -1.4586601813701772 [Eh]
	 Correlation Energy        =      -1.8860229599619416 [Eh]
	 Total Energy              =    -748.7668973598175626 [Eh]

	 ================> DF-SCS-MP2 Energies <==================
	-----------------------------------------------------------
	 SCS Same-Spin Scale       =       0.3333333333333333 [-]
	 SCS Opposite-Spin Scale   =       1.2000000000000000 [-]
	 SCS Same-Spin Energy      =      -0.1424542595305881 [Eh]
	 SCS Opposite-Spin Energy  =      -1.7503922176442126 [Eh]
	 SCS Correlation Energy    =      -1.8928464771748008 [Eh]
	 SCS Total Energy          =    -748.7737208770304278 [Eh]
	-----------------------------------------------------------

  Dipole Moment: [D]
     X:    -0.0887      Y:     2.8265      Z:    -2.2211     Total:     3.5958

*** Psi4 exiting successfully. Buy a developer a beer!
