                               Psi4 1.4a3.dev225

  ==> Input File <==

--------------------------------------------------------------------------
#psi4
#
memory 32 gb

molecule  {
0 1
  S       -0.2613620    -0.5930190    -0.1424790
  O       -0.2870700    -1.2499240     1.2262220
  C        2.3977240     0.0716980     0.1844310
  C        1.0261530     0.6905850    -0.0782140
  C       -1.6743200     0.5466190    -0.2136450
  C        2.8653030    -0.7972080    -0.9817560
  C        3.4104270     1.1761770     0.4821660
  C       -2.9771600    -0.2389800    -0.1306750
  C       -4.0343007     0.5614336    -0.1145048
  H        2.2947170    -0.5588030     1.0765090
  H        0.7552030     1.3745990     0.7353710
  H        1.0111040     1.2381230    -1.0301620
  H       -1.5863530     1.2355690     0.6350930
  H       -1.6018540     1.1165020    -1.1483330
  H        2.9531350    -0.1978260    -1.8953020
  H        3.8477320    -1.2283710    -0.7670690
  H        2.1762820    -1.6227130    -1.1817050
  H        3.5229730     1.8417250    -0.3809710
  H        4.3924350     0.7485930     0.7071400
  H        3.0997810     1.7802300     1.3402560
  H       -3.0432920    -0.9285740    -0.9804800
  H       -2.9504610    -0.8515990     0.7760110
  H       -4.1584820     1.3575060     0.7479640
  H       -4.2413300     1.2926870    -1.0190020
  H       -5.1195520     0.1037900    -0.0468840
units angstrom
no_reorient  #important for SAPT in psi4, default
symmetry c1  #important for SAPT in psi4, default
}

set PROPERTIES_ORIGIN ["COM"]
properties('MP2/aug-cc-pvtz', properties = ['dipole'])
--------------------------------------------------------------------------

    Molecular point group: c1
  Charge       = 0
  Multiplicity = 1
  Basis Set: AUG-CC-PVTZ
    Blend: AUG-CC-PVTZ
  Basis Set: (AUG-CC-PVTZ AUX)
    Blend: AUG-CC-PVTZ-JKFIT

    Orbital Energies [Eh]
    ---------------------

    Doubly Occupied:

       1A    -92.058616     2A    -20.498500     3A    -11.263663
       4A    -11.260701     5A    -11.238350     6A    -11.237655
       7A    -11.224678     8A    -11.221504     9A    -11.218308
      10A     -9.046087    11A     -6.727690    12A     -6.727501
      13A     -6.726215    14A     -1.318229    15A     -1.122839
      16A     -1.105547    17A     -1.019648    18A     -0.943509
      19A     -0.937711    20A     -0.834456    21A     -0.800738
      22A     -0.773558    23A     -0.671237    24A     -0.654804
      25A     -0.639583    26A     -0.615135    27A     -0.600682
      28A     -0.589926    29A     -0.574674    30A     -0.555387
      31A     -0.547231    32A     -0.543293    33A     -0.528747
      34A     -0.504350    35A     -0.487091    36A     -0.480681
      37A     -0.473984    38A     -0.459270    39A     -0.452148
      40A     -0.403276    41A     -0.360516

  @DF-RHF Final Energy:  -746.84181615396653

   => Energetics <=

    Nuclear Repulsion Energy =            578.6271361495521433
    One-Electron Energy =               -2172.0424629941867352
    Two-Electron Energy =                 846.5735106906680585
    Total Energy =                       -746.8418161539665334
  Basis Set: (AUG-CC-PVTZ AUX)
    Blend: AUG-CC-PVTZ-RI
    Molecular point group: c1

    Geometry (in Angstrom), charge = 0, multiplicity = 1:

       Center              X                  Y                   Z               Mass
    ------------   -----------------  -----------------  -----------------  -----------------
         S           -0.265282454882    -0.538494170773    -0.158556842177    31.972071174400
         O           -0.290990454882    -1.195399170773     1.210144157823    15.994914619570
         C            2.393803545118     0.126222829227     0.168353157823    12.000000000000
         C            1.022232545118     0.745109829227    -0.094291842177    12.000000000000
         C           -1.678240454882     0.601143829227    -0.229722842177    12.000000000000
         C            2.861382545118    -0.742683170773    -0.997833842177    12.000000000000
         C            3.406506545118     1.230701829227     0.466088157823    12.000000000000
         C           -2.981080454882    -0.184455170773    -0.146752842177    12.000000000000
         C           -4.038221154882     0.615958429227    -0.130582642177    12.000000000000
         H            2.290796545118    -0.504278170773     1.060431157823     1.007825032230
         H            0.751282545118     1.429123829227     0.719293157823     1.007825032230
         H            1.007183545118     1.292647829227    -1.046239842177     1.007825032230
         H           -1.590273454882     1.290093829227     0.619015157823     1.007825032230
         H           -1.605774454882     1.171026829227    -1.164410842177     1.007825032230
         H            2.949214545118    -0.143301170773    -1.911379842177     1.007825032230
         H            3.843811545118    -1.173846170773    -0.783146842177     1.007825032230
         H            2.172361545118    -1.568188170773    -1.197782842177     1.007825032230
         H            3.519052545118     1.896249829227    -0.397048842177     1.007825032230
         H            4.388514545118     0.803117829227     0.691062157823     1.007825032230
         H            3.095860545118     1.834754829227     1.324178157823     1.007825032230
         H           -3.047212454882    -0.874049170773    -0.996557842177     1.007825032230
         H           -2.954381454882    -0.797074170773     0.759933157823     1.007825032230
         H           -4.162402454882     1.412030829227     0.731886157823     1.007825032230
         H           -4.245250454882     1.347211829227    -1.035079842177     1.007825032230
         H           -5.123472454882     0.158314829227    -0.062961842177     1.007825032230

  Basis Set: AUG-CC-PVTZ
    Blend: AUG-CC-PVTZ
  Basis Set: (AUG-CC-PVTZ AUX)
    Blend: AUG-CC-PVTZ-JKFIT
	 Reference Energy          =    -746.8418161539665334 [Eh]
	 Singles Energy            =      -0.0000000000000000 [Eh]
	 Same-Spin Energy          =      -0.4299943717115665 [Eh]
	 Opposite-Spin Energy      =      -1.4619415902179396 [Eh]
	 Correlation Energy        =      -1.8919359619295060 [Eh]
	 Total Energy              =    -748.7337521158960953 [Eh]

	 ================> DF-SCS-MP2 Energies <==================
	-----------------------------------------------------------
	 SCS Same-Spin Scale       =       0.3333333333333333 [-]
	 SCS Opposite-Spin Scale   =       1.2000000000000000 [-]
	 SCS Same-Spin Energy      =      -0.1433314572371888 [Eh]
	 SCS Opposite-Spin Energy  =      -1.7543299082615273 [Eh]
	 SCS Correlation Energy    =      -1.8976613654987162 [Eh]
	 SCS Total Energy          =    -748.7394775194652539 [Eh]
	-----------------------------------------------------------

  Dipole Moment: [D]
     X:     0.0511      Y:     2.8135      Z:    -2.2690     Total:     3.6148

*** Psi4 exiting successfully. Buy a developer a beer!
