                               Psi4 1.4a3.dev225

  ==> Input File <==

--------------------------------------------------------------------------
#psi4
#
memory 32 gb

molecule  {
0 1
  S       -0.2613620    -0.5930190    -0.1424790
  O       -0.2653677    -1.2636935     1.2197645
  C        2.3977240     0.0716980     0.1844310
  C        1.0261530     0.6905850    -0.0782140
  C       -1.6743200     0.5466190    -0.2136450
  C        2.8653030    -0.7972080    -0.9817560
  C        3.4104270     1.1761770     0.4821660
  C       -2.9771600    -0.2389800    -0.1306750
  C       -4.1937400     0.6821530    -0.1120660
  H        2.2947170    -0.5588030     1.0765090
  H        0.7552030     1.3745990     0.7353710
  H        1.0111040     1.2381230    -1.0301620
  H       -1.5863530     1.2355690     0.6350930
  H       -1.6018540     1.1165020    -1.1483330
  H        2.9531350    -0.1978260    -1.8953020
  H        3.8477320    -1.2283710    -0.7670690
  H        2.1762820    -1.6227130    -1.1817050
  H        3.5229730     1.8417250    -0.3809710
  H        4.3924350     0.7485930     0.7071400
  H        3.0997810     1.7802300     1.3402560
  H       -3.0432920    -0.9285740    -0.9804800
  H       -2.9504610    -0.8515990     0.7760110
  H       -4.1584820     1.3575060     0.7479640
  H       -4.2413300     1.2926870    -1.0190020
  H       -5.1195520     0.1037900    -0.0468840
units angstrom
no_reorient  #important for SAPT in psi4, default
symmetry c1  #important for SAPT in psi4, default
}

set PROPERTIES_ORIGIN ["COM"]
properties('MP2/aug-cc-pvtz', properties = ['dipole'])
--------------------------------------------------------------------------

    Molecular point group: c1
  Charge       = 0
  Multiplicity = 1
  Basis Set: AUG-CC-PVTZ
    Blend: AUG-CC-PVTZ
  Basis Set: (AUG-CC-PVTZ AUX)
    Blend: AUG-CC-PVTZ-JKFIT

    Orbital Energies [Eh]
    ---------------------

    Doubly Occupied:

       1A    -92.057424     2A    -20.497986     3A    -11.262245
       4A    -11.259673     5A    -11.237337     6A    -11.233998
       7A    -11.224099     8A    -11.220815     9A    -11.217443
      10A     -9.044880    11A     -6.726486    12A     -6.726293
      13A     -6.725014    14A     -1.317193    15A     -1.109472
      16A     -1.085535    17A     -1.007798    18A     -0.942049
      19A     -0.936902    20A     -0.845776    21A     -0.800431
      22A     -0.772578    23A     -0.664735    24A     -0.649372
      25A     -0.629744    26A     -0.610963    27A     -0.593057
      28A     -0.588011    29A     -0.566534    30A     -0.554582
      31A     -0.544919    32A     -0.533069    33A     -0.514195
      34A     -0.506456    35A     -0.499844    36A     -0.486572
      37A     -0.479839    38A     -0.475628    39A     -0.472098
      40A     -0.403864    41A     -0.358933

  @DF-RHF Final Energy:  -746.89151439738532

   => Energetics <=

    Nuclear Repulsion Energy =            575.2202448679832969
    One-Electron Energy =               -2165.4558315432477684
    Two-Electron Energy =                 843.3440722778792633
    Total Energy =                       -746.8915143973853219
  Basis Set: (AUG-CC-PVTZ AUX)
    Blend: AUG-CC-PVTZ-RI
    Molecular point group: c1

    Geometry (in Angstrom), charge = 0, multiplicity = 1:

       Center              X                  Y                   Z               Mass
    ------------   -----------------  -----------------  -----------------  -----------------
         S           -0.254706980217    -0.546788942116    -0.158057007830    31.972071174400
         O           -0.258712680217    -1.217463442116     1.204186492170    15.994914619570
         C            2.404379019783     0.117928057884     0.168852992170    12.000000000000
         C            1.032808019783     0.736815057884    -0.093792007830    12.000000000000
         C           -1.667664980217     0.592849057884    -0.229223007830    12.000000000000
         C            2.871958019783    -0.750977942116    -0.997334007830    12.000000000000
         C            3.417082019783     1.222407057884     0.466587992170    12.000000000000
         C           -2.970504980217    -0.192749942116    -0.146253007830    12.000000000000
         C           -4.187084980217     0.728383057884    -0.127644007830    12.000000000000
         H            2.301372019783    -0.512572942116     1.060930992170     1.007825032230
         H            0.761858019783     1.420829057884     0.719792992170     1.007825032230
         H            1.017759019783     1.284353057884    -1.045740007830     1.007825032230
         H           -1.579697980217     1.281799057884     0.619514992170     1.007825032230
         H           -1.595198980217     1.162732057884    -1.163911007830     1.007825032230
         H            2.959790019783    -0.151595942116    -1.910880007830     1.007825032230
         H            3.854387019783    -1.182140942116    -0.782647007830     1.007825032230
         H            2.182937019783    -1.576482942116    -1.197283007830     1.007825032230
         H            3.529628019783     1.887955057884    -0.396549007830     1.007825032230
         H            4.399090019783     0.794823057884     0.691561992170     1.007825032230
         H            3.106436019783     1.826460057884     1.324677992170     1.007825032230
         H           -3.036636980217    -0.882343942116    -0.996058007830     1.007825032230
         H           -2.943805980217    -0.805368942116     0.760432992170     1.007825032230
         H           -4.151826980217     1.403736057884     0.732385992170     1.007825032230
         H           -4.234674980217     1.338917057884    -1.034580007830     1.007825032230
         H           -5.112896980217     0.150020057884    -0.062462007830     1.007825032230

  Basis Set: AUG-CC-PVTZ
    Blend: AUG-CC-PVTZ
  Basis Set: (AUG-CC-PVTZ AUX)
    Blend: AUG-CC-PVTZ-JKFIT
	 Reference Energy          =    -746.8915143973853219 [Eh]
	 Singles Energy            =      -0.0000000000000000 [Eh]
	 Same-Spin Energy          =      -0.4272669416852024 [Eh]
	 Opposite-Spin Energy      =      -1.4582451287022771 [Eh]
	 Correlation Energy        =      -1.8855120703874795 [Eh]
	 Total Energy              =    -748.7770264677727710 [Eh]

	 ================> DF-SCS-MP2 Energies <==================
	-----------------------------------------------------------
	 SCS Same-Spin Scale       =       0.3333333333333333 [-]
	 SCS Opposite-Spin Scale   =       1.2000000000000000 [-]
	 SCS Same-Spin Energy      =      -0.1424223138950675 [Eh]
	 SCS Opposite-Spin Energy  =      -1.7498941544427324 [Eh]
	 SCS Correlation Energy    =      -1.8923164683378000 [Eh]
	 SCS Total Energy          =    -748.7838308657230755 [Eh]
	-----------------------------------------------------------

  Dipole Moment: [D]
     X:    -0.1105      Y:     2.9113      Z:    -2.2569     Total:     3.6853

*** Psi4 exiting successfully. Buy a developer a beer!
