                               Psi4 1.4a3.dev225

  ==> Input File <==

--------------------------------------------------------------------------
#psi4
#
memory 32 gb

molecule  {
0 1
  S       -0.2613620    -0.5930190    -0.1424790
  O       -0.2870700    -1.2499240     1.2262220
  C        2.3977240     0.0716980     0.1844310
  C        1.0065388     0.6415936    -0.0858155
  C       -1.6743200     0.5466190    -0.2136450
  C        2.8653030    -0.7972080    -0.9817560
  C        3.4104270     1.1761770     0.4821660
  C       -2.9771600    -0.2389800    -0.1306750
  C       -4.1937400     0.6821530    -0.1120660
  H        2.2947170    -0.5588030     1.0765090
  H        0.7552030     1.3745990     0.7353710
  H        1.0111040     1.2381230    -1.0301620
  H       -1.5863530     1.2355690     0.6350930
  H       -1.6018540     1.1165020    -1.1483330
  H        2.9531350    -0.1978260    -1.8953020
  H        3.8477320    -1.2283710    -0.7670690
  H        2.1762820    -1.6227130    -1.1817050
  H        3.5229730     1.8417250    -0.3809710
  H        4.3924350     0.7485930     0.7071400
  H        3.0997810     1.7802300     1.3402560
  H       -3.0432920    -0.9285740    -0.9804800
  H       -2.9504610    -0.8515990     0.7760110
  H       -4.1584820     1.3575060     0.7479640
  H       -4.2413300     1.2926870    -1.0190020
  H       -5.1195520     0.1037900    -0.0468840
units angstrom
no_reorient  #important for SAPT in psi4, default
symmetry c1  #important for SAPT in psi4, default
}

set PROPERTIES_ORIGIN ["COM"]
properties('MP2/aug-cc-pvtz', properties = ['dipole'])
--------------------------------------------------------------------------

    Molecular point group: c1
  Charge       = 0
  Multiplicity = 1
  Basis Set: AUG-CC-PVTZ
    Blend: AUG-CC-PVTZ
  Basis Set: (AUG-CC-PVTZ AUX)
    Blend: AUG-CC-PVTZ-JKFIT

    Orbital Energies [Eh]
    ---------------------

    Doubly Occupied:

       1A    -92.058198     2A    -20.497244     3A    -11.262355
       4A    -11.261369     5A    -11.238223     6A    -11.233934
       7A    -11.224101     8A    -11.222020     9A    -11.217259
      10A     -9.046135    11A     -6.727852    12A     -6.727604
      13A     -6.726292    14A     -1.318603    15A     -1.111213
      16A     -1.085477    17A     -1.011728    18A     -0.942707
      19A     -0.936855    20A     -0.846334    21A     -0.802010
      22A     -0.769590    23A     -0.663632    24A     -0.649906
      25A     -0.631004    26A     -0.610946    27A     -0.593185
      28A     -0.587550    29A     -0.566334    30A     -0.554143
      31A     -0.544975    32A     -0.533443    33A     -0.514919
      34A     -0.504441    35A     -0.499692    36A     -0.486651
      37A     -0.479794    38A     -0.472960    39A     -0.470697
      40A     -0.408181    41A     -0.360215

  @DF-RHF Final Energy:  -746.88903123806233

   => Energetics <=

    Nuclear Repulsion Energy =            576.1352915813462232
    One-Electron Energy =               -2167.2491008848992351
    Two-Electron Energy =                 844.2247780654905682
    Total Energy =                       -746.8890312380623300
  Basis Set: (AUG-CC-PVTZ AUX)
    Blend: AUG-CC-PVTZ-RI
    Molecular point group: c1

    Geometry (in Angstrom), charge = 0, multiplicity = 1:

       Center              X                  Y                   Z               Mass
    ------------   -----------------  -----------------  -----------------  -----------------
         S           -0.250773640788    -0.544306334274    -0.158138505453    31.972071174400
         O           -0.276481640788    -1.201211334274     1.210562494547    15.994914619570
         C            2.408312359212     0.120410665726     0.168771494547    12.000000000000
         C            1.017127159212     0.690306265726    -0.101475005453    12.000000000000
         C           -1.663731640788     0.595331665726    -0.229304505453    12.000000000000
         C            2.875891359212    -0.748495334274    -0.997415505453    12.000000000000
         C            3.421015359212     1.224889665726     0.466506494547    12.000000000000
         C           -2.966571640788    -0.190267334274    -0.146334505453    12.000000000000
         C           -4.183151640788     0.730865665726    -0.127725505453    12.000000000000
         H            2.305305359212    -0.510090334274     1.060849494547     1.007825032230
         H            0.765791359212     1.423311665726     0.719711494547     1.007825032230
         H            1.021692359212     1.286835665726    -1.045821505453     1.007825032230
         H           -1.575764640788     1.284281665726     0.619433494547     1.007825032230
         H           -1.591265640788     1.165214665726    -1.163992505453     1.007825032230
         H            2.963723359212    -0.149113334274    -1.910961505453     1.007825032230
         H            3.858320359212    -1.179658334274    -0.782728505453     1.007825032230
         H            2.186870359212    -1.574000334274    -1.197364505453     1.007825032230
         H            3.533561359212     1.890437665726    -0.396630505453     1.007825032230
         H            4.403023359212     0.797305665726     0.691480494547     1.007825032230
         H            3.110369359212     1.828942665726     1.324596494547     1.007825032230
         H           -3.032703640788    -0.879861334274    -0.996139505453     1.007825032230
         H           -2.939872640788    -0.802886334274     0.760351494547     1.007825032230
         H           -4.147893640788     1.406218665726     0.732304494547     1.007825032230
         H           -4.230741640788     1.341399665726    -1.034661505453     1.007825032230
         H           -5.108963640788     0.152502665726    -0.062543505453     1.007825032230

  Basis Set: AUG-CC-PVTZ
    Blend: AUG-CC-PVTZ
  Basis Set: (AUG-CC-PVTZ AUX)
    Blend: AUG-CC-PVTZ-JKFIT
	 Reference Energy          =    -746.8890312380623300 [Eh]
	 Singles Energy            =      -0.0000000000000000 [Eh]
	 Same-Spin Energy          =      -0.4274916702962261 [Eh]
	 Opposite-Spin Energy      =      -1.4582542612025060 [Eh]
	 Correlation Energy        =      -1.8857459314987322 [Eh]
	 Total Energy              =    -748.7747771695610481 [Eh]

	 ================> DF-SCS-MP2 Energies <==================
	-----------------------------------------------------------
	 SCS Same-Spin Scale       =       0.3333333333333333 [-]
	 SCS Opposite-Spin Scale   =       1.2000000000000000 [-]
	 SCS Same-Spin Energy      =      -0.1424972234320754 [Eh]
	 SCS Opposite-Spin Energy  =      -1.7499051134430073 [Eh]
	 SCS Correlation Energy    =      -1.8924023368750826 [Eh]
	 SCS Total Energy          =    -748.7814335749374095 [Eh]
	-----------------------------------------------------------

  Dipole Moment: [D]
     X:    -0.0313      Y:     2.9194      Z:    -2.2842     Total:     3.7069

*** Psi4 exiting successfully. Buy a developer a beer!
