                               Psi4 1.4a3.dev225

  ==> Input File <==

--------------------------------------------------------------------------
#psi4
#
memory 32 gb

molecule  {
0 1
  S       -0.2613620    -0.5930190    -0.1424790
  O       -0.2870700    -1.2499240     1.2262220
  C        2.3977240     0.0716980     0.1844310
  C        1.0261530     0.6905850    -0.0782140
  C       -1.6743200     0.5466190    -0.2136450
  C        2.8653030    -0.7972080    -0.9817560
  C        3.4104270     1.1761770     0.4821660
  C       -3.0130527    -0.1783794    -0.2737606
  C       -4.1937400     0.6821530    -0.1120660
  H        2.2947170    -0.5588030     1.0765090
  H        0.7552030     1.3745990     0.7353710
  H        1.0111040     1.2381230    -1.0301620
  H       -1.5863530     1.2355690     0.6350930
  H       -1.6018540     1.1165020    -1.1483330
  H        2.9531350    -0.1978260    -1.8953020
  H        3.8477320    -1.2283710    -0.7670690
  H        2.1762820    -1.6227130    -1.1817050
  H        3.5229730     1.8417250    -0.3809710
  H        4.3924350     0.7485930     0.7071400
  H        3.0997810     1.7802300     1.3402560
  H       -3.0432920    -0.9285740    -0.9804800
  H       -2.9504610    -0.8515990     0.7760110
  H       -4.1584820     1.3575060     0.7479640
  H       -4.2413300     1.2926870    -1.0190020
  H       -5.1195520     0.1037900    -0.0468840
units angstrom
no_reorient  #important for SAPT in psi4, default
symmetry c1  #important for SAPT in psi4, default
}

set PROPERTIES_ORIGIN ["COM"]
properties('MP2/aug-cc-pvtz', properties = ['dipole'])
--------------------------------------------------------------------------

    Molecular point group: c1
  Charge       = 0
  Multiplicity = 1
  Basis Set: AUG-CC-PVTZ
    Blend: AUG-CC-PVTZ
  Basis Set: (AUG-CC-PVTZ AUX)
    Blend: AUG-CC-PVTZ-JKFIT

    Orbital Energies [Eh]
    ---------------------

    Doubly Occupied:

       1A    -92.059304     2A    -20.497376     3A    -11.263006
       4A    -11.260902     5A    -11.238612     6A    -11.238445
       7A    -11.223067     8A    -11.221554     9A    -11.218247
      10A     -9.046567    11A     -6.728161    12A     -6.728017
      13A     -6.726717    14A     -1.316977    15A     -1.110679
      16A     -1.089996    17A     -1.012755    18A     -0.945740
      19A     -0.937697    20A     -0.845337    21A     -0.799859
      22A     -0.773518    23A     -0.661403    24A     -0.648372
      25A     -0.635301    26A     -0.610532    27A     -0.595788
      28A     -0.593293    29A     -0.563539    30A     -0.560118
      31A     -0.546587    32A     -0.538951    33A     -0.525730
      34A     -0.510704    35A     -0.505482    36A     -0.480993
      37A     -0.477389    38A     -0.473625    39A     -0.436046
      40A     -0.405395    41A     -0.359580

  @DF-RHF Final Energy:  -746.86651620248324

   => Energetics <=

    Nuclear Repulsion Energy =            575.0140972626307985
    One-Electron Energy =               -2164.9385003442434936
    Two-Electron Energy =                 843.0578868791293417
    Total Energy =                       -746.8665162024832398
  Basis Set: (AUG-CC-PVTZ AUX)
    Blend: AUG-CC-PVTZ-RI
    Molecular point group: c1

    Geometry (in Angstrom), charge = 0, multiplicity = 1:

       Center              X                  Y                   Z               Mass
    ------------   -----------------  -----------------  -----------------  -----------------
         S           -0.249454584024    -0.553186640742    -0.147160146362    31.972071174400
         O           -0.275162584024    -1.210091640742     1.221540853638    15.994914619570
         C            2.409631415976     0.111530359258     0.179749853638    12.000000000000
         C            1.038060415976     0.730417359258    -0.082895146362    12.000000000000
         C           -1.662412584024     0.586451359258    -0.218326146362    12.000000000000
         C            2.877210415976    -0.757375640742    -0.986437146362    12.000000000000
         C            3.422334415976     1.216009359258     0.477484853638    12.000000000000
         C           -3.001145284024    -0.138547040742    -0.278441746362    12.000000000000
         C           -4.181832584024     0.721985359258    -0.116747146362    12.000000000000
         H            2.306624415976    -0.518970640742     1.071827853638     1.007825032230
         H            0.767110415976     1.414431359258     0.730689853638     1.007825032230
         H            1.023011415976     1.277955359258    -1.034843146362     1.007825032230
         H           -1.574445584024     1.275401359258     0.630411853638     1.007825032230
         H           -1.589946584024     1.156334359258    -1.153014146362     1.007825032230
         H            2.965042415976    -0.157993640742    -1.899983146362     1.007825032230
         H            3.859639415976    -1.188538640742    -0.771750146362     1.007825032230
         H            2.188189415976    -1.582880640742    -1.186386146362     1.007825032230
         H            3.534880415976     1.881557359258    -0.385652146362     1.007825032230
         H            4.404342415976     0.788425359258     0.702458853638     1.007825032230
         H            3.111688415976     1.820062359258     1.335574853638     1.007825032230
         H           -3.031384584024    -0.888741640742    -0.985161146362     1.007825032230
         H           -2.938553584024    -0.811766640742     0.771329853638     1.007825032230
         H           -4.146574584024     1.397338359258     0.743282853638     1.007825032230
         H           -4.229422584024     1.332519359258    -1.023683146362     1.007825032230
         H           -5.107644584024     0.143622359258    -0.051565146362     1.007825032230

  Basis Set: AUG-CC-PVTZ
    Blend: AUG-CC-PVTZ
  Basis Set: (AUG-CC-PVTZ AUX)
    Blend: AUG-CC-PVTZ-JKFIT
	 Reference Energy          =    -746.8665162024832398 [Eh]
	 Singles Energy            =      -0.0000000000000000 [Eh]
	 Same-Spin Energy          =      -0.4281417242945857 [Eh]
	 Opposite-Spin Energy      =      -1.4600137036514860 [Eh]
	 Correlation Energy        =      -1.8881554279460717 [Eh]
	 Total Energy              =    -748.7546716304293568 [Eh]

	 ================> DF-SCS-MP2 Energies <==================
	-----------------------------------------------------------
	 SCS Same-Spin Scale       =       0.3333333333333333 [-]
	 SCS Opposite-Spin Scale   =       1.2000000000000000 [-]
	 SCS Same-Spin Energy      =      -0.1427139080981952 [Eh]
	 SCS Opposite-Spin Energy  =      -1.7520164443817832 [Eh]
	 SCS Correlation Energy    =      -1.8947303524799783 [Eh]
	 SCS Total Energy          =    -748.7612465549632361 [Eh]
	-----------------------------------------------------------

  Dipole Moment: [D]
     X:    -0.0066      Y:     2.9083      Z:    -2.3257     Total:     3.7239

*** Psi4 exiting successfully. Buy a developer a beer!
