                               Psi4 1.4a3.dev225

  ==> Input File <==

--------------------------------------------------------------------------
#psi4
#
memory 32 gb

molecule  {
0 1
  S       -0.2613620    -0.5930190    -0.1424790
  O       -0.2870700    -1.2499240     1.2262220
  C        2.3977240     0.0716980     0.1844310
  C        1.0261530     0.6905850    -0.0782140
  C       -1.6743200     0.5466190    -0.2136450
  C        2.8653030    -0.7972080    -0.9817560
  C        3.4104270     1.1761770     0.4821660
  C       -2.9771600    -0.2389800    -0.1306750
  C       -4.1937400     0.6821530    -0.1120660
  H        2.2947170    -0.5588030     1.0765090
  H        0.7552030     1.3745990     0.7353710
  H        1.0111040     1.2381230    -1.0301620
  H       -1.5863530     1.2355690     0.6350930
  H       -1.6018540     1.1165020    -1.1483330
  H        2.9531350    -0.1978260    -1.8953020
  H        3.8477320    -1.2283710    -0.7670690
  H        2.1762820    -1.6227130    -1.1817050
  H        3.5229730     1.8417250    -0.3809710
  H        4.3924350     0.7485930     0.7071400
  H        3.0997810     1.7802300     1.3402560
  H       -3.0432920    -0.9285740    -0.9804800
  H       -2.9504610    -0.8515990     0.7760110
  H       -4.1578375     1.3698517     0.7636856
  H       -4.2413300     1.2926870    -1.0190020
  H       -5.1195520     0.1037900    -0.0468840
units angstrom
no_reorient  #important for SAPT in psi4, default
symmetry c1  #important for SAPT in psi4, default
}

set PROPERTIES_ORIGIN ["COM"]
properties('MP2/aug-cc-pvtz', properties = ['dipole'])
--------------------------------------------------------------------------

    Molecular point group: c1
  Charge       = 0
  Multiplicity = 1
  Basis Set: AUG-CC-PVTZ
    Blend: AUG-CC-PVTZ
  Basis Set: (AUG-CC-PVTZ AUX)
    Blend: AUG-CC-PVTZ-JKFIT

    Orbital Energies [Eh]
    ---------------------

    Doubly Occupied:

       1A    -92.057608     2A    -20.497478     3A    -11.261767
       4A    -11.259847     5A    -11.237754     6A    -11.233722
       7A    -11.226231     8A    -11.221062     9A    -11.217808
      10A     -9.045066    11A     -6.726665    12A     -6.726477
      13A     -6.725191    14A     -1.317131    15A     -1.109642
      16A     -1.084919    17A     -1.007320    18A     -0.941315
      19A     -0.937225    20A     -0.844964    21A     -0.799946
      22A     -0.772950    23A     -0.664431    24A     -0.649107
      25A     -0.629666    26A     -0.611134    27A     -0.593115
      28A     -0.587200    29A     -0.566259    30A     -0.553187
      31A     -0.545177    32A     -0.533192    33A     -0.514181
      34A     -0.506201    35A     -0.498837    36A     -0.485677
      37A     -0.480043    38A     -0.475647    39A     -0.472508
      40A     -0.403518    41A     -0.359375

  @DF-RHF Final Energy:  -746.89116696790961

   => Energetics <=

    Nuclear Repulsion Energy =            575.1930555595499754
    One-Electron Energy =               -2165.4073636648518004
    Two-Electron Energy =                 843.3231411373922128
    Total Energy =                       -746.8911669679096121
  Basis Set: (AUG-CC-PVTZ AUX)
    Blend: AUG-CC-PVTZ-RI
    Molecular point group: c1

    Geometry (in Angstrom), charge = 0, multiplicity = 1:

       Center              X                  Y                   Z               Mass
    ------------   -----------------  -----------------  -----------------  -----------------
         S           -0.252367377426    -0.548360154536    -0.158861451239    31.972071174400
         O           -0.278075377426    -1.205265154536     1.209839548761    15.994914619570
         C            2.406718622574     0.116356845464     0.168048548761    12.000000000000
         C            1.035147622574     0.735243845464    -0.094596451239    12.000000000000
         C           -1.665325377426     0.591277845464    -0.230027451239    12.000000000000
         C            2.874297622574    -0.752549154536    -0.998138451239    12.000000000000
         C            3.419421622574     1.220835845464     0.465783548761    12.000000000000
         C           -2.968165377426    -0.194321154536    -0.147057451239    12.000000000000
         C           -4.184745377426     0.726811845464    -0.128448451239    12.000000000000
         H            2.303711622574    -0.514144154536     1.060126548761     1.007825032230
         H            0.764197622574     1.419257845464     0.718988548761     1.007825032230
         H            1.020098622574     1.282781845464    -1.046544451239     1.007825032230
         H           -1.577358377426     1.280227845464     0.618710548761     1.007825032230
         H           -1.592859377426     1.161160845464    -1.164715451239     1.007825032230
         H            2.962129622574    -0.153167154536    -1.911684451239     1.007825032230
         H            3.856726622574    -1.183712154536    -0.783451451239     1.007825032230
         H            2.185276622574    -1.578054154536    -1.198087451239     1.007825032230
         H            3.531967622574     1.886383845464    -0.397353451239     1.007825032230
         H            4.401429622574     0.793251845464     0.690757548761     1.007825032230
         H            3.108775622574     1.824888845464     1.323873548761     1.007825032230
         H           -3.034297377426    -0.883915154536    -0.996862451239     1.007825032230
         H           -2.941466377426    -0.806940154536     0.759628548761     1.007825032230
         H           -4.148842877426     1.414510545464     0.747303148761     1.007825032230
         H           -4.232335377426     1.337345845464    -1.035384451239     1.007825032230
         H           -5.110557377426     0.148448845464    -0.063266451239     1.007825032230

  Basis Set: AUG-CC-PVTZ
    Blend: AUG-CC-PVTZ
  Basis Set: (AUG-CC-PVTZ AUX)
    Blend: AUG-CC-PVTZ-JKFIT
	 Reference Energy          =    -746.8911669679096121 [Eh]
	 Singles Energy            =      -0.0000000000000000 [Eh]
	 Same-Spin Energy          =      -0.4272524122694031 [Eh]
	 Opposite-Spin Energy      =      -1.4583536509713699 [Eh]
	 Correlation Energy        =      -1.8856060632407732 [Eh]
	 Total Energy              =    -748.7767730311503556 [Eh]

	 ================> DF-SCS-MP2 Energies <==================
	-----------------------------------------------------------
	 SCS Same-Spin Scale       =       0.3333333333333333 [-]
	 SCS Opposite-Spin Scale   =       1.2000000000000000 [-]
	 SCS Same-Spin Energy      =      -0.1424174707564677 [Eh]
	 SCS Opposite-Spin Energy  =      -1.7500243811656440 [Eh]
	 SCS Correlation Energy    =      -1.8924418519221116 [Eh]
	 SCS Total Energy          =    -748.7836088198316702 [Eh]
	-----------------------------------------------------------

  Dipole Moment: [D]
     X:    -0.0503      Y:     2.8778      Z:    -2.2865     Total:     3.6760

*** Psi4 exiting successfully. Buy a developer a beer!
