                               Psi4 1.4a3.dev225

  ==> Input File <==

--------------------------------------------------------------------------
#psi4
#
memory 32 gb

molecule  {
0 1
  S       -0.2613620    -0.5930190    -0.1424790
  O       -0.2870700    -1.2499240     1.2262220
  C        2.3977240     0.0716980     0.1844310
  C        1.0483305     0.6678913    -0.0770958
  C       -1.6743200     0.5466190    -0.2136450
  C        2.8653030    -0.7972080    -0.9817560
  C        3.4104270     1.1761770     0.4821660
  C       -2.9771600    -0.2389800    -0.1306750
  C       -4.1937400     0.6821530    -0.1120660
  H        2.2947170    -0.5588030     1.0765090
  H        0.7552030     1.3745990     0.7353710
  H        1.0111040     1.2381230    -1.0301620
  H       -1.5863530     1.2355690     0.6350930
  H       -1.6018540     1.1165020    -1.1483330
  H        2.9531350    -0.1978260    -1.8953020
  H        3.8477320    -1.2283710    -0.7670690
  H        2.1762820    -1.6227130    -1.1817050
  H        3.5229730     1.8417250    -0.3809710
  H        4.3924350     0.7485930     0.7071400
  H        3.0997810     1.7802300     1.3402560
  H       -3.0432920    -0.9285740    -0.9804800
  H       -2.9504610    -0.8515990     0.7760110
  H       -4.1584820     1.3575060     0.7479640
  H       -4.2413300     1.2926870    -1.0190020
  H       -5.1195520     0.1037900    -0.0468840
units angstrom
no_reorient  #important for SAPT in psi4, default
symmetry c1  #important for SAPT in psi4, default
}

set PROPERTIES_ORIGIN ["COM"]
properties('MP2/aug-cc-pvtz', properties = ['dipole'])
--------------------------------------------------------------------------

    Molecular point group: c1
  Charge       = 0
  Multiplicity = 1
  Basis Set: AUG-CC-PVTZ
    Blend: AUG-CC-PVTZ
  Basis Set: (AUG-CC-PVTZ AUX)
    Blend: AUG-CC-PVTZ-JKFIT

    Orbital Energies [Eh]
    ---------------------

    Doubly Occupied:

       1A    -92.057392     2A    -20.496844     3A    -11.262352
       4A    -11.261734     5A    -11.236214     6A    -11.233984
       7A    -11.224074     8A    -11.221496     9A    -11.217809
      10A     -9.044891    11A     -6.726482    12A     -6.726338
      13A     -6.725018    14A     -1.316810    15A     -1.112991
      16A     -1.085960    17A     -1.006942    18A     -0.942264
      19A     -0.937641    20A     -0.847093    21A     -0.800960
      22A     -0.771727    23A     -0.664031    24A     -0.650305
      25A     -0.630205    26A     -0.611747    27A     -0.593007
      28A     -0.587200    29A     -0.566706    30A     -0.553158
      31A     -0.544837    32A     -0.532239    33A     -0.514610
      34A     -0.505638    35A     -0.499914    36A     -0.486637
      37A     -0.480037    38A     -0.479229    39A     -0.471139
      40A     -0.404197    41A     -0.357912

  @DF-RHF Final Energy:  -746.89047913467243

   => Energetics <=

    Nuclear Repulsion Energy =            575.5342157900344091
    One-Electron Energy =               -2166.0698641085386953
    Two-Electron Energy =                 843.6451691838317402
    Total Energy =                       -746.8904791346724323
  Basis Set: (AUG-CC-PVTZ AUX)
    Blend: AUG-CC-PVTZ-RI
    Molecular point group: c1

    Geometry (in Angstrom), charge = 0, multiplicity = 1:

       Center              X                  Y                   Z               Mass
    ------------   -----------------  -----------------  -----------------  -----------------
         S           -0.254160047677    -0.546437252912    -0.158845068052    31.972071174400
         O           -0.279868047677    -1.203342252912     1.209855931948    15.994914619570
         C            2.404925952323     0.118279747088     0.168064931948    12.000000000000
         C            1.055532452323     0.714473047088    -0.093461868052    12.000000000000
         C           -1.667118047677     0.593200747088    -0.230011068052    12.000000000000
         C            2.872504952323    -0.750626252912    -0.998122068052    12.000000000000
         C            3.417628952323     1.222758747088     0.465799931948    12.000000000000
         C           -2.969958047677    -0.192398252912    -0.147041068052    12.000000000000
         C           -4.186538047677     0.728734747088    -0.128432068052    12.000000000000
         H            2.301918952323    -0.512221252912     1.060142931948     1.007825032230
         H            0.762404952323     1.421180747088     0.719004931948     1.007825032230
         H            1.018305952323     1.284704747088    -1.046528068052     1.007825032230
         H           -1.579151047677     1.282150747088     0.618726931948     1.007825032230
         H           -1.594652047677     1.163083747088    -1.164699068052     1.007825032230
         H            2.960336952323    -0.151244252912    -1.911668068052     1.007825032230
         H            3.854933952323    -1.181789252912    -0.783435068052     1.007825032230
         H            2.183483952323    -1.576131252912    -1.198071068052     1.007825032230
         H            3.530174952323     1.888306747088    -0.397337068052     1.007825032230
         H            4.399636952323     0.795174747088     0.690773931948     1.007825032230
         H            3.106982952323     1.826811747088     1.323889931948     1.007825032230
         H           -3.036090047677    -0.881992252912    -0.996846068052     1.007825032230
         H           -2.943259047677    -0.805017252912     0.759644931948     1.007825032230
         H           -4.151280047677     1.404087747088     0.731597931948     1.007825032230
         H           -4.234128047677     1.339268747088    -1.035368068052     1.007825032230
         H           -5.112350047677     0.150371747088    -0.063250068052     1.007825032230

  Basis Set: AUG-CC-PVTZ
    Blend: AUG-CC-PVTZ
  Basis Set: (AUG-CC-PVTZ AUX)
    Blend: AUG-CC-PVTZ-JKFIT
	 Reference Energy          =    -746.8904791346724323 [Eh]
	 Singles Energy            =      -0.0000000000000000 [Eh]
	 Same-Spin Energy          =      -0.4274769055813522 [Eh]
	 Opposite-Spin Energy      =      -1.4583840234836996 [Eh]
	 Correlation Energy        =      -1.8858609290650516 [Eh]
	 Total Energy              =    -748.7763400637375071 [Eh]

	 ================> DF-SCS-MP2 Energies <==================
	-----------------------------------------------------------
	 SCS Same-Spin Scale       =       0.3333333333333333 [-]
	 SCS Opposite-Spin Scale   =       1.2000000000000000 [-]
	 SCS Same-Spin Energy      =      -0.1424923018604507 [Eh]
	 SCS Opposite-Spin Energy  =      -1.7500608281804395 [Eh]
	 SCS Correlation Energy    =      -1.8925531300408902 [Eh]
	 SCS Total Energy          =    -748.7830322647133698 [Eh]
	-----------------------------------------------------------

  Dipole Moment: [D]
     X:    -0.0554      Y:     2.8991      Z:    -2.2793     Total:     3.6882

*** Psi4 exiting successfully. Buy a developer a beer!
