                               Psi4 1.4a3.dev225

  ==> Input File <==

--------------------------------------------------------------------------
#psi4
#
memory 32 gb

molecule  {
0 1
  S       -0.2613620    -0.5930190    -0.1424790
  O       -0.2874086    -1.2585766     1.2442502
  C        2.3977240     0.0716980     0.1844310
  C        1.0261530     0.6905850    -0.0782140
  C       -1.6743200     0.5466190    -0.2136450
  C        2.8653030    -0.7972080    -0.9817560
  C        3.4104270     1.1761770     0.4821660
  C       -2.9771600    -0.2389800    -0.1306750
  C       -4.1937400     0.6821530    -0.1120660
  H        2.2947170    -0.5588030     1.0765090
  H        0.7552030     1.3745990     0.7353710
  H        1.0111040     1.2381230    -1.0301620
  H       -1.5863530     1.2355690     0.6350930
  H       -1.6018540     1.1165020    -1.1483330
  H        2.9531350    -0.1978260    -1.8953020
  H        3.8477320    -1.2283710    -0.7670690
  H        2.1762820    -1.6227130    -1.1817050
  H        3.5229730     1.8417250    -0.3809710
  H        4.3924350     0.7485930     0.7071400
  H        3.0997810     1.7802300     1.3402560
  H       -3.0432920    -0.9285740    -0.9804800
  H       -2.9504610    -0.8515990     0.7760110
  H       -4.1584820     1.3575060     0.7479640
  H       -4.2413300     1.2926870    -1.0190020
  H       -5.1195520     0.1037900    -0.0468840
units angstrom
no_reorient  #important for SAPT in psi4, default
symmetry c1  #important for SAPT in psi4, default
}

set PROPERTIES_ORIGIN ["COM"]
properties('MP2/aug-cc-pvtz', properties = ['dipole'])
--------------------------------------------------------------------------

    Molecular point group: c1
  Charge       = 0
  Multiplicity = 1
  Basis Set: AUG-CC-PVTZ
    Blend: AUG-CC-PVTZ
  Basis Set: (AUG-CC-PVTZ AUX)
    Blend: AUG-CC-PVTZ-JKFIT

    Orbital Energies [Eh]
    ---------------------

    Doubly Occupied:

       1A    -92.058012     2A    -20.497675     3A    -11.263197
       4A    -11.261278     5A    -11.238027     6A    -11.233789
       7A    -11.224020     8A    -11.221313     9A    -11.218041
      10A     -9.045434    11A     -6.727037    12A     -6.726761
      13A     -6.725526    14A     -1.306237    15A     -1.110140
      16A     -1.085588    17A     -1.008638    18A     -0.942423
      19A     -0.937478    20A     -0.846481    21A     -0.801062
      22A     -0.773613    23A     -0.664821    24A     -0.649244
      25A     -0.629322    26A     -0.611123    27A     -0.592636
      28A     -0.587793    29A     -0.565976    30A     -0.552700
      31A     -0.545128    32A     -0.532859    33A     -0.513735
      34A     -0.503075    35A     -0.499479    36A     -0.486001
      37A     -0.479531    38A     -0.475380    39A     -0.472340
      40A     -0.402932    41A     -0.360656

  @DF-RHF Final Energy:  -746.88993142160746

   => Energetics <=

    Nuclear Repulsion Energy =            574.4469022802122709
    One-Electron Energy =               -2163.9206665710880770
    Two-Electron Energy =                 842.5838328692683490
    Total Energy =                       -746.8899314216074572
  Basis Set: (AUG-CC-PVTZ AUX)
    Blend: AUG-CC-PVTZ-RI
    Molecular point group: c1

    Geometry (in Angstrom), charge = 0, multiplicity = 1:

       Center              X                  Y                   Z               Mass
    ------------   -----------------  -----------------  -----------------  -----------------
         S           -0.252326420361    -0.547341600434    -0.160701621909    31.972071174400
         O           -0.278373020361    -1.212899200434     1.226027578091    15.994914619570
         C            2.406759579639     0.117375399566     0.166208378091    12.000000000000
         C            1.035188579639     0.736262399566    -0.096436621909    12.000000000000
         C           -1.665284420361     0.592296399566    -0.231867621909    12.000000000000
         C            2.874338579639    -0.751530600434    -0.999978621909    12.000000000000
         C            3.419462579639     1.221854399566     0.463943378091    12.000000000000
         C           -2.968124420361    -0.193302600434    -0.148897621909    12.000000000000
         C           -4.184704420361     0.727830399566    -0.130288621909    12.000000000000
         H            2.303752579639    -0.513125600434     1.058286378091     1.007825032230
         H            0.764238579639     1.420276399566     0.717148378091     1.007825032230
         H            1.020139579639     1.283800399566    -1.048384621909     1.007825032230
         H           -1.577317420361     1.281246399566     0.616870378091     1.007825032230
         H           -1.592818420361     1.162179399566    -1.166555621909     1.007825032230
         H            2.962170579639    -0.152148600434    -1.913524621909     1.007825032230
         H            3.856767579639    -1.182693600434    -0.785291621909     1.007825032230
         H            2.185317579639    -1.577035600434    -1.199927621909     1.007825032230
         H            3.532008579639     1.887402399566    -0.399193621909     1.007825032230
         H            4.401470579639     0.794270399566     0.688917378091     1.007825032230
         H            3.108816579639     1.825907399566     1.322033378091     1.007825032230
         H           -3.034256420361    -0.882896600434    -0.998702621909     1.007825032230
         H           -2.941425420361    -0.805921600434     0.757788378091     1.007825032230
         H           -4.149446420361     1.403183399566     0.729741378091     1.007825032230
         H           -4.232294420361     1.338364399566    -1.037224621909     1.007825032230
         H           -5.110516420361     0.149467399566    -0.065106621909     1.007825032230

  Basis Set: AUG-CC-PVTZ
    Blend: AUG-CC-PVTZ
  Basis Set: (AUG-CC-PVTZ AUX)
    Blend: AUG-CC-PVTZ-JKFIT
	 Reference Energy          =    -746.8899314216074572 [Eh]
	 Singles Energy            =      -0.0000000000000000 [Eh]
	 Same-Spin Energy          =      -0.4274814974714231 [Eh]
	 Opposite-Spin Energy      =      -1.4589856471705840 [Eh]
	 Correlation Energy        =      -1.8864671446420069 [Eh]
	 Total Energy              =    -748.7763985662494406 [Eh]

	 ================> DF-SCS-MP2 Energies <==================
	-----------------------------------------------------------
	 SCS Same-Spin Scale       =       0.3333333333333333 [-]
	 SCS Opposite-Spin Scale   =       1.2000000000000000 [-]
	 SCS Same-Spin Energy      =      -0.1424938324904743 [Eh]
	 SCS Opposite-Spin Energy  =      -1.7507827766047008 [Eh]
	 SCS Correlation Energy    =      -1.8932766090951751 [Eh]
	 SCS Total Energy          =    -748.7832080307026672 [Eh]
	-----------------------------------------------------------

  Dipole Moment: [D]
     X:    -0.0519      Y:     2.9574      Z:    -2.3610     Total:     3.7845

*** Psi4 exiting successfully. Buy a developer a beer!
