                               Psi4 1.4a3.dev225

  ==> Input File <==

--------------------------------------------------------------------------
#psi4
#
memory 32 gb

molecule  {
0 1
  S       -0.2613620    -0.5930190    -0.1424790
  O       -0.2870700    -1.2499240     1.2262220
  C        2.3977240     0.0716980     0.1844310
  C        1.0261530     0.6905850    -0.0782140
  C       -1.6743200     0.5466190    -0.2136450
  C        2.9947425    -0.7035839    -0.9886533
  C        3.4104270     1.1761770     0.4821660
  C       -2.9771600    -0.2389800    -0.1306750
  C       -4.1937400     0.6821530    -0.1120660
  H        2.2947170    -0.5588030     1.0765090
  H        0.7552030     1.3745990     0.7353710
  H        1.0111040     1.2381230    -1.0301620
  H       -1.5863530     1.2355690     0.6350930
  H       -1.6018540     1.1165020    -1.1483330
  H        2.9531350    -0.1978260    -1.8953020
  H        3.8477320    -1.2283710    -0.7670690
  H        2.1762820    -1.6227130    -1.1817050
  H        3.5229730     1.8417250    -0.3809710
  H        4.3924350     0.7485930     0.7071400
  H        3.0997810     1.7802300     1.3402560
  H       -3.0432920    -0.9285740    -0.9804800
  H       -2.9504610    -0.8515990     0.7760110
  H       -4.1584820     1.3575060     0.7479640
  H       -4.2413300     1.2926870    -1.0190020
  H       -5.1195520     0.1037900    -0.0468840
units angstrom
no_reorient  #important for SAPT in psi4, default
symmetry c1  #important for SAPT in psi4, default
}

set PROPERTIES_ORIGIN ["COM"]
properties('MP2/aug-cc-pvtz', properties = ['dipole'])
--------------------------------------------------------------------------

    Molecular point group: c1
  Charge       = 0
  Multiplicity = 1
  Basis Set: AUG-CC-PVTZ
    Blend: AUG-CC-PVTZ
  Basis Set: (AUG-CC-PVTZ AUX)
    Blend: AUG-CC-PVTZ-JKFIT

    Orbital Energies [Eh]
    ---------------------

    Doubly Occupied:

       1A    -92.057619     2A    -20.497492     3A    -11.262113
       4A    -11.261753     5A    -11.239305     6A    -11.233472
       7A    -11.223751     8A    -11.221469     9A    -11.219040
      10A     -9.045043    11A     -6.726630    12A     -6.726442
      13A     -6.725150    14A     -1.317095    15A     -1.110758
      16A     -1.085557    17A     -1.009802    18A     -0.944626
      19A     -0.933778    20A     -0.846470    21A     -0.800311
      22A     -0.776170    23A     -0.667774    24A     -0.652614
      25A     -0.628873    26A     -0.614918    27A     -0.594983
      28A     -0.586153    29A     -0.565393    30A     -0.558900
      31A     -0.552937    32A     -0.532133    33A     -0.513195
      34A     -0.506191    35A     -0.499809    36A     -0.486417
      37A     -0.481720    38A     -0.480978    39A     -0.444911
      40A     -0.403367    41A     -0.358345

  @DF-RHF Final Energy:  -746.86795552025421

   => Energetics <=

    Nuclear Repulsion Energy =            574.4986881137265300
    One-Electron Energy =               -2163.9463696397619970
    Two-Electron Energy =                 842.5797260057812537
    Total Energy =                       -746.8679555202542133
  Basis Set: (AUG-CC-PVTZ AUX)
    Blend: AUG-CC-PVTZ-RI
    Molecular point group: c1

    Geometry (in Angstrom), charge = 0, multiplicity = 1:

       Center              X                  Y                   Z               Mass
    ------------   -----------------  -----------------  -----------------  -----------------
         S           -0.262851552827    -0.555862555048    -0.158195567208    31.972071174400
         O           -0.288559552827    -1.212767555048     1.210505432792    15.994914619570
         C            2.396234447173     0.108854444952     0.168714432792    12.000000000000
         C            1.024663447173     0.727741444952    -0.093930567208    12.000000000000
         C           -1.675809552827     0.583775444952    -0.229361567208    12.000000000000
         C            2.993252947173    -0.666427455048    -1.004369867208    12.000000000000
         C            3.408937447173     1.213333444952     0.466449432792    12.000000000000
         C           -2.978649552827    -0.201823555048    -0.146391567208    12.000000000000
         C           -4.195229552827     0.719309444952    -0.127782567208    12.000000000000
         H            2.293227447173    -0.521646555048     1.060792432792     1.007825032230
         H            0.753713447173     1.411755444952     0.719654432792     1.007825032230
         H            1.009614447173     1.275279444952    -1.045878567208     1.007825032230
         H           -1.587842552827     1.272725444952     0.619376432792     1.007825032230
         H           -1.603343552827     1.153658444952    -1.164049567208     1.007825032230
         H            2.951645447173    -0.160669555048    -1.911018567208     1.007825032230
         H            3.846242447173    -1.191214555048    -0.782785567208     1.007825032230
         H            2.174792447173    -1.585556555048    -1.197421567208     1.007825032230
         H            3.521483447173     1.878881444952    -0.396687567208     1.007825032230
         H            4.390945447173     0.785749444952     0.691423432792     1.007825032230
         H            3.098291447173     1.817386444952     1.324539432792     1.007825032230
         H           -3.044781552827    -0.891417555048    -0.996196567208     1.007825032230
         H           -2.951950552827    -0.814442555048     0.760294432792     1.007825032230
         H           -4.159971552827     1.394662444952     0.732247432792     1.007825032230
         H           -4.242819552827     1.329843444952    -1.034718567208     1.007825032230
         H           -5.121041552827     0.140946444952    -0.062600567208     1.007825032230

  Basis Set: AUG-CC-PVTZ
    Blend: AUG-CC-PVTZ
  Basis Set: (AUG-CC-PVTZ AUX)
    Blend: AUG-CC-PVTZ-JKFIT
	 Reference Energy          =    -746.8679555202542133 [Eh]
	 Singles Energy            =      -0.0000000000000000 [Eh]
	 Same-Spin Energy          =      -0.4277051817910957 [Eh]
	 Opposite-Spin Energy      =      -1.4594996648096110 [Eh]
	 Correlation Energy        =      -1.8872048466007068 [Eh]
	 Total Energy              =    -748.7551603668549660 [Eh]

	 ================> DF-SCS-MP2 Energies <==================
	-----------------------------------------------------------
	 SCS Same-Spin Scale       =       0.3333333333333333 [-]
	 SCS Opposite-Spin Scale   =       1.2000000000000000 [-]
	 SCS Same-Spin Energy      =      -0.1425683939303652 [Eh]
	 SCS Opposite-Spin Energy  =      -1.7513995977715331 [Eh]
	 SCS Correlation Energy    =      -1.8939679917018983 [Eh]
	 SCS Total Energy          =    -748.7619235119560699 [Eh]
	-----------------------------------------------------------

  Dipole Moment: [D]
     X:    -0.0466      Y:     2.9227      Z:    -2.2924     Total:     3.7148

*** Psi4 exiting successfully. Buy a developer a beer!
