                               Psi4 1.4a3.dev225

  ==> Input File <==

--------------------------------------------------------------------------
#psi4
#
memory 32 gb

molecule  {
0 1
  S       -0.2613620    -0.5930190    -0.1424790
  O       -0.2870700    -1.2499240     1.2262220
  C        2.3977240     0.0716980     0.1844310
  C        1.0261530     0.6905850    -0.0782140
  C       -1.6743200     0.5466190    -0.2136450
  C        2.8653030    -0.7972080    -0.9817560
  C        3.4104270     1.1761770     0.4821660
  C       -2.9771600    -0.2389800    -0.1306750
  C       -4.1937400     0.6821530    -0.1120660
  H        2.2947170    -0.5588030     1.0765090
  H        0.7552030     1.3745990     0.7353710
  H        1.0111040     1.2381230    -1.0301620
  H       -1.5863530     1.2355690     0.6350930
  H       -1.6018540     1.1165020    -1.1483330
  H        2.9531350    -0.1978260    -1.8953020
  H        3.8477320    -1.2283710    -0.7670690
  H        2.1762820    -1.6227130    -1.1817050
  H        3.5229730     1.8417250    -0.3809710
  H        4.3924350     0.7485930     0.7071400
  H        3.0997810     1.7802300     1.3402560
  H       -3.0432920    -0.9285740    -0.9804800
  H       -2.9504610    -0.8515990     0.7760110
  H       -4.1584820     1.3575060     0.7479640
  H       -4.2413300     1.2926870    -1.0190020
  H       -4.9502317     0.2095659    -0.0588050
units angstrom
no_reorient  #important for SAPT in psi4, default
symmetry c1  #important for SAPT in psi4, default
}

set PROPERTIES_ORIGIN ["COM"]
properties('MP2/aug-cc-pvtz', properties = ['dipole'])
--------------------------------------------------------------------------

    Molecular point group: c1
  Charge       = 0
  Multiplicity = 1
  Basis Set: AUG-CC-PVTZ
    Blend: AUG-CC-PVTZ
  Basis Set: (AUG-CC-PVTZ AUX)
    Blend: AUG-CC-PVTZ-JKFIT

    Orbital Energies [Eh]
    ---------------------

    Doubly Occupied:

       1A    -92.056646     2A    -20.496753     3A    -11.260703
       4A    -11.259187     5A    -11.237266     6A    -11.232181
       7A    -11.220674     8A    -11.217406     9A    -11.198925
      10A     -9.044129    11A     -6.725728    12A     -6.725540
      13A     -6.724258    14A     -1.316399    15A     -1.109258
      16A     -1.087529    17A     -1.014287    18A     -0.952379
      19A     -0.936837    20A     -0.854631    21A     -0.800402
      22A     -0.772568    23A     -0.663638    24A     -0.649621
      25A     -0.639115    26A     -0.612048    27A     -0.606122
      28A     -0.589018    29A     -0.565638    30A     -0.554916
      31A     -0.545354    32A     -0.535283    33A     -0.519875
      34A     -0.505903    35A     -0.501058    36A     -0.485453
      37A     -0.479557    38A     -0.476199    39A     -0.472294
      40A     -0.403156    41A     -0.358643

  @DF-RHF Final Energy:  -746.85752797143527

   => Energetics <=

    Nuclear Repulsion Energy =            576.2970594347965516
    One-Electron Energy =               -2167.4960206613122864
    Two-Electron Energy =                 844.3414332550803465
    Total Energy =                       -746.8575279714352746
  Basis Set: (AUG-CC-PVTZ AUX)
    Blend: AUG-CC-PVTZ-RI
    Molecular point group: c1

    Geometry (in Angstrom), charge = 0, multiplicity = 1:

       Center              X                  Y                   Z               Mass
    ------------   -----------------  -----------------  -----------------  -----------------
         S           -0.253515281970    -0.548995983452    -0.158673332575    31.972071174400
         O           -0.279223281970    -1.205900983452     1.210027667425    15.994914619570
         C            2.405570718030     0.115721016548     0.168236667425    12.000000000000
         C            1.033999718030     0.734608016548    -0.094408332575    12.000000000000
         C           -1.666473281970     0.590642016548    -0.229839332575    12.000000000000
         C            2.873149718030    -0.753184983452    -0.997950332575    12.000000000000
         C            3.418273718030     1.220200016548     0.465971667425    12.000000000000
         C           -2.969313281970    -0.194956983452    -0.146869332575    12.000000000000
         C           -4.185893281970     0.726176016548    -0.128260332575    12.000000000000
         H            2.302563718030    -0.514779983452     1.060314667425     1.007825032230
         H            0.763049718030     1.418622016548     0.719176667425     1.007825032230
         H            1.018950718030     1.282146016548    -1.046356332575     1.007825032230
         H           -1.578506281970     1.279592016548     0.618898667425     1.007825032230
         H           -1.594007281970     1.160525016548    -1.164527332575     1.007825032230
         H            2.960981718030    -0.153802983452    -1.911496332575     1.007825032230
         H            3.855578718030    -1.184347983452    -0.783263332575     1.007825032230
         H            2.184128718030    -1.578689983452    -1.197899332575     1.007825032230
         H            3.530819718030     1.885748016548    -0.397165332575     1.007825032230
         H            4.400281718030     0.792616016548     0.690945667425     1.007825032230
         H            3.107627718030     1.824253016548     1.324061667425     1.007825032230
         H           -3.035445281970    -0.884550983452    -0.996674332575     1.007825032230
         H           -2.942614281970    -0.807575983452     0.759816667425     1.007825032230
         H           -4.150635281970     1.401529016548     0.731769667425     1.007825032230
         H           -4.233483281970     1.336710016548    -1.035196332575     1.007825032230
         H           -4.942384981970     0.253588916548    -0.074999332575     1.007825032230

  Basis Set: AUG-CC-PVTZ
    Blend: AUG-CC-PVTZ
  Basis Set: (AUG-CC-PVTZ AUX)
    Blend: AUG-CC-PVTZ-JKFIT
	 Reference Energy          =    -746.8575279714352746 [Eh]
	 Singles Energy            =      -0.0000000000000000 [Eh]
	 Same-Spin Energy          =      -0.4274400129612493 [Eh]
	 Opposite-Spin Energy      =      -1.4576966276724208 [Eh]
	 Correlation Energy        =      -1.8851366406336703 [Eh]
	 Total Energy              =    -748.7426646120688929 [Eh]

	 ================> DF-SCS-MP2 Energies <==================
	-----------------------------------------------------------
	 SCS Same-Spin Scale       =       0.3333333333333333 [-]
	 SCS Opposite-Spin Scale   =       1.2000000000000000 [-]
	 SCS Same-Spin Energy      =      -0.1424800043204164 [Eh]
	 SCS Opposite-Spin Energy  =      -1.7492359532069048 [Eh]
	 SCS Correlation Energy    =      -1.8917159575273212 [Eh]
	 SCS Total Energy          =    -748.7492439289626418 [Eh]
	-----------------------------------------------------------

  Dipole Moment: [D]
     X:    -0.1753      Y:     2.8727      Z:    -2.2774     Total:     3.6701

*** Psi4 exiting successfully. Buy a developer a beer!
