                               Psi4 1.4a3.dev225

  ==> Input File <==

--------------------------------------------------------------------------
#psi4
#
memory 32 gb

molecule  {
0 1
  S       -0.2831426    -0.6215243    -0.1947662
  O       -0.2870700    -1.2499240     1.2262220
  C        2.3977240     0.0716980     0.1844310
  C        1.0261530     0.6905850    -0.0782140
  C       -1.6743200     0.5466190    -0.2136450
  C        2.8653030    -0.7972080    -0.9817560
  C        3.4104270     1.1761770     0.4821660
  C       -2.9771600    -0.2389800    -0.1306750
  C       -4.1937400     0.6821530    -0.1120660
  H        2.2947170    -0.5588030     1.0765090
  H        0.7552030     1.3745990     0.7353710
  H        1.0111040     1.2381230    -1.0301620
  H       -1.5863530     1.2355690     0.6350930
  H       -1.6018540     1.1165020    -1.1483330
  H        2.9531350    -0.1978260    -1.8953020
  H        3.8477320    -1.2283710    -0.7670690
  H        2.1762820    -1.6227130    -1.1817050
  H        3.5229730     1.8417250    -0.3809710
  H        4.3924350     0.7485930     0.7071400
  H        3.0997810     1.7802300     1.3402560
  H       -3.0432920    -0.9285740    -0.9804800
  H       -2.9504610    -0.8515990     0.7760110
  H       -4.1584820     1.3575060     0.7479640
  H       -4.2413300     1.2926870    -1.0190020
  H       -5.1195520     0.1037900    -0.0468840
units angstrom
no_reorient  #important for SAPT in psi4, default
symmetry c1  #important for SAPT in psi4, default
}

set PROPERTIES_ORIGIN ["COM"]
properties('MP2/aug-cc-pvtz', properties = ['dipole'])
--------------------------------------------------------------------------

    Molecular point group: c1
  Charge       = 0
  Multiplicity = 1
  Basis Set: AUG-CC-PVTZ
    Blend: AUG-CC-PVTZ
  Basis Set: (AUG-CC-PVTZ AUX)
    Blend: AUG-CC-PVTZ-JKFIT

    Orbital Energies [Eh]
    ---------------------

    Doubly Occupied:

       1A    -92.060901     2A    -20.495265     3A    -11.263486
       4A    -11.263005     5A    -11.236905     6A    -11.233590
       7A    -11.223882     8A    -11.220923     9A    -11.217948
      10A     -9.047843    11A     -6.729329    12A     -6.729023
      13A     -6.727783    14A     -1.297175    15A     -1.106728
      16A     -1.085707    17A     -1.004722    18A     -0.940386
      19A     -0.937163    20A     -0.847260    21A     -0.802071
      22A     -0.773207    23A     -0.663125    24A     -0.647005
      25A     -0.627705    26A     -0.609949    27A     -0.591456
      28A     -0.586190    29A     -0.565397    30A     -0.550852
      31A     -0.544230    32A     -0.531393    33A     -0.511890
      34A     -0.501546    35A     -0.499508    36A     -0.485652
      37A     -0.478823    38A     -0.473837    39A     -0.470677
      40A     -0.397148    41A     -0.364925

  @DF-RHF Final Energy:  -746.88637944990751

   => Energetics <=

    Nuclear Repulsion Energy =            573.3094040661941335
    One-Electron Energy =               -2161.7003453728839304
    Two-Electron Energy =                 841.5045618567824022
    Total Energy =                       -746.8863794499075084
  Basis Set: (AUG-CC-PVTZ AUX)
    Blend: AUG-CC-PVTZ-RI
    Molecular point group: c1

    Geometry (in Angstrom), charge = 0, multiplicity = 1:

       Center              X                  Y                   Z               Mass
    ------------   -----------------  -----------------  -----------------  -----------------
         S           -0.269441311572    -0.570627341581    -0.199753217463    31.972071174400
         O           -0.273368711572    -1.199027041581     1.221234982537    15.994914619570
         C            2.411425288428     0.122594958419     0.179443982537    12.000000000000
         C            1.039854288428     0.741481958419    -0.083201017463    12.000000000000
         C           -1.660618711572     0.597515958419    -0.218632017463    12.000000000000
         C            2.879004288428    -0.746311041581    -0.986743017463    12.000000000000
         C            3.424128288428     1.227073958419     0.477178982537    12.000000000000
         C           -2.963458711572    -0.188083041581    -0.135662017463    12.000000000000
         C           -4.180038711572     0.733049958419    -0.117053017463    12.000000000000
         H            2.308418288428    -0.507906041581     1.071521982537     1.007825032230
         H            0.768904288428     1.425495958419     0.730383982537     1.007825032230
         H            1.024805288428     1.289019958419    -1.035149017463     1.007825032230
         H           -1.572651711572     1.286465958419     0.630105982537     1.007825032230
         H           -1.588152711572     1.167398958419    -1.153320017463     1.007825032230
         H            2.966836288428    -0.146929041581    -1.900289017463     1.007825032230
         H            3.861433288428    -1.177474041581    -0.772056017463     1.007825032230
         H            2.189983288428    -1.571816041581    -1.186692017463     1.007825032230
         H            3.536674288428     1.892621958419    -0.385958017463     1.007825032230
         H            4.406136288428     0.799489958419     0.702152982537     1.007825032230
         H            3.113482288428     1.831126958419     1.335268982537     1.007825032230
         H           -3.029590711572    -0.877677041581    -0.985467017463     1.007825032230
         H           -2.936759711572    -0.800702041581     0.771023982537     1.007825032230
         H           -4.144780711572     1.408402958419     0.742976982537     1.007825032230
         H           -4.227628711572     1.343583958419    -1.023989017463     1.007825032230
         H           -5.105850711572     0.154686958419    -0.051871017463     1.007825032230

  Basis Set: AUG-CC-PVTZ
    Blend: AUG-CC-PVTZ
  Basis Set: (AUG-CC-PVTZ AUX)
    Blend: AUG-CC-PVTZ-JKFIT
	 Reference Energy          =    -746.8863794499075084 [Eh]
	 Singles Energy            =      -0.0000000000000000 [Eh]
	 Same-Spin Energy          =      -0.4276339137696083 [Eh]
	 Opposite-Spin Energy      =      -1.4601317441450514 [Eh]
	 Correlation Energy        =      -1.8877656579146598 [Eh]
	 Total Energy              =    -748.7741451078221644 [Eh]

	 ================> DF-SCS-MP2 Energies <==================
	-----------------------------------------------------------
	 SCS Same-Spin Scale       =       0.3333333333333333 [-]
	 SCS Opposite-Spin Scale   =       1.2000000000000000 [-]
	 SCS Same-Spin Energy      =      -0.1425446379232028 [Eh]
	 SCS Opposite-Spin Energy  =      -1.7521580929740617 [Eh]
	 SCS Correlation Energy    =      -1.8947027308972644 [Eh]
	 SCS Total Energy          =    -748.7810821808047876 [Eh]
	-----------------------------------------------------------

  Dipole Moment: [D]
     X:    -0.1128      Y:     2.9088      Z:    -2.4192     Total:     3.7851

*** Psi4 exiting successfully. Buy a developer a beer!
