                               Psi4 1.4a3.dev225

  ==> Input File <==

--------------------------------------------------------------------------
#psi4
#
memory 32 gb

molecule  {
0 1
  S       -0.2613620    -0.5930190    -0.1424790
  O       -0.2870700    -1.2499240     1.2262220
  C        2.3977240     0.0716980     0.1844310
  C        1.0261530     0.6905850    -0.0782140
  C       -1.6743200     0.5466190    -0.2136450
  C        2.8653030    -0.7972080    -0.9817560
  C        3.4104270     1.1761770     0.4821660
  C       -2.9771600    -0.2389800    -0.1306750
  C       -4.1937400     0.6821530    -0.1120660
  H        2.2947170    -0.5588030     1.0765090
  H        0.7552030     1.3745990     0.7353710
  H        1.0111040     1.2381230    -1.0301620
  H       -1.5863530     1.2355690     0.6350930
  H       -1.6018540     1.1165020    -1.1483330
  H        2.9531350    -0.1978260    -1.8953020
  H        3.8477320    -1.2283710    -0.7670690
  H        2.1762820    -1.6227130    -1.1817050
  H        3.5229730     1.8417250    -0.3809710
  H        4.3924150     0.7399984     0.6900816
  H        3.0997810     1.7802300     1.3402560
  H       -3.0432920    -0.9285740    -0.9804800
  H       -2.9504610    -0.8515990     0.7760110
  H       -4.1584820     1.3575060     0.7479640
  H       -4.2413300     1.2926870    -1.0190020
  H       -5.1195520     0.1037900    -0.0468840
units angstrom
no_reorient  #important for SAPT in psi4, default
symmetry c1  #important for SAPT in psi4, default
}

set PROPERTIES_ORIGIN ["COM"]
properties('MP2/aug-cc-pvtz', properties = ['dipole'])
--------------------------------------------------------------------------

    Molecular point group: c1
  Charge       = 0
  Multiplicity = 1
  Basis Set: AUG-CC-PVTZ
    Blend: AUG-CC-PVTZ
  Basis Set: (AUG-CC-PVTZ AUX)
    Blend: AUG-CC-PVTZ-JKFIT

    Orbital Energies [Eh]
    ---------------------

    Doubly Occupied:

       1A    -92.057545     2A    -20.497434     3A    -11.261709
       4A    -11.259781     5A    -11.237647     6A    -11.233454
       7A    -11.223736     8A    -11.221094     9A    -11.217847
      10A     -9.045005    11A     -6.726603    12A     -6.726415
      13A     -6.725130    14A     -1.317084    15A     -1.109663
      16A     -1.085059    17A     -1.007684    18A     -0.941957
      19A     -0.937157    20A     -0.845620    21A     -0.800152
      22A     -0.772901    23A     -0.664444    24A     -0.649138
      25A     -0.629648    26A     -0.611658    27A     -0.593181
      28A     -0.587806    29A     -0.566363    30A     -0.554212
      31A     -0.545002    32A     -0.533410    33A     -0.514034
      34A     -0.506450    35A     -0.499402    36A     -0.486065
      37A     -0.480156    38A     -0.475501    39A     -0.472554
      40A     -0.403385    41A     -0.359329

  @DF-RHF Final Energy:  -746.89160595645626

   => Energetics <=

    Nuclear Repulsion Energy =            575.2891549332855448
    One-Electron Energy =               -2165.5966914006648949
    Two-Electron Energy =                 843.4159305109230900
    Total Energy =                       -746.8916059564562602
  Basis Set: (AUG-CC-PVTZ AUX)
    Blend: AUG-CC-PVTZ-RI
    Molecular point group: c1

    Geometry (in Angstrom), charge = 0, multiplicity = 1:

       Center              X                  Y                   Z               Mass
    ------------   -----------------  -----------------  -----------------  -----------------
         S           -0.252362855245    -0.548217647635    -0.158638370567    31.972071174400
         O           -0.278070855245    -1.205122647635     1.210062629433    15.994914619570
         C            2.406723144755     0.116499352365     0.168271629433    12.000000000000
         C            1.035152144755     0.735386352365    -0.094373370567    12.000000000000
         C           -1.665320855245     0.591420352365    -0.229804370567    12.000000000000
         C            2.874302144755    -0.752406647635    -0.997915370567    12.000000000000
         C            3.419426144755     1.220978352365     0.466006629433    12.000000000000
         C           -2.968160855245    -0.194178647635    -0.146834370567    12.000000000000
         C           -4.184740855245     0.726954352365    -0.128225370567    12.000000000000
         H            2.303716144755    -0.514001647635     1.060349629433     1.007825032230
         H            0.764202144755     1.419400352365     0.719211629433     1.007825032230
         H            1.020103144755     1.282924352365    -1.046321370567     1.007825032230
         H           -1.577353855245     1.280370352365     0.618933629433     1.007825032230
         H           -1.592854855245     1.161303352365    -1.164492370567     1.007825032230
         H            2.962134144755    -0.153024647635    -1.911461370567     1.007825032230
         H            3.856731144755    -1.183569647635    -0.783228370567     1.007825032230
         H            2.185281144755    -1.577911647635    -1.197864370567     1.007825032230
         H            3.531972144755     1.886526352365    -0.397130370567     1.007825032230
         H            4.401414144755     0.784799752365     0.673922229433     1.007825032230
         H            3.108780144755     1.825031352365     1.324096629433     1.007825032230
         H           -3.034292855245    -0.883772647635    -0.996639370567     1.007825032230
         H           -2.941461855245    -0.806797647635     0.759851629433     1.007825032230
         H           -4.149482855245     1.402307352365     0.731804629433     1.007825032230
         H           -4.232330855245     1.337488352365    -1.035161370567     1.007825032230
         H           -5.110552855245     0.148591352365    -0.063043370567     1.007825032230

  Basis Set: AUG-CC-PVTZ
    Blend: AUG-CC-PVTZ
  Basis Set: (AUG-CC-PVTZ AUX)
    Blend: AUG-CC-PVTZ-JKFIT
	 Reference Energy          =    -746.8916059564562602 [Eh]
	 Singles Energy            =      -0.0000000000000000 [Eh]
	 Same-Spin Energy          =      -0.4272743560230803 [Eh]
	 Opposite-Spin Energy      =      -1.4582604235290042 [Eh]
	 Correlation Energy        =      -1.8855347795520845 [Eh]
	 Total Energy              =    -748.7771407360083913 [Eh]

	 ================> DF-SCS-MP2 Energies <==================
	-----------------------------------------------------------
	 SCS Same-Spin Scale       =       0.3333333333333333 [-]
	 SCS Opposite-Spin Scale   =       1.2000000000000000 [-]
	 SCS Same-Spin Energy      =      -0.1424247853410268 [Eh]
	 SCS Opposite-Spin Energy  =      -1.7499125082348050 [Eh]
	 SCS Correlation Energy    =      -1.8923372935758318 [Eh]
	 SCS Total Energy          =    -748.7839432500320527 [Eh]
	-----------------------------------------------------------

  Dipole Moment: [D]
     X:    -0.0524      Y:     2.8856      Z:    -2.2839     Total:     3.6805

*** Psi4 exiting successfully. Buy a developer a beer!
