                               Psi4 1.4a3.dev225

  ==> Input File <==

--------------------------------------------------------------------------
#psi4
#
memory 32 gb

molecule  {
0 1
  S       -0.2613620    -0.5930190    -0.1424790
  O       -0.2870700    -1.2499240     1.2262220
  C        2.3977240     0.0716980     0.1844310
  C        1.0261530     0.6905850    -0.0782140
  C       -1.6743200     0.5466190    -0.2136450
  C        2.8653030    -0.7972080    -0.9817560
  C        3.4104270     1.1761770     0.4821660
  C       -2.9771600    -0.2389800    -0.1306750
  C       -4.1937400     0.6821530    -0.1120660
  H        2.2947170    -0.5588030     1.0765090
  H        0.7552030     1.3745990     0.7353710
  H        1.0111040     1.2381230    -1.0301620
  H       -1.5863530     1.2355690     0.6350930
  H       -1.6018540     1.1165020    -1.1483330
  H        2.9531350    -0.1978260    -1.8953020
  H        3.8477320    -1.2283710    -0.7670690
  H        2.1762820    -1.6227130    -1.1817050
  H        3.5229730     1.8417250    -0.3809710
  H        4.3924350     0.7485930     0.7071400
  H        3.0997810     1.7802300     1.3402560
  H       -3.0432920    -0.9285740    -0.9804800
  H       -2.9504610    -0.8515990     0.7760110
  H       -4.1584820     1.3575060     0.7479640
  H       -4.2413300     1.2926870    -1.0190020
  H       -5.1195520     0.1037900    -0.0468840
units angstrom
no_reorient  #important for SAPT in psi4, default
symmetry c1  #important for SAPT in psi4, default
}

set PROPERTIES_ORIGIN ["COM"]
properties('MP2/aug-cc-pvtz', properties = ['dipole'])
--------------------------------------------------------------------------

    Molecular point group: c1
  Charge       = 0
  Multiplicity = 1
  Basis Set: AUG-CC-PVTZ
    Blend: AUG-CC-PVTZ
  Basis Set: (AUG-CC-PVTZ AUX)
    Blend: AUG-CC-PVTZ-JKFIT

    Orbital Energies [Eh]
    ---------------------

    Doubly Occupied:

       1A    -92.057585     2A    -20.497455     3A    -11.261733
       4A    -11.259827     5A    -11.237740     6A    -11.233471
       7A    -11.223748     8A    -11.221053     9A    -11.217794
      10A     -9.045043    11A     -6.726641    12A     -6.726453
      13A     -6.725168    14A     -1.317107    15A     -1.109634
      16A     -1.085057    17A     -1.007654    18A     -0.941933
      19A     -0.937216    20A     -0.845644    21A     -0.800186
      22A     -0.772939    23A     -0.664500    24A     -0.649354
      25A     -0.629688    26A     -0.611104    27A     -0.593012
      28A     -0.587944    29A     -0.566424    30A     -0.554231
      31A     -0.545174    32A     -0.533201    33A     -0.514040
      34A     -0.506421    35A     -0.499407    36A     -0.486104
      37A     -0.480025    38A     -0.475667    39A     -0.472510
      40A     -0.403476    41A     -0.359354

  @DF-RHF Final Energy:  -746.89165255947910

   => Energetics <=

    Nuclear Repulsion Energy =            575.2721949941511639
    One-Electron Energy =               -2165.5622635096110571
    Two-Electron Energy =                 843.3984159559809086
    Total Energy =                       -746.8916525594790983
  Basis Set: (AUG-CC-PVTZ AUX)
    Blend: AUG-CC-PVTZ-RI
    Molecular point group: c1

    Geometry (in Angstrom), charge = 0, multiplicity = 1:

       Center              X                  Y                   Z               Mass
    ------------   -----------------  -----------------  -----------------  -----------------
         S           -0.252362991353    -0.548276137237    -0.158754459625    31.972071174400
         O           -0.278070991353    -1.205181137237     1.209946540375    15.994914619570
         C            2.406723008647     0.116440862763     0.168155540375    12.000000000000
         C            1.035152008647     0.735327862763    -0.094489459625    12.000000000000
         C           -1.665320991353     0.591361862763    -0.229920459625    12.000000000000
         C            2.874302008647    -0.752465137237    -0.998031459625    12.000000000000
         C            3.419426008647     1.220919862763     0.465890540375    12.000000000000
         C           -2.968160991353    -0.194237137237    -0.146950459625    12.000000000000
         C           -4.184740991353     0.726895862763    -0.128341459625    12.000000000000
         H            2.303716008647    -0.514060137237     1.060233540375     1.007825032230
         H            0.764202008647     1.419341862763     0.719095540375     1.007825032230
         H            1.020103008647     1.282865862763    -1.046437459625     1.007825032230
         H           -1.577353991353     1.280311862763     0.618817540375     1.007825032230
         H           -1.592854991353     1.161244862763    -1.164608459625     1.007825032230
         H            2.962134008647    -0.153083137237    -1.911577459625     1.007825032230
         H            3.856731008647    -1.183628137237    -0.783344459625     1.007825032230
         H            2.185281008647    -1.577970137237    -1.197980459625     1.007825032230
         H            3.531972008647     1.886467862763    -0.397246459625     1.007825032230
         H            4.401434008647     0.793335862763     0.690864540375     1.007825032230
         H            3.108780008647     1.824972862763     1.323980540375     1.007825032230
         H           -3.034292991353    -0.883831137237    -0.996755459625     1.007825032230
         H           -2.941461991353    -0.806856137237     0.759735540375     1.007825032230
         H           -4.149482991353     1.402248862763     0.731688540375     1.007825032230
         H           -4.232330991353     1.337429862763    -1.035277459625     1.007825032230
         H           -5.110552991353     0.148532862763    -0.063159459625     1.007825032230

  Basis Set: AUG-CC-PVTZ
    Blend: AUG-CC-PVTZ
  Basis Set: (AUG-CC-PVTZ AUX)
    Blend: AUG-CC-PVTZ-JKFIT
	 Reference Energy          =    -746.8916525594790983 [Eh]
	 Singles Energy            =      -0.0000000000000000 [Eh]
	 Same-Spin Energy          =      -0.4272630039521071 [Eh]
	 Opposite-Spin Energy      =      -1.4582402329054824 [Eh]
	 Correlation Energy        =      -1.8855032368575895 [Eh]
	 Total Energy              =    -748.7771557963367286 [Eh]

	 ================> DF-SCS-MP2 Energies <==================
	-----------------------------------------------------------
	 SCS Same-Spin Scale       =       0.3333333333333333 [-]
	 SCS Opposite-Spin Scale   =       1.2000000000000000 [-]
	 SCS Same-Spin Energy      =      -0.1424210013173690 [Eh]
	 SCS Opposite-Spin Energy  =      -1.7498882794865789 [Eh]
	 SCS Correlation Energy    =      -1.8923092808039479 [Eh]
	 SCS Total Energy          =    -748.7839618402830411 [Eh]
	-----------------------------------------------------------

  Dipole Moment: [D]
     X:    -0.0530      Y:     2.8866      Z:    -2.2779     Total:     3.6775

*** Psi4 exiting successfully. Buy a developer a beer!
