                               Psi4 1.4a3.dev225

  ==> Input File <==

--------------------------------------------------------------------------
#psi4
#
memory 32 gb

molecule  {
0 1
  S       -0.2613620    -0.5930190    -0.1424790
  O       -0.2870700    -1.2499240     1.2262220
  C        2.3977240     0.0716980     0.1844310
  C        1.0073491     0.6647208    -0.0355512
  C       -1.6743200     0.5466190    -0.2136450
  C        2.8653030    -0.7972080    -0.9817560
  C        3.4104270     1.1761770     0.4821660
  C       -2.9771600    -0.2389800    -0.1306750
  C       -4.1937400     0.6821530    -0.1120660
  H        2.2947170    -0.5588030     1.0765090
  H        0.7552030     1.3745990     0.7353710
  H        1.0111040     1.2381230    -1.0301620
  H       -1.5863530     1.2355690     0.6350930
  H       -1.6018540     1.1165020    -1.1483330
  H        2.9531350    -0.1978260    -1.8953020
  H        3.8477320    -1.2283710    -0.7670690
  H        2.1762820    -1.6227130    -1.1817050
  H        3.5229730     1.8417250    -0.3809710
  H        4.3924350     0.7485930     0.7071400
  H        3.0997810     1.7802300     1.3402560
  H       -3.0432920    -0.9285740    -0.9804800
  H       -2.9504610    -0.8515990     0.7760110
  H       -4.1584820     1.3575060     0.7479640
  H       -4.2413300     1.2926870    -1.0190020
  H       -5.1195520     0.1037900    -0.0468840
units angstrom
no_reorient  #important for SAPT in psi4, default
symmetry c1  #important for SAPT in psi4, default
}

set PROPERTIES_ORIGIN ["COM"]
properties('MP2/aug-cc-pvtz', properties = ['dipole'])
--------------------------------------------------------------------------

    Molecular point group: c1
  Charge       = 0
  Multiplicity = 1
  Basis Set: AUG-CC-PVTZ
    Blend: AUG-CC-PVTZ
  Basis Set: (AUG-CC-PVTZ AUX)
    Blend: AUG-CC-PVTZ-JKFIT

    Orbital Energies [Eh]
    ---------------------

    Doubly Occupied:

       1A    -92.058447     2A    -20.496119     3A    -11.262079
       4A    -11.260517     5A    -11.237804     6A    -11.233934
       7A    -11.224070     8A    -11.221390     9A    -11.218108
      10A     -9.046164    11A     -6.727796    12A     -6.727595
      13A     -6.726264    14A     -1.317840    15A     -1.109949
      16A     -1.085369    17A     -1.009908    18A     -0.942482
      19A     -0.937250    20A     -0.846589    21A     -0.801458
      22A     -0.770368    23A     -0.664465    24A     -0.648625
      25A     -0.633352    26A     -0.610902    27A     -0.593865
      28A     -0.584731    29A     -0.566494    30A     -0.551159
      31A     -0.545548    32A     -0.534465    33A     -0.515671
      34A     -0.505260    35A     -0.499762    36A     -0.486493
      37A     -0.480531    38A     -0.476514    39A     -0.467271
      40A     -0.404893    41A     -0.361463

  @DF-RHF Final Energy:  -746.88910056847635

   => Energetics <=

    Nuclear Repulsion Energy =            575.8409785199353337
    One-Electron Energy =               -2166.6742283852131550
    Two-Electron Energy =                 843.9441492968014700
    Total Energy =                       -746.8891005684763513
  Basis Set: (AUG-CC-PVTZ AUX)
    Blend: AUG-CC-PVTZ-RI
    Molecular point group: c1

    Geometry (in Angstrom), charge = 0, multiplicity = 1:

       Center              X                  Y                   Z               Mass
    ------------   -----------------  -----------------  -----------------  -----------------
         S           -0.250839299890    -0.546180345367    -0.162211452278    31.972071174400
         O           -0.276547299890    -1.203085345367     1.206489547722    15.994914619570
         C            2.408246700110     0.118536654633     0.164698547722    12.000000000000
         C            1.017871800110     0.711559454633    -0.055283652278    12.000000000000
         C           -1.663797299890     0.593457654633    -0.233377452278    12.000000000000
         C            2.875825700110    -0.750369345367    -1.001488452278    12.000000000000
         C            3.420949700110     1.223015654633     0.462433547722    12.000000000000
         C           -2.966637299890    -0.192141345367    -0.150407452278    12.000000000000
         C           -4.183217299890     0.728991654633    -0.131798452278    12.000000000000
         H            2.305239700110    -0.511964345367     1.056776547722     1.007825032230
         H            0.765725700110     1.421437654633     0.715638547722     1.007825032230
         H            1.021626700110     1.284961654633    -1.049894452278     1.007825032230
         H           -1.575830299890     1.282407654633     0.615360547722     1.007825032230
         H           -1.591331299890     1.163340654633    -1.168065452278     1.007825032230
         H            2.963657700110    -0.150987345367    -1.915034452278     1.007825032230
         H            3.858254700110    -1.181532345367    -0.786801452278     1.007825032230
         H            2.186804700110    -1.575874345367    -1.201437452278     1.007825032230
         H            3.533495700110     1.888563654633    -0.400703452278     1.007825032230
         H            4.402957700110     0.795431654633     0.687407547722     1.007825032230
         H            3.110303700110     1.827068654633     1.320523547722     1.007825032230
         H           -3.032769299890    -0.881735345367    -1.000212452278     1.007825032230
         H           -2.939938299890    -0.804760345367     0.756278547722     1.007825032230
         H           -4.147959299890     1.404344654633     0.728231547722     1.007825032230
         H           -4.230807299890     1.339525654633    -1.038734452278     1.007825032230
         H           -5.109029299890     0.150628654633    -0.066616452278     1.007825032230

  Basis Set: AUG-CC-PVTZ
    Blend: AUG-CC-PVTZ
  Basis Set: (AUG-CC-PVTZ AUX)
    Blend: AUG-CC-PVTZ-JKFIT
	 Reference Energy          =    -746.8891005684763513 [Eh]
	 Singles Energy            =      -0.0000000000000000 [Eh]
	 Same-Spin Energy          =      -0.4273585345256556 [Eh]
	 Opposite-Spin Energy      =      -1.4582641227973905 [Eh]
	 Correlation Energy        =      -1.8856226573230461 [Eh]
	 Total Energy              =    -748.7747232257994483 [Eh]

	 ================> DF-SCS-MP2 Energies <==================
	-----------------------------------------------------------
	 SCS Same-Spin Scale       =       0.3333333333333333 [-]
	 SCS Opposite-Spin Scale   =       1.2000000000000000 [-]
	 SCS Same-Spin Energy      =      -0.1424528448418852 [Eh]
	 SCS Opposite-Spin Energy  =      -1.7499169473568685 [Eh]
	 SCS Correlation Energy    =      -1.8923697921987537 [Eh]
	 SCS Total Energy          =    -748.7814703606751436 [Eh]
	-----------------------------------------------------------

  Dipole Moment: [D]
     X:    -0.0494      Y:     2.8935      Z:    -2.2689     Total:     3.6773

*** Psi4 exiting successfully. Buy a developer a beer!
