                               Psi4 1.4a3.dev225

  ==> Input File <==

--------------------------------------------------------------------------
#psi4
#
memory 32 gb

molecule  {
0 1
  S       -0.2613620    -0.5930190    -0.1424790
  O       -0.2870700    -1.2499240     1.2262220
  C        2.3977240     0.0716980     0.1844310
  C        1.0261530     0.6905850    -0.0782140
  C       -1.6743200     0.5466190    -0.2136450
  C        2.8499988    -0.7687681    -0.9435859
  C        3.4104270     1.1761770     0.4821660
  C       -2.9771600    -0.2389800    -0.1306750
  C       -4.1937400     0.6821530    -0.1120660
  H        2.2947170    -0.5588030     1.0765090
  H        0.7552030     1.3745990     0.7353710
  H        1.0111040     1.2381230    -1.0301620
  H       -1.5863530     1.2355690     0.6350930
  H       -1.6018540     1.1165020    -1.1483330
  H        2.9531350    -0.1978260    -1.8953020
  H        3.8477320    -1.2283710    -0.7670690
  H        2.1762820    -1.6227130    -1.1817050
  H        3.5229730     1.8417250    -0.3809710
  H        4.3924350     0.7485930     0.7071400
  H        3.0997810     1.7802300     1.3402560
  H       -3.0432920    -0.9285740    -0.9804800
  H       -2.9504610    -0.8515990     0.7760110
  H       -4.1584820     1.3575060     0.7479640
  H       -4.2413300     1.2926870    -1.0190020
  H       -5.1195520     0.1037900    -0.0468840
units angstrom
no_reorient  #important for SAPT in psi4, default
symmetry c1  #important for SAPT in psi4, default
}

set PROPERTIES_ORIGIN ["COM"]
properties('MP2/aug-cc-pvtz', properties = ['dipole'])
--------------------------------------------------------------------------

    Molecular point group: c1
  Charge       = 0
  Multiplicity = 1
  Basis Set: AUG-CC-PVTZ
    Blend: AUG-CC-PVTZ
  Basis Set: (AUG-CC-PVTZ AUX)
    Blend: AUG-CC-PVTZ-JKFIT

    Orbital Energies [Eh]
    ---------------------

    Doubly Occupied:

       1A    -92.057615     2A    -20.497516     3A    -11.261749
       4A    -11.260000     5A    -11.235579     6A    -11.233490
       7A    -11.223761     8A    -11.221224     9A    -11.220457
      10A     -9.045074    11A     -6.726668    12A     -6.726482
      13A     -6.725192    14A     -1.317183    15A     -1.114603
      16A     -1.086203    17A     -1.008881    18A     -0.942200
      19A     -0.936870    20A     -0.845444    21A     -0.800254
      22A     -0.773517    23A     -0.665382    24A     -0.650978
      25A     -0.630133    26A     -0.612954    27A     -0.592795
      28A     -0.587984    29A     -0.566690    30A     -0.554116
      31A     -0.542132    32A     -0.531269    33A     -0.512532
      34A     -0.506050    35A     -0.499484    36A     -0.486740
      37A     -0.485935    38A     -0.473032    39A     -0.470516
      40A     -0.403532    41A     -0.359276

  @DF-RHF Final Energy:  -746.88850627471606

   => Energetics <=

    Nuclear Repulsion Energy =            576.1303185153605000
    One-Electron Energy =               -2167.2546638110602544
    Two-Electron Energy =                 844.2358390209835761
    Total Energy =                       -746.8885062747160646
  Basis Set: (AUG-CC-PVTZ AUX)
    Blend: AUG-CC-PVTZ-RI
    Molecular point group: c1

    Geometry (in Angstrom), charge = 0, multiplicity = 1:

       Center              X                  Y                   Z               Mass
    ------------   -----------------  -----------------  -----------------  -----------------
         S           -0.251122882711    -0.550580639645    -0.161847406062    31.972071174400
         O           -0.276830882711    -1.207485639645     1.206853593938    15.994914619570
         C            2.407963117289     0.114136360355     0.165062593938    12.000000000000
         C            1.036392117289     0.733023360355    -0.097582406062    12.000000000000
         C           -1.664080882711     0.589057360355    -0.233013406062    12.000000000000
         C            2.860237917289    -0.726329739645    -0.962954306062    12.000000000000
         C            3.420666117289     1.218615360355     0.462797593938    12.000000000000
         C           -2.966920882711    -0.196541639645    -0.150043406062    12.000000000000
         C           -4.183500882711     0.724591360355    -0.131434406062    12.000000000000
         H            2.304956117289    -0.516364639645     1.057140593938     1.007825032230
         H            0.765442117289     1.417037360355     0.716002593938     1.007825032230
         H            1.021343117289     1.280561360355    -1.049530406062     1.007825032230
         H           -1.576113882711     1.278007360355     0.615724593938     1.007825032230
         H           -1.591614882711     1.158940360355    -1.167701406062     1.007825032230
         H            2.963374117289    -0.155387639645    -1.914670406062     1.007825032230
         H            3.857971117289    -1.185932639645    -0.786437406062     1.007825032230
         H            2.186521117289    -1.580274639645    -1.201073406062     1.007825032230
         H            3.533212117289     1.884163360355    -0.400339406062     1.007825032230
         H            4.402674117289     0.791031360355     0.687771593938     1.007825032230
         H            3.110020117289     1.822668360355     1.320887593938     1.007825032230
         H           -3.033052882711    -0.886135639645    -0.999848406062     1.007825032230
         H           -2.940221882711    -0.809160639645     0.756642593938     1.007825032230
         H           -4.148242882711     1.399944360355     0.728595593938     1.007825032230
         H           -4.231090882711     1.335125360355    -1.038370406062     1.007825032230
         H           -5.109312882711     0.146228360355    -0.066252406062     1.007825032230

  Basis Set: AUG-CC-PVTZ
    Blend: AUG-CC-PVTZ
  Basis Set: (AUG-CC-PVTZ AUX)
    Blend: AUG-CC-PVTZ-JKFIT
	 Reference Energy          =    -746.8885062747160646 [Eh]
	 Singles Energy            =      -0.0000000000000000 [Eh]
	 Same-Spin Energy          =      -0.4277468939338906 [Eh]
	 Opposite-Spin Energy      =      -1.4587531850024129 [Eh]
	 Correlation Energy        =      -1.8865000789363036 [Eh]
	 Total Energy              =    -748.7750063536523157 [Eh]

	 ================> DF-SCS-MP2 Energies <==================
	-----------------------------------------------------------
	 SCS Same-Spin Scale       =       0.3333333333333333 [-]
	 SCS Opposite-Spin Scale   =       1.2000000000000000 [-]
	 SCS Same-Spin Energy      =      -0.1425822979779635 [Eh]
	 SCS Opposite-Spin Energy  =      -1.7505038220028954 [Eh]
	 SCS Correlation Energy    =      -1.8930861199808591 [Eh]
	 SCS Total Energy          =    -748.7815923946968724 [Eh]
	-----------------------------------------------------------

  Dipole Moment: [D]
     X:    -0.0545      Y:     2.8792      Z:    -2.2777     Total:     3.6716

*** Psi4 exiting successfully. Buy a developer a beer!
