                               Psi4 1.4a3.dev225

  ==> Input File <==

--------------------------------------------------------------------------
#psi4
#
memory 32 gb

molecule  {
0 1
  S       -0.2613620    -0.5930190    -0.1424790
  O       -0.2870700    -1.2499240     1.2262220
  C        2.3977240     0.0716980     0.1844310
  C        1.0261530     0.6905850    -0.0782140
  C       -1.6743200     0.5466190    -0.2136450
  C        2.8653030    -0.7972080    -0.9817560
  C        3.4104270     1.1761770     0.4821660
  C       -2.9771600    -0.2389800    -0.1306750
  C       -4.2335998     0.7123328    -0.1114563
  H        2.2947170    -0.5588030     1.0765090
  H        0.7552030     1.3745990     0.7353710
  H        1.0111040     1.2381230    -1.0301620
  H       -1.5863530     1.2355690     0.6350930
  H       -1.6018540     1.1165020    -1.1483330
  H        2.9531350    -0.1978260    -1.8953020
  H        3.8477320    -1.2283710    -0.7670690
  H        2.1762820    -1.6227130    -1.1817050
  H        3.5229730     1.8417250    -0.3809710
  H        4.3924350     0.7485930     0.7071400
  H        3.0997810     1.7802300     1.3402560
  H       -3.0432920    -0.9285740    -0.9804800
  H       -2.9504610    -0.8515990     0.7760110
  H       -4.1584820     1.3575060     0.7479640
  H       -4.2413300     1.2926870    -1.0190020
  H       -5.1195520     0.1037900    -0.0468840
units angstrom
no_reorient  #important for SAPT in psi4, default
symmetry c1  #important for SAPT in psi4, default
}

set PROPERTIES_ORIGIN ["COM"]
properties('MP2/aug-cc-pvtz', properties = ['dipole'])
--------------------------------------------------------------------------

    Molecular point group: c1
  Charge       = 0
  Multiplicity = 1
  Basis Set: AUG-CC-PVTZ
    Blend: AUG-CC-PVTZ
  Basis Set: (AUG-CC-PVTZ AUX)
    Blend: AUG-CC-PVTZ-JKFIT

    Orbital Energies [Eh]
    ---------------------

    Doubly Occupied:

       1A    -92.057412     2A    -20.497297     3A    -11.261569
       4A    -11.259692     5A    -11.237649     6A    -11.235226
       7A    -11.221988     8A    -11.220986     9A    -11.217716
      10A     -9.044871    11A     -6.726468    12A     -6.726278
      13A     -6.724993    14A     -1.316934    15A     -1.109220
      16A     -1.080755    17A     -1.005105    18A     -0.942259
      19A     -0.937143    20A     -0.847732    21A     -0.799671
      22A     -0.772831    23A     -0.663734    24A     -0.648562
      25A     -0.628668    26A     -0.610742    27A     -0.593428
      28A     -0.588706    29A     -0.568223    30A     -0.555223
      31A     -0.545146    32A     -0.533026    33A     -0.512677
      34A     -0.507918    35A     -0.494910    36A     -0.489479
      37A     -0.479612    38A     -0.475202    39A     -0.472001
      40A     -0.402855    41A     -0.359123

  @DF-RHF Final Energy:  -746.88994484482760

   => Energetics <=

    Nuclear Repulsion Energy =            574.5118166857056394
    One-Electron Energy =               -2164.0574730651751452
    Two-Electron Energy =                 842.6557115346420233
    Total Energy =                       -746.8899448448275962
  Basis Set: (AUG-CC-PVTZ AUX)
    Blend: AUG-CC-PVTZ-RI
    Molecular point group: c1

    Geometry (in Angstrom), charge = 0, multiplicity = 1:

       Center              X                  Y                   Z               Mass
    ------------   -----------------  -----------------  -----------------  -----------------
         S           -0.249133127496    -0.550721624801    -0.158803863987    31.972071174400
         O           -0.274841127496    -1.207626624801     1.209897136013    15.994914619570
         C            2.409952872504     0.113995375199     0.168106136013    12.000000000000
         C            1.038381872504     0.732882375199    -0.094538863987    12.000000000000
         C           -1.662091127496     0.588916375199    -0.229969863987    12.000000000000
         C            2.877531872504    -0.754910624801    -0.998080863987    12.000000000000
         C            3.422655872504     1.218474375199     0.465841136013    12.000000000000
         C           -2.964931127496    -0.196682624801    -0.146999863987    12.000000000000
         C           -4.221370927496     0.754630175199    -0.127781163987    12.000000000000
         H            2.306945872504    -0.516505624801     1.060184136013     1.007825032230
         H            0.767431872504     1.416896375199     0.719046136013     1.007825032230
         H            1.023332872504     1.280420375199    -1.046486863987     1.007825032230
         H           -1.574124127496     1.277866375199     0.618768136013     1.007825032230
         H           -1.589625127496     1.158799375199    -1.164657863987     1.007825032230
         H            2.965363872504    -0.155528624801    -1.911626863987     1.007825032230
         H            3.859960872504    -1.186073624801    -0.783393863987     1.007825032230
         H            2.188510872504    -1.580415624801    -1.198029863987     1.007825032230
         H            3.535201872504     1.884022375199    -0.397295863987     1.007825032230
         H            4.404663872504     0.790890375199     0.690815136013     1.007825032230
         H            3.112009872504     1.822527375199     1.323931136013     1.007825032230
         H           -3.031063127496    -0.886276624801    -0.996804863987     1.007825032230
         H           -2.938232127496    -0.809301624801     0.759686136013     1.007825032230
         H           -4.146253127496     1.399803375199     0.731639136013     1.007825032230
         H           -4.229101127496     1.334984375199    -1.035326863987     1.007825032230
         H           -5.107323127496     0.146087375199    -0.063208863987     1.007825032230

  Basis Set: AUG-CC-PVTZ
    Blend: AUG-CC-PVTZ
  Basis Set: (AUG-CC-PVTZ AUX)
    Blend: AUG-CC-PVTZ-JKFIT
	 Reference Energy          =    -746.8899448448275962 [Eh]
	 Singles Energy            =      -0.0000000000000000 [Eh]
	 Same-Spin Energy          =      -0.4270586307430629 [Eh]
	 Opposite-Spin Energy      =      -1.4581626407974770 [Eh]
	 Correlation Energy        =      -1.8852212715405399 [Eh]
	 Total Energy              =    -748.7751661163681547 [Eh]

	 ================> DF-SCS-MP2 Energies <==================
	-----------------------------------------------------------
	 SCS Same-Spin Scale       =       0.3333333333333333 [-]
	 SCS Opposite-Spin Scale   =       1.2000000000000000 [-]
	 SCS Same-Spin Energy      =      -0.1423528769143543 [Eh]
	 SCS Opposite-Spin Energy  =      -1.7497951689569724 [Eh]
	 SCS Correlation Energy    =      -1.8921480458713267 [Eh]
	 SCS Total Energy          =    -748.7820928906988911 [Eh]
	-----------------------------------------------------------

  Dipole Moment: [D]
     X:    -0.0584      Y:     2.8914      Z:    -2.2792     Total:     3.6821

*** Psi4 exiting successfully. Buy a developer a beer!
