                               Psi4 1.4a3.dev225

  ==> Input File <==

--------------------------------------------------------------------------
#psi4
#
memory 32 gb

molecule  {
0 1
  S       -0.2613620    -0.5930190    -0.1424790
  O       -0.2870700    -1.2499240     1.2262220
  C        2.3977240     0.0716980     0.1844310
  C        0.9886195     0.5919079    -0.0930878
  C       -1.6743200     0.5466190    -0.2136450
  C        2.8653030    -0.7972080    -0.9817560
  C        3.4104270     1.1761770     0.4821660
  C       -2.9771600    -0.2389800    -0.1306750
  C       -4.1937400     0.6821530    -0.1120660
  H        2.2947170    -0.5588030     1.0765090
  H        0.7552030     1.3745990     0.7353710
  H        1.0111040     1.2381230    -1.0301620
  H       -1.5863530     1.2355690     0.6350930
  H       -1.6018540     1.1165020    -1.1483330
  H        2.9531350    -0.1978260    -1.8953020
  H        3.8477320    -1.2283710    -0.7670690
  H        2.1762820    -1.6227130    -1.1817050
  H        3.5229730     1.8417250    -0.3809710
  H        4.3924350     0.7485930     0.7071400
  H        3.0997810     1.7802300     1.3402560
  H       -3.0432920    -0.9285740    -0.9804800
  H       -2.9504610    -0.8515990     0.7760110
  H       -4.1584820     1.3575060     0.7479640
  H       -4.2413300     1.2926870    -1.0190020
  H       -5.1195520     0.1037900    -0.0468840
units angstrom
no_reorient  #important for SAPT in psi4, default
symmetry c1  #important for SAPT in psi4, default
}

set PROPERTIES_ORIGIN ["COM"]
properties('MP2/aug-cc-pvtz', properties = ['dipole'])
--------------------------------------------------------------------------

    Molecular point group: c1
  Charge       = 0
  Multiplicity = 1
  Basis Set: AUG-CC-PVTZ
    Blend: AUG-CC-PVTZ
  Basis Set: (AUG-CC-PVTZ AUX)
    Blend: AUG-CC-PVTZ-JKFIT

    Orbital Energies [Eh]
    ---------------------

    Doubly Occupied:

       1A    -92.058228     2A    -20.496803     3A    -11.263674
       4A    -11.262921     5A    -11.239153     6A    -11.234297
       7A    -11.224391     8A    -11.223231     9A    -11.216874
      10A     -9.046812    11A     -6.728701    12A     -6.728298
      13A     -6.726986    14A     -1.320110    15A     -1.113364
      16A     -1.085873    17A     -1.016253    18A     -0.944066
      19A     -0.936423    20A     -0.847055    21A     -0.803877
      22A     -0.765962    23A     -0.663368    24A     -0.652009
      25A     -0.631558    26A     -0.611373    27A     -0.593380
      28A     -0.586949    29A     -0.566295    30A     -0.553972
      31A     -0.544946    32A     -0.534122    33A     -0.515845
      34A     -0.502154    35A     -0.499853    36A     -0.487233
      37A     -0.481065    38A     -0.469579    39A     -0.466606
      40A     -0.412240    41A     -0.360104

  @DF-RHF Final Energy:  -746.88130989697038

   => Energetics <=

    Nuclear Repulsion Energy =            577.0177098725747555
    One-Electron Energy =               -2168.9660313359449901
    Two-Electron Energy =                 845.0670115663997422
    Total Energy =                       -746.8813098969703788
  Basis Set: (AUG-CC-PVTZ AUX)
    Blend: AUG-CC-PVTZ-RI
    Molecular point group: c1

    Geometry (in Angstrom), charge = 0, multiplicity = 1:

       Center              X                  Y                   Z               Mass
    ------------   -----------------  -----------------  -----------------  -----------------
         S           -0.249321629001    -0.540280271759    -0.157549226558    31.972071174400
         O           -0.275029629001    -1.197185271759     1.211151773442    15.994914619570
         C            2.409764370999     0.124436728241     0.169360773442    12.000000000000
         C            1.000659870999     0.644646628241    -0.108158026558    12.000000000000
         C           -1.662279629001     0.599357728241    -0.228715226558    12.000000000000
         C            2.877343370999    -0.744469271759    -0.996826226558    12.000000000000
         C            3.422467370999     1.228915728241     0.467095773442    12.000000000000
         C           -2.965119629001    -0.186241271759    -0.145745226558    12.000000000000
         C           -4.181699629001     0.734891728241    -0.127136226558    12.000000000000
         H            2.306757370999    -0.506064271759     1.061438773442     1.007825032230
         H            0.767243370999     1.427337728241     0.720300773442     1.007825032230
         H            1.023144370999     1.290861728241    -1.045232226558     1.007825032230
         H           -1.574312629001     1.288307728241     0.620022773442     1.007825032230
         H           -1.589813629001     1.169240728241    -1.163403226558     1.007825032230
         H            2.965175370999    -0.145087271759    -1.910372226558     1.007825032230
         H            3.859772370999    -1.175632271759    -0.782139226558     1.007825032230
         H            2.188322370999    -1.569974271759    -1.196775226558     1.007825032230
         H            3.535013370999     1.894463728241    -0.396041226558     1.007825032230
         H            4.404475370999     0.801331728241     0.692069773442     1.007825032230
         H            3.111821370999     1.832968728241     1.325185773442     1.007825032230
         H           -3.031251629001    -0.875835271759    -0.995550226558     1.007825032230
         H           -2.938420629001    -0.798860271759     0.760940773442     1.007825032230
         H           -4.146441629001     1.410244728241     0.732893773442     1.007825032230
         H           -4.229289629001     1.345425728241    -1.034072226558     1.007825032230
         H           -5.107511629001     0.156528728241    -0.061954226558     1.007825032230

  Basis Set: AUG-CC-PVTZ
    Blend: AUG-CC-PVTZ
  Basis Set: (AUG-CC-PVTZ AUX)
    Blend: AUG-CC-PVTZ-JKFIT
	 Reference Energy          =    -746.8813098969703788 [Eh]
	 Singles Energy            =      -0.0000000000000000 [Eh]
	 Same-Spin Energy          =      -0.4279464625475707 [Eh]
	 Opposite-Spin Energy      =      -1.4586587151129624 [Eh]
	 Correlation Energy        =      -1.8866051776605330 [Eh]
	 Total Energy              =    -748.7679150746308778 [Eh]

	 ================> DF-SCS-MP2 Energies <==================
	-----------------------------------------------------------
	 SCS Same-Spin Scale       =       0.3333333333333333 [-]
	 SCS Opposite-Spin Scale   =       1.2000000000000000 [-]
	 SCS Same-Spin Energy      =      -0.1426488208491902 [Eh]
	 SCS Opposite-Spin Energy  =      -1.7503904581355549 [Eh]
	 SCS Correlation Energy    =      -1.8930392789847452 [Eh]
	 SCS Total Energy          =    -748.7743491759550807 [Eh]
	-----------------------------------------------------------

  Dipole Moment: [D]
     X:     0.0001      Y:     2.9537      Z:    -2.2920     Total:     3.7387

*** Psi4 exiting successfully. Buy a developer a beer!
