                               Psi4 1.4a3.dev225

  ==> Input File <==

--------------------------------------------------------------------------
#psi4
#
memory 32 gb

molecule  {
0 1
  S       -0.2613620    -0.5930190    -0.1424790
  O       -0.2870700    -1.2499240     1.2262220
  C        2.3977240     0.0716980     0.1844310
  C        1.0261530     0.6905850    -0.0782140
  C       -1.6743200     0.5466190    -0.2136450
  C        2.8653030    -0.7972080    -0.9817560
  C        3.4104270     1.1761770     0.4821660
  C       -2.9452706    -0.2746358    -0.0356931
  C       -4.1937400     0.6821530    -0.1120660
  H        2.2947170    -0.5588030     1.0765090
  H        0.7552030     1.3745990     0.7353710
  H        1.0111040     1.2381230    -1.0301620
  H       -1.5863530     1.2355690     0.6350930
  H       -1.6018540     1.1165020    -1.1483330
  H        2.9531350    -0.1978260    -1.8953020
  H        3.8477320    -1.2283710    -0.7670690
  H        2.1762820    -1.6227130    -1.1817050
  H        3.5229730     1.8417250    -0.3809710
  H        4.3924350     0.7485930     0.7071400
  H        3.0997810     1.7802300     1.3402560
  H       -3.0432920    -0.9285740    -0.9804800
  H       -2.9504610    -0.8515990     0.7760110
  H       -4.1584820     1.3575060     0.7479640
  H       -4.2413300     1.2926870    -1.0190020
  H       -5.1195520     0.1037900    -0.0468840
units angstrom
no_reorient  #important for SAPT in psi4, default
symmetry c1  #important for SAPT in psi4, default
}

set PROPERTIES_ORIGIN ["COM"]
properties('MP2/aug-cc-pvtz', properties = ['dipole'])
--------------------------------------------------------------------------

    Molecular point group: c1
  Charge       = 0
  Multiplicity = 1
  Basis Set: AUG-CC-PVTZ
    Blend: AUG-CC-PVTZ
  Basis Set: (AUG-CC-PVTZ AUX)
    Blend: AUG-CC-PVTZ-JKFIT

    Orbital Energies [Eh]
    ---------------------

    Doubly Occupied:

       1A    -92.056683     2A    -20.497724     3A    -11.262905
       4A    -11.259226     5A    -11.237350     6A    -11.233904
       7A    -11.226151     8A    -11.220785     9A    -11.217562
      10A     -9.044265    11A     -6.725869    12A     -6.725634
      13A     -6.724363    14A     -1.317405    15A     -1.109248
      16A     -1.083299    17A     -1.004655    18A     -0.939579
      19A     -0.936959    20A     -0.849352    21A     -0.805156
      22A     -0.772695    23A     -0.666639    24A     -0.648623
      25A     -0.627451    26A     -0.613210    27A     -0.594503
      28A     -0.584742    29A     -0.568591    30A     -0.552224
      31A     -0.544704    32A     -0.531833    33A     -0.522222
      34A     -0.510382    35A     -0.502513    36A     -0.480266
      37A     -0.475414    38A     -0.473361    39A     -0.470815
      40A     -0.401908    41A     -0.359292

  @DF-RHF Final Energy:  -746.87828090976382

   => Energetics <=

    Nuclear Repulsion Energy =            575.4645614129075284
    One-Electron Energy =               -2165.9267645630525294
    Two-Electron Energy =                 843.5839222403810709
    Total Energy =                       -746.8782809097638165
  Basis Set: (AUG-CC-PVTZ AUX)
    Blend: AUG-CC-PVTZ-RI
    Molecular point group: c1

    Geometry (in Angstrom), charge = 0, multiplicity = 1:

       Center              X                  Y                   Z               Mass
    ------------   -----------------  -----------------  -----------------  -----------------
         S           -0.254947008846    -0.545386926059    -0.166450900798    31.972071174400
         O           -0.280655008846    -1.202291926059     1.202250099202    15.994914619570
         C            2.404138991154     0.119330073941     0.160459099202    12.000000000000
         C            1.032567991154     0.738217073941    -0.102185900798    12.000000000000
         C           -1.667905008846     0.594251073941    -0.237616900798    12.000000000000
         C            2.871717991154    -0.749575926059    -1.005727900798    12.000000000000
         C            3.416841991154     1.223809073941     0.458194099202    12.000000000000
         C           -2.938855608846    -0.227003726059    -0.059665000798    12.000000000000
         C           -4.187325008846     0.729785073941    -0.136037900798    12.000000000000
         H            2.301131991154    -0.511170926059     1.052537099202     1.007825032230
         H            0.761617991154     1.422231073941     0.711399099202     1.007825032230
         H            1.017518991154     1.285755073941    -1.054133900798     1.007825032230
         H           -1.579938008846     1.283201073941     0.611121099202     1.007825032230
         H           -1.595439008846     1.164134073941    -1.172304900798     1.007825032230
         H            2.959549991154    -0.150193926059    -1.919273900798     1.007825032230
         H            3.854146991154    -1.180738926059    -0.791040900798     1.007825032230
         H            2.182696991154    -1.575080926059    -1.205676900798     1.007825032230
         H            3.529387991154     1.889357073941    -0.404942900798     1.007825032230
         H            4.398849991154     0.796225073941     0.683168099202     1.007825032230
         H            3.106195991154     1.827862073941     1.316284099202     1.007825032230
         H           -3.036877008846    -0.880941926059    -1.004451900798     1.007825032230
         H           -2.944046008846    -0.803966926059     0.752039099202     1.007825032230
         H           -4.152067008846     1.405138073941     0.723992099202     1.007825032230
         H           -4.234915008846     1.340319073941    -1.042973900798     1.007825032230
         H           -5.113137008846     0.151422073941    -0.070855900798     1.007825032230

  Basis Set: AUG-CC-PVTZ
    Blend: AUG-CC-PVTZ
  Basis Set: (AUG-CC-PVTZ AUX)
    Blend: AUG-CC-PVTZ-JKFIT
	 Reference Energy          =    -746.8782809097638165 [Eh]
	 Singles Energy            =      -0.0000000000000000 [Eh]
	 Same-Spin Energy          =      -0.4272557197056075 [Eh]
	 Opposite-Spin Energy      =      -1.4587221083727719 [Eh]
	 Correlation Energy        =      -1.8859778280783794 [Eh]
	 Total Energy              =    -748.7642587378421695 [Eh]

	 ================> DF-SCS-MP2 Energies <==================
	-----------------------------------------------------------
	 SCS Same-Spin Scale       =       0.3333333333333333 [-]
	 SCS Opposite-Spin Scale   =       1.2000000000000000 [-]
	 SCS Same-Spin Energy      =      -0.1424185732352025 [Eh]
	 SCS Opposite-Spin Energy  =      -1.7504665300473263 [Eh]
	 SCS Correlation Energy    =      -1.8928851032825289 [Eh]
	 SCS Total Energy          =    -748.7711660130463542 [Eh]
	-----------------------------------------------------------

  Dipole Moment: [D]
     X:    -0.0755      Y:     2.9081      Z:    -2.2569     Total:     3.6819

*** Psi4 exiting successfully. Buy a developer a beer!
