                               Psi4 1.4a3.dev225

  ==> Input File <==

--------------------------------------------------------------------------
#psi4
#
memory 32 gb

molecule  {
0 1
  S       -0.2613620    -0.5930190    -0.1424790
  O       -0.2870700    -1.2499240     1.2262220
  C        2.3977240     0.0716980     0.1844310
  C        1.0261530     0.6905850    -0.0782140
  C       -1.6743200     0.5466190    -0.2136450
  C        2.8653030    -0.7972080    -0.9817560
  C        3.4104270     1.1761770     0.4821660
  C       -2.9771600    -0.2389800    -0.1306750
  C       -4.1937400     0.6821530    -0.1120660
  H        2.2947170    -0.5588030     1.0765090
  H        0.7552030     1.3745990     0.7353710
  H        1.0111040     1.2381230    -1.0301620
  H       -1.5863530     1.2355690     0.6350930
  H       -1.6018540     1.1165020    -1.1483330
  H        2.9531350    -0.1978260    -1.8953020
  H        3.8477320    -1.2283710    -0.7670690
  H        2.1762820    -1.6227130    -1.1817050
  H        3.5229730     1.8417250    -0.3809710
  H        4.3924350     0.7485930     0.7071400
  H        3.0997810     1.7802300     1.3402560
  H       -3.0432920    -0.9285740    -0.9804800
  H       -2.9504610    -0.8515990     0.7760110
  H       -4.1591265     1.3451603     0.7322424
  H       -4.2413300     1.2926870    -1.0190020
  H       -5.1195520     0.1037900    -0.0468840
units angstrom
no_reorient  #important for SAPT in psi4, default
symmetry c1  #important for SAPT in psi4, default
}

set PROPERTIES_ORIGIN ["COM"]
properties('MP2/aug-cc-pvtz', properties = ['dipole'])
--------------------------------------------------------------------------

    Molecular point group: c1
  Charge       = 0
  Multiplicity = 1
  Basis Set: AUG-CC-PVTZ
    Blend: AUG-CC-PVTZ
  Basis Set: (AUG-CC-PVTZ AUX)
    Blend: AUG-CC-PVTZ-JKFIT

    Orbital Energies [Eh]
    ---------------------

    Doubly Occupied:

       1A    -92.057565     2A    -20.497434     3A    -11.261702
       4A    -11.259808     5A    -11.237727     6A    -11.233233
       7A    -11.221241     8A    -11.221046     9A    -11.217782
      10A     -9.045022    11A     -6.726620    12A     -6.726431
      13A     -6.725146    14A     -1.317085    15A     -1.109629
      16A     -1.085223    17A     -1.008030    18A     -0.942607
      19A     -0.937208    20A     -0.846375    21A     -0.800438
      22A     -0.772929    23A     -0.664584    24A     -0.649628
      25A     -0.629718    26A     -0.611079    27A     -0.592931
      28A     -0.588773    29A     -0.566634    30A     -0.555225
      31A     -0.545169    32A     -0.533209    33A     -0.513912
      34A     -0.506692    35A     -0.499928    36A     -0.486437
      37A     -0.480009    38A     -0.475677    39A     -0.472508
      40A     -0.403437    41A     -0.359334

  @DF-RHF Final Energy:  -746.89164969586977

   => Energetics <=

    Nuclear Repulsion Energy =            575.3533456933835168
    One-Electron Energy =               -2165.7196561364430636
    Two-Electron Energy =                 843.4746607471897732
    Total Energy =                       -746.8916496958697735
  Basis Set: (AUG-CC-PVTZ AUX)
    Blend: AUG-CC-PVTZ-RI
    Molecular point group: c1

    Geometry (in Angstrom), charge = 0, multiplicity = 1:

       Center              X                  Y                   Z               Mass
    ------------   -----------------  -----------------  -----------------  -----------------
         S           -0.252358605279    -0.548192119938    -0.158647468011    31.972071174400
         O           -0.278066605279    -1.205097119938     1.210053531989    15.994914619570
         C            2.406727394721     0.116524880062     0.168262531989    12.000000000000
         C            1.035156394721     0.735411880062    -0.094382468011    12.000000000000
         C           -1.665316605279     0.591445880062    -0.229813468011    12.000000000000
         C            2.874306394721    -0.752381119938    -0.997924468011    12.000000000000
         C            3.419430394721     1.221003880062     0.465997531989    12.000000000000
         C           -2.968156605279    -0.194153119938    -0.146843468011    12.000000000000
         C           -4.184736605279     0.726979880062    -0.128234468011    12.000000000000
         H            2.303720394721    -0.513976119938     1.060340531989     1.007825032230
         H            0.764206394721     1.419425880062     0.719202531989     1.007825032230
         H            1.020107394721     1.282949880062    -1.046330468011     1.007825032230
         H           -1.577349605279     1.280395880062     0.618924531989     1.007825032230
         H           -1.592850605279     1.161328880062    -1.164501468011     1.007825032230
         H            2.962138394721    -0.152999119938    -1.911470468011     1.007825032230
         H            3.856735394721    -1.183544119938    -0.783237468011     1.007825032230
         H            2.185285394721    -1.577886119938    -1.197873468011     1.007825032230
         H            3.531976394721     1.886551880062    -0.397139468011     1.007825032230
         H            4.401438394721     0.793419880062     0.690971531989     1.007825032230
         H            3.108784394721     1.825056880062     1.324087531989     1.007825032230
         H           -3.034288605279    -0.883747119938    -0.996648468011     1.007825032230
         H           -2.941457605279    -0.806772119938     0.759842531989     1.007825032230
         H           -4.150123105279     1.389987180062     0.716073931989     1.007825032230
         H           -4.232326605279     1.337513880062    -1.035170468011     1.007825032230
         H           -5.110548605279     0.148616880062    -0.063052468011     1.007825032230

  Basis Set: AUG-CC-PVTZ
    Blend: AUG-CC-PVTZ
  Basis Set: (AUG-CC-PVTZ AUX)
    Blend: AUG-CC-PVTZ-JKFIT
	 Reference Energy          =    -746.8916496958697735 [Eh]
	 Singles Energy            =      -0.0000000000000000 [Eh]
	 Same-Spin Energy          =      -0.4272743465895522 [Eh]
	 Opposite-Spin Energy      =      -1.4581358401568731 [Eh]
	 Correlation Energy        =      -1.8854101867464252 [Eh]
	 Total Energy              =    -748.7770598826161859 [Eh]

	 ================> DF-SCS-MP2 Energies <==================
	-----------------------------------------------------------
	 SCS Same-Spin Scale       =       0.3333333333333333 [-]
	 SCS Opposite-Spin Scale   =       1.2000000000000000 [-]
	 SCS Same-Spin Energy      =      -0.1424247821965174 [Eh]
	 SCS Opposite-Spin Energy  =      -1.7497630081882478 [Eh]
	 SCS Correlation Energy    =      -1.8921877903847653 [Eh]
	 SCS Total Energy          =    -748.7838374862545834 [Eh]
	-----------------------------------------------------------

  Dipole Moment: [D]
     X:    -0.0555      Y:     2.8948      Z:    -2.2698     Total:     3.6790

*** Psi4 exiting successfully. Buy a developer a beer!
