                               Psi4 1.4a3.dev225

  ==> Input File <==

--------------------------------------------------------------------------
#psi4
#
memory 32 gb

molecule  {
0 1
  S       -0.2613620    -0.5930190    -0.1424790
  O       -0.2870700    -1.2499240     1.2262220
  C        2.3977240     0.0716980     0.1844310
  C        1.0261530     0.6905850    -0.0782140
  C       -1.6743200     0.5466190    -0.2136450
  C        2.8653030    -0.7972080    -0.9817560
  C        3.4104270     1.1761770     0.4821660
  C       -2.9771600    -0.2389800    -0.1306750
  C       -4.1777961     0.6700811    -0.1123099
  H        2.2947170    -0.5588030     1.0765090
  H        0.7552030     1.3745990     0.7353710
  H        1.0111040     1.2381230    -1.0301620
  H       -1.5863530     1.2355690     0.6350930
  H       -1.6018540     1.1165020    -1.1483330
  H        2.9531350    -0.1978260    -1.8953020
  H        3.8477320    -1.2283710    -0.7670690
  H        2.1762820    -1.6227130    -1.1817050
  H        3.5229730     1.8417250    -0.3809710
  H        4.3924350     0.7485930     0.7071400
  H        3.0997810     1.7802300     1.3402560
  H       -3.0432920    -0.9285740    -0.9804800
  H       -2.9504610    -0.8515990     0.7760110
  H       -4.1584820     1.3575060     0.7479640
  H       -4.2413300     1.2926870    -1.0190020
  H       -5.1195520     0.1037900    -0.0468840
units angstrom
no_reorient  #important for SAPT in psi4, default
symmetry c1  #important for SAPT in psi4, default
}

set PROPERTIES_ORIGIN ["COM"]
properties('MP2/aug-cc-pvtz', properties = ['dipole'])
--------------------------------------------------------------------------

    Molecular point group: c1
  Charge       = 0
  Multiplicity = 1
  Basis Set: AUG-CC-PVTZ
    Blend: AUG-CC-PVTZ
  Basis Set: (AUG-CC-PVTZ AUX)
    Blend: AUG-CC-PVTZ-JKFIT

    Orbital Energies [Eh]
    ---------------------

    Doubly Occupied:

       1A    -92.057661     2A    -20.497527     3A    -11.261825
       4A    -11.259887     5A    -11.237781     6A    -11.232719
       7A    -11.224669     8A    -11.221084     9A    -11.217830
      10A     -9.045119    11A     -6.726717    12A     -6.726529
      13A     -6.725244    14A     -1.317185    15A     -1.109863
      16A     -1.087035    17A     -1.008741    18A     -0.941875
      19A     -0.937249    20A     -0.844713    21A     -0.800386
      22A     -0.772986    23A     -0.664874    24A     -0.649727
      25A     -0.630217    26A     -0.611304    27A     -0.593157
      28A     -0.587734    29A     -0.566087    30A     -0.553913
      31A     -0.545201    32A     -0.533494    33A     -0.516583
      34A     -0.505947    35A     -0.498800    36A     -0.484304
      37A     -0.480100    38A     -0.475501    39A     -0.472514
      40A     -0.403650    41A     -0.359448

  @DF-RHF Final Energy:  -746.89106778340806

   => Energetics <=

    Nuclear Repulsion Energy =            575.5833552316109945
    One-Electron Energy =               -2166.1744895492324758
    Two-Electron Energy =                 843.7000665342134198
    Total Energy =                       -746.8910677834080616
  Basis Set: (AUG-CC-PVTZ AUX)
    Blend: AUG-CC-PVTZ-RI
    Molecular point group: c1

    Geometry (in Angstrom), charge = 0, multiplicity = 1:

       Center              X                  Y                   Z               Mass
    ------------   -----------------  -----------------  -----------------  -----------------
         S           -0.253654935275    -0.547297943831    -0.158734696260    31.972071174400
         O           -0.279362935275    -1.204202943831     1.209966303740    15.994914619570
         C            2.405431064725     0.117419056169     0.168175303740    12.000000000000
         C            1.033860064725     0.736306056169    -0.094469696260    12.000000000000
         C           -1.666612935275     0.592340056169    -0.229900696260    12.000000000000
         C            2.873010064725    -0.751486943831    -0.998011696260    12.000000000000
         C            3.418134064725     1.221898056169     0.465910303740    12.000000000000
         C           -2.969452935275    -0.193258943831    -0.146930696260    12.000000000000
         C           -4.170089035275     0.715802156169    -0.128565596260    12.000000000000
         H            2.302424064725    -0.513081943831     1.060253303740     1.007825032230
         H            0.762910064725     1.420320056169     0.719115303740     1.007825032230
         H            1.018811064725     1.283844056169    -1.046417696260     1.007825032230
         H           -1.578645935275     1.281290056169     0.618837303740     1.007825032230
         H           -1.594146935275     1.162223056169    -1.164588696260     1.007825032230
         H            2.960842064725    -0.152104943831    -1.911557696260     1.007825032230
         H            3.855439064725    -1.182649943831    -0.783324696260     1.007825032230
         H            2.183989064725    -1.576991943831    -1.197960696260     1.007825032230
         H            3.530680064725     1.887446056169    -0.397226696260     1.007825032230
         H            4.400142064725     0.794314056169     0.690884303740     1.007825032230
         H            3.107488064725     1.825951056169     1.324000303740     1.007825032230
         H           -3.035584935275    -0.882852943831    -0.996735696260     1.007825032230
         H           -2.942753935275    -0.805877943831     0.759755303740     1.007825032230
         H           -4.150774935275     1.403227056169     0.731708303740     1.007825032230
         H           -4.233622935275     1.338408056169    -1.035257696260     1.007825032230
         H           -5.111844935275     0.149511056169    -0.063139696260     1.007825032230

  Basis Set: AUG-CC-PVTZ
    Blend: AUG-CC-PVTZ
  Basis Set: (AUG-CC-PVTZ AUX)
    Blend: AUG-CC-PVTZ-JKFIT
	 Reference Energy          =    -746.8910677834080616 [Eh]
	 Singles Energy            =      -0.0000000000000000 [Eh]
	 Same-Spin Energy          =      -0.4273926215817805 [Eh]
	 Opposite-Spin Energy      =      -1.4583575817743539 [Eh]
	 Correlation Energy        =      -1.8857502033561344 [Eh]
	 Total Energy              =    -748.7768179867641720 [Eh]

	 ================> DF-SCS-MP2 Energies <==================
	-----------------------------------------------------------
	 SCS Same-Spin Scale       =       0.3333333333333333 [-]
	 SCS Opposite-Spin Scale   =       1.2000000000000000 [-]
	 SCS Same-Spin Energy      =      -0.1424642071939268 [Eh]
	 SCS Opposite-Spin Energy  =      -1.7500290981292246 [Eh]
	 SCS Correlation Energy    =      -1.8924933053231514 [Eh]
	 SCS Total Energy          =    -748.7835610887311759 [Eh]
	-----------------------------------------------------------

  Dipole Moment: [D]
     X:    -0.0490      Y:     2.8834      Z:    -2.2773     Total:     3.6746

*** Psi4 exiting successfully. Buy a developer a beer!
