                               Psi4 1.4a3.dev225

  ==> Input File <==

--------------------------------------------------------------------------
#psi4
#
memory 32 gb

molecule  {
0 1
  S       -0.2613620    -0.5930190    -0.1424790
  O       -0.2870700    -1.2499240     1.2262220
  C        2.3977240     0.0716980     0.1844310
  C        1.0261530     0.6905850    -0.0782140
  C       -1.6743200     0.5466190    -0.2136450
  C        2.8653030    -0.7972080    -0.9817560
  C        3.4104270     1.1761770     0.4821660
  C       -2.9771600    -0.2389800    -0.1306750
  C       -4.1538802     0.6519732    -0.1126757
  H        2.2947170    -0.5588030     1.0765090
  H        0.7552030     1.3745990     0.7353710
  H        1.0111040     1.2381230    -1.0301620
  H       -1.5863530     1.2355690     0.6350930
  H       -1.6018540     1.1165020    -1.1483330
  H        2.9531350    -0.1978260    -1.8953020
  H        3.8477320    -1.2283710    -0.7670690
  H        2.1762820    -1.6227130    -1.1817050
  H        3.5229730     1.8417250    -0.3809710
  H        4.3924350     0.7485930     0.7071400
  H        3.0997810     1.7802300     1.3402560
  H       -3.0432920    -0.9285740    -0.9804800
  H       -2.9504610    -0.8515990     0.7760110
  H       -4.1584820     1.3575060     0.7479640
  H       -4.2413300     1.2926870    -1.0190020
  H       -5.1195520     0.1037900    -0.0468840
units angstrom
no_reorient  #important for SAPT in psi4, default
symmetry c1  #important for SAPT in psi4, default
}

set PROPERTIES_ORIGIN ["COM"]
properties('MP2/aug-cc-pvtz', properties = ['dipole'])
--------------------------------------------------------------------------

    Molecular point group: c1
  Charge       = 0
  Multiplicity = 1
  Basis Set: AUG-CC-PVTZ
    Blend: AUG-CC-PVTZ
  Basis Set: (AUG-CC-PVTZ AUX)
    Blend: AUG-CC-PVTZ-JKFIT

    Orbital Energies [Eh]
    ---------------------

    Doubly Occupied:

       1A    -92.057782     2A    -20.497644     3A    -11.261996
       4A    -11.259986     5A    -11.237849     6A    -11.231541
       7A    -11.226265     8A    -11.221134     9A    -11.217887
      10A     -9.045240    11A     -6.726839    12A     -6.726652
      13A     -6.725366    14A     -1.317311    15A     -1.110320
      16A     -1.090284    17A     -1.010439    18A     -0.941873
      19A     -0.937304    20A     -0.843213    21A     -0.800663
      22A     -0.773062    23A     -0.665522    24A     -0.650348
      25A     -0.631161    26A     -0.611667    27A     -0.593670
      28A     -0.587567    29A     -0.566082    30A     -0.553572
      31A     -0.545271    32A     -0.534385    33A     -0.520909
      34A     -0.505312    35A     -0.496553    36A     -0.481424
      37A     -0.479814    38A     -0.474958    39A     -0.472270
      40A     -0.403838    41A     -0.359595

  @DF-RHF Final Energy:  -746.88865581591108

   => Energetics <=

    Nuclear Repulsion Energy =            576.0586100030781154
    One-Electron Energy =               -2167.1053999435844162
    Two-Electron Energy =                 844.1581341245951080
    Total Energy =                       -746.8886558159110791
  Basis Set: (AUG-CC-PVTZ AUX)
    Blend: AUG-CC-PVTZ-RI
    Molecular point group: c1

    Geometry (in Angstrom), charge = 0, multiplicity = 1:

       Center              X                  Y                   Z               Mass
    ------------   -----------------  -----------------  -----------------  -----------------
         S           -0.255592855209    -0.545830649672    -0.158705055263    31.972071174400
         O           -0.281300855209    -1.202735649672     1.209995944737    15.994914619570
         C            2.403493144791     0.118886350328     0.168204944737    12.000000000000
         C            1.031922144791     0.737773350328    -0.094440055263    12.000000000000
         C           -1.668550855209     0.593807350328    -0.229871055263    12.000000000000
         C            2.871072144791    -0.750019649672    -0.997982055263    12.000000000000
         C            3.416196144791     1.223365350328     0.465939944737    12.000000000000
         C           -2.971390855209    -0.191791649672    -0.146901055263    12.000000000000
         C           -4.148111055209     0.699161550328    -0.128901755263    12.000000000000
         H            2.300486144791    -0.511614649672     1.060282944737     1.007825032230
         H            0.760972144791     1.421787350328     0.719144944737     1.007825032230
         H            1.016873144791     1.285311350328    -1.046388055263     1.007825032230
         H           -1.580583855209     1.282757350328     0.618866944737     1.007825032230
         H           -1.596084855209     1.163690350328    -1.164559055263     1.007825032230
         H            2.958904144791    -0.150637649672    -1.911528055263     1.007825032230
         H            3.853501144791    -1.181182649672    -0.783295055263     1.007825032230
         H            2.182051144791    -1.575524649672    -1.197931055263     1.007825032230
         H            3.528742144791     1.888913350328    -0.397197055263     1.007825032230
         H            4.398204144791     0.795781350328     0.690913944737     1.007825032230
         H            3.105550144791     1.827418350328     1.324029944737     1.007825032230
         H           -3.037522855209    -0.881385649672    -0.996706055263     1.007825032230
         H           -2.944691855209    -0.804410649672     0.759784944737     1.007825032230
         H           -4.152712855209     1.404694350328     0.731737944737     1.007825032230
         H           -4.235560855209     1.339875350328    -1.035228055263     1.007825032230
         H           -5.113782855209     0.150978350328    -0.063110055263     1.007825032230

  Basis Set: AUG-CC-PVTZ
    Blend: AUG-CC-PVTZ
  Basis Set: (AUG-CC-PVTZ AUX)
    Blend: AUG-CC-PVTZ-JKFIT
	 Reference Energy          =    -746.8886558159110791 [Eh]
	 Singles Energy            =      -0.0000000000000000 [Eh]
	 Same-Spin Energy          =      -0.4276415254552886 [Eh]
	 Opposite-Spin Energy      =      -1.4586308863402864 [Eh]
	 Correlation Energy        =      -1.8862724117955749 [Eh]
	 Total Energy              =    -748.7749282277067095 [Eh]

	 ================> DF-SCS-MP2 Energies <==================
	-----------------------------------------------------------
	 SCS Same-Spin Scale       =       0.3333333333333333 [-]
	 SCS Opposite-Spin Scale   =       1.2000000000000000 [-]
	 SCS Same-Spin Energy      =      -0.1425471751517629 [Eh]
	 SCS Opposite-Spin Energy  =      -1.7503570636083436 [Eh]
	 SCS Correlation Energy    =      -1.8929042387601065 [Eh]
	 SCS Total Energy          =    -748.7815600546712176 [Eh]
	-----------------------------------------------------------

  Dipole Moment: [D]
     X:    -0.0407      Y:     2.8772      Z:    -2.2764     Total:     3.6690

*** Psi4 exiting successfully. Buy a developer a beer!
