                               Psi4 1.4a3.dev225

  ==> Input File <==

--------------------------------------------------------------------------
#psi4
#
memory 32 gb

molecule  {
0 1
  S       -0.2613620    -0.5930190    -0.1424790
  O       -0.2870700    -1.2499240     1.2262220
  C        2.3977240     0.0716980     0.1844310
  C        1.0261530     0.6905850    -0.0782140
  C       -1.6743200     0.5466190    -0.2136450
  C        2.8653030    -0.7972080    -0.9817560
  C        3.4104270     1.1761770     0.4821660
  C       -2.9771600    -0.2389800    -0.1306750
  C       -4.1937400     0.6821530    -0.1120660
  H        2.2947170    -0.5588030     1.0765090
  H        0.7552030     1.3745990     0.7353710
  H        1.0111040     1.2381230    -1.0301620
  H       -1.5863530     1.2355690     0.6350930
  H       -1.6018540     1.1165020    -1.1483330
  H        2.9531350    -0.1978260    -1.8953020
  H        3.8477320    -1.2283710    -0.7670690
  H        2.2077814    -1.5849740    -1.1725641
  H        3.5229730     1.8417250    -0.3809710
  H        4.3924350     0.7485930     0.7071400
  H        3.0997810     1.7802300     1.3402560
  H       -3.0432920    -0.9285740    -0.9804800
  H       -2.9504610    -0.8515990     0.7760110
  H       -4.1584820     1.3575060     0.7479640
  H       -4.2413300     1.2926870    -1.0190020
  H       -5.1195520     0.1037900    -0.0468840
units angstrom
no_reorient  #important for SAPT in psi4, default
symmetry c1  #important for SAPT in psi4, default
}

set PROPERTIES_ORIGIN ["COM"]
properties('MP2/aug-cc-pvtz', properties = ['dipole'])
--------------------------------------------------------------------------

    Molecular point group: c1
  Charge       = 0
  Multiplicity = 1
  Basis Set: AUG-CC-PVTZ
    Blend: AUG-CC-PVTZ
  Basis Set: (AUG-CC-PVTZ AUX)
    Blend: AUG-CC-PVTZ-JKFIT

    Orbital Energies [Eh]
    ---------------------

    Doubly Occupied:

       1A    -92.057748     2A    -20.497560     3A    -11.261880
       4A    -11.259767     5A    -11.237266     6A    -11.233557
       7A    -11.223813     8A    -11.220605     9A    -11.211703
      10A     -9.045204    11A     -6.726806    12A     -6.726617
      13A     -6.725334    14A     -1.317222    15A     -1.109902
      16A     -1.085230    17A     -1.007929    18A     -0.943010
      19A     -0.940060    20A     -0.845872    21A     -0.800357
      22A     -0.773609    23A     -0.664738    24A     -0.650224
      25A     -0.630189    26A     -0.612173    27A     -0.595413
      28A     -0.587922    29A     -0.567130    30A     -0.554369
      31A     -0.545646    32A     -0.533208    33A     -0.515620
      34A     -0.506462    35A     -0.499469    36A     -0.486277
      37A     -0.481928    38A     -0.475487    39A     -0.472195
      40A     -0.403535    41A     -0.359613

  @DF-RHF Final Energy:  -746.89071832534114

   => Energetics <=

    Nuclear Repulsion Energy =            575.4598936759541630
    One-Electron Energy =               -2165.9159330649622461
    Two-Electron Energy =                 843.5653210636669428
    Total Energy =                       -746.8907183253411404
  Basis Set: (AUG-CC-PVTZ AUX)
    Blend: AUG-CC-PVTZ-RI
    Molecular point group: c1

    Geometry (in Angstrom), charge = 0, multiplicity = 1:

       Center              X                  Y                   Z               Mass
    ------------   -----------------  -----------------  -----------------  -----------------
         S           -0.252577357044    -0.548532965837    -0.158816667012    31.972071174400
         O           -0.278285357044    -1.205437965837     1.209884332988    15.994914619570
         C            2.406508642956     0.116184034163     0.168093332988    12.000000000000
         C            1.034937642956     0.735071034163    -0.094551667012    12.000000000000
         C           -1.665535357044     0.591105034163    -0.229982667012    12.000000000000
         C            2.874087642956    -0.752721965837    -0.998093667012    12.000000000000
         C            3.419211642956     1.220663034163     0.465828332988    12.000000000000
         C           -2.968375357044    -0.194493965837    -0.147012667012    12.000000000000
         C           -4.184955357044     0.726639034163    -0.128403667012    12.000000000000
         H            2.303501642956    -0.514316965837     1.060171332988     1.007825032230
         H            0.763987642956     1.419085034163     0.719033332988     1.007825032230
         H            1.019888642956     1.282609034163    -1.046499667012     1.007825032230
         H           -1.577568357044     1.280055034163     0.618755332988     1.007825032230
         H           -1.593069357044     1.160988034163    -1.164670667012     1.007825032230
         H            2.961919642956    -0.153339965837    -1.911639667012     1.007825032230
         H            3.856516642956    -1.183884965837    -0.783406667012     1.007825032230
         H            2.216566042956    -1.540487965837    -1.188901767012     1.007825032230
         H            3.531757642956     1.886211034163    -0.397308667012     1.007825032230
         H            4.401219642956     0.793079034163     0.690802332988     1.007825032230
         H            3.108565642956     1.824716034163     1.323918332988     1.007825032230
         H           -3.034507357044    -0.884087965837    -0.996817667012     1.007825032230
         H           -2.941676357044    -0.807112965837     0.759673332988     1.007825032230
         H           -4.149697357044     1.401992034163     0.731626332988     1.007825032230
         H           -4.232545357044     1.337173034163    -1.035339667012     1.007825032230
         H           -5.110767357044     0.148276034163    -0.063221667012     1.007825032230

  Basis Set: AUG-CC-PVTZ
    Blend: AUG-CC-PVTZ
  Basis Set: (AUG-CC-PVTZ AUX)
    Blend: AUG-CC-PVTZ-JKFIT
	 Reference Energy          =    -746.8907183253411404 [Eh]
	 Singles Energy            =      -0.0000000000000000 [Eh]
	 Same-Spin Energy          =      -0.4272267458321783 [Eh]
	 Opposite-Spin Energy      =      -1.4579159400144441 [Eh]
	 Correlation Energy        =      -1.8851426858466225 [Eh]
	 Total Energy              =    -748.7758610111877715 [Eh]

	 ================> DF-SCS-MP2 Energies <==================
	-----------------------------------------------------------
	 SCS Same-Spin Scale       =       0.3333333333333333 [-]
	 SCS Opposite-Spin Scale   =       1.2000000000000000 [-]
	 SCS Same-Spin Energy      =      -0.1424089152773928 [Eh]
	 SCS Opposite-Spin Energy  =      -1.7494991280173329 [Eh]
	 SCS Correlation Energy    =      -1.8919080432947257 [Eh]
	 SCS Total Energy          =    -748.7826263686358743 [Eh]
	-----------------------------------------------------------

  Dipole Moment: [D]
     X:    -0.0686      Y:     2.8672      Z:    -2.2871     Total:     3.6683

*** Psi4 exiting successfully. Buy a developer a beer!
