                               Psi4 1.4a3.dev225

  ==> Input File <==

--------------------------------------------------------------------------
#psi4
#
memory 32 gb

molecule  {
0 1
  S       -0.2613620    -0.5930190    -0.1424790
  O       -0.2870700    -1.2499240     1.2262220
  C        2.3977240     0.0716980     0.1844310
  C        1.0261530     0.6905850    -0.0782140
  C       -1.6743200     0.5466190    -0.2136450
  C        2.8653030    -0.7972080    -0.9817560
  C        3.4104270     1.1761770     0.4821660
  C       -2.9771600    -0.2389800    -0.1306750
  C       -4.2096839     0.6942249    -0.1118221
  H        2.2947170    -0.5588030     1.0765090
  H        0.7552030     1.3745990     0.7353710
  H        1.0111040     1.2381230    -1.0301620
  H       -1.5863530     1.2355690     0.6350930
  H       -1.6018540     1.1165020    -1.1483330
  H        2.9531350    -0.1978260    -1.8953020
  H        3.8477320    -1.2283710    -0.7670690
  H        2.1762820    -1.6227130    -1.1817050
  H        3.5229730     1.8417250    -0.3809710
  H        4.3924350     0.7485930     0.7071400
  H        3.0997810     1.7802300     1.3402560
  H       -3.0432920    -0.9285740    -0.9804800
  H       -2.9504610    -0.8515990     0.7760110
  H       -4.1584820     1.3575060     0.7479640
  H       -4.2413300     1.2926870    -1.0190020
  H       -5.1195520     0.1037900    -0.0468840
units angstrom
no_reorient  #important for SAPT in psi4, default
symmetry c1  #important for SAPT in psi4, default
}

set PROPERTIES_ORIGIN ["COM"]
properties('MP2/aug-cc-pvtz', properties = ['dipole'])
--------------------------------------------------------------------------

    Molecular point group: c1
  Charge       = 0
  Multiplicity = 1
  Basis Set: AUG-CC-PVTZ
    Blend: AUG-CC-PVTZ
  Basis Set: (AUG-CC-PVTZ AUX)
    Blend: AUG-CC-PVTZ-JKFIT

    Orbital Energies [Eh]
    ---------------------

    Doubly Occupied:

       1A    -92.057513     2A    -20.497388     3A    -11.261656
       4A    -11.259770     5A    -11.237701     6A    -11.234194
       7A    -11.222948     8A    -11.221025     9A    -11.217761
      10A     -9.044971    11A     -6.726569    12A     -6.726380
      13A     -6.725095    14A     -1.317034    15A     -1.109446
      16A     -1.083229    17A     -1.006604    18A     -0.942034
      19A     -0.937185    20A     -0.846520    21A     -0.799981
      22A     -0.772894    23A     -0.664167    24A     -0.649014
      25A     -0.629232    26A     -0.610936    27A     -0.593038
      28A     -0.588215    29A     -0.566996    30A     -0.554601
      31A     -0.545157    32A     -0.533060    33A     -0.512590
      34A     -0.506948    35A     -0.498624    36A     -0.487645
      37A     -0.479891    38A     -0.475646    39A     -0.472414
      40A     -0.403262    41A     -0.359261

  @DF-RHF Final Energy:  -746.89148531117917

   => Energetics <=

    Nuclear Repulsion Energy =            574.9651970926591957
    One-Electron Energy =               -2164.9561703012595899
    Two-Electron Energy =                 843.0994878974211133
    Total Energy =                       -746.8914853111791672
  Basis Set: (AUG-CC-PVTZ AUX)
    Blend: AUG-CC-PVTZ-RI
    Molecular point group: c1

    Geometry (in Angstrom), charge = 0, multiplicity = 1:

       Center              X                  Y                   Z               Mass
    ------------   -----------------  -----------------  -----------------  -----------------
         S           -0.251071047431    -0.549254330642    -0.158774222991    31.972071174400
         O           -0.276779047431    -1.206159330642     1.209926777009    15.994914619570
         C            2.408014952569     0.115462669358     0.168135777009    12.000000000000
         C            1.036443952569     0.734349669358    -0.094509222991    12.000000000000
         C           -1.664029047431     0.590383669358    -0.229940222991    12.000000000000
         C            2.875593952569    -0.753443330642    -0.998051222991    12.000000000000
         C            3.420717952569     1.219941669358     0.465870777009    12.000000000000
         C           -2.966869047431    -0.195215330642    -0.146970222991    12.000000000000
         C           -4.199392947431     0.737989569358    -0.128117322991    12.000000000000
         H            2.305007952569    -0.515038330642     1.060213777009     1.007825032230
         H            0.765493952569     1.418363669358     0.719075777009     1.007825032230
         H            1.021394952569     1.281887669358    -1.046457222991     1.007825032230
         H           -1.576062047431     1.279333669358     0.618797777009     1.007825032230
         H           -1.591563047431     1.160266669358    -1.164628222991     1.007825032230
         H            2.963425952569    -0.154061330642    -1.911597222991     1.007825032230
         H            3.858022952569    -1.184606330642    -0.783364222991     1.007825032230
         H            2.186572952569    -1.578948330642    -1.198000222991     1.007825032230
         H            3.533263952569     1.885489669358    -0.397266222991     1.007825032230
         H            4.402725952569     0.792357669358     0.690844777009     1.007825032230
         H            3.110071952569     1.823994669358     1.323960777009     1.007825032230
         H           -3.033001047431    -0.884809330642    -0.996775222991     1.007825032230
         H           -2.940170047431    -0.807834330642     0.759715777009     1.007825032230
         H           -4.148191047431     1.401270669358     0.731668777009     1.007825032230
         H           -4.231039047431     1.336451669358    -1.035297222991     1.007825032230
         H           -5.109261047431     0.147554669358    -0.063179222991     1.007825032230

  Basis Set: AUG-CC-PVTZ
    Blend: AUG-CC-PVTZ
  Basis Set: (AUG-CC-PVTZ AUX)
    Blend: AUG-CC-PVTZ-JKFIT
	 Reference Energy          =    -746.8914853111791672 [Eh]
	 Singles Energy            =      -0.0000000000000000 [Eh]
	 Same-Spin Energy          =      -0.4271612358461528 [Eh]
	 Opposite-Spin Energy      =      -1.4581729273448920 [Eh]
	 Correlation Energy        =      -1.8853341631910450 [Eh]
	 Total Energy              =    -748.7768194743701997 [Eh]

	 ================> DF-SCS-MP2 Energies <==================
	-----------------------------------------------------------
	 SCS Same-Spin Scale       =       0.3333333333333333 [-]
	 SCS Opposite-Spin Scale   =       1.2000000000000000 [-]
	 SCS Same-Spin Energy      =      -0.1423870786153843 [Eh]
	 SCS Opposite-Spin Energy  =      -1.7498075128138704 [Eh]
	 SCS Correlation Energy    =      -1.8921945914292546 [Eh]
	 SCS Total Energy          =    -748.7836799026084691 [Eh]
	-----------------------------------------------------------

  Dipole Moment: [D]
     X:    -0.0560      Y:     2.8890      Z:    -2.2785     Total:     3.6798

*** Psi4 exiting successfully. Buy a developer a beer!
