                               Psi4 1.4a3.dev225

  ==> Input File <==

--------------------------------------------------------------------------
#psi4
#
memory 32 gb

molecule  {
0 1
  S       -0.2229897    -0.5318795    -0.0382283
  O       -0.2870700    -1.2499240     1.2262220
  C        2.3977240     0.0716980     0.1844310
  C        1.0261530     0.6905850    -0.0782140
  C       -1.6743200     0.5466190    -0.2136450
  C        2.8653030    -0.7972080    -0.9817560
  C        3.4104270     1.1761770     0.4821660
  C       -2.9771600    -0.2389800    -0.1306750
  C       -4.1937400     0.6821530    -0.1120660
  H        2.2947170    -0.5588030     1.0765090
  H        0.7552030     1.3745990     0.7353710
  H        1.0111040     1.2381230    -1.0301620
  H       -1.5863530     1.2355690     0.6350930
  H       -1.6018540     1.1165020    -1.1483330
  H        2.9531350    -0.1978260    -1.8953020
  H        3.8477320    -1.2283710    -0.7670690
  H        2.1762820    -1.6227130    -1.1817050
  H        3.5229730     1.8417250    -0.3809710
  H        4.3924350     0.7485930     0.7071400
  H        3.0997810     1.7802300     1.3402560
  H       -3.0432920    -0.9285740    -0.9804800
  H       -2.9504610    -0.8515990     0.7760110
  H       -4.1584820     1.3575060     0.7479640
  H       -4.2413300     1.2926870    -1.0190020
  H       -5.1195520     0.1037900    -0.0468840
units angstrom
no_reorient  #important for SAPT in psi4, default
symmetry c1  #important for SAPT in psi4, default
}

set PROPERTIES_ORIGIN ["COM"]
properties('MP2/aug-cc-pvtz', properties = ['dipole'])
--------------------------------------------------------------------------

    Molecular point group: c1
  Charge       = 0
  Multiplicity = 1
  Basis Set: AUG-CC-PVTZ
    Blend: AUG-CC-PVTZ
  Basis Set: (AUG-CC-PVTZ AUX)
    Blend: AUG-CC-PVTZ-JKFIT

    Orbital Energies [Eh]
    ---------------------

    Doubly Occupied:

       1A    -92.047763     2A    -20.502125     3A    -11.258744
       4A    -11.255409     5A    -11.239950     6A    -11.233026
       7A    -11.223248     8A    -11.221722     9A    -11.217446
      10A     -9.037173    11A     -6.719170    12A     -6.718932
      13A     -6.717603    14A     -1.355641    15A     -1.116713
      16A     -1.083643    17A     -1.014411    18A     -0.944560
      19A     -0.937381    20A     -0.843005    21A     -0.797133
      22A     -0.771919    23A     -0.668454    24A     -0.655897
      25A     -0.632021    26A     -0.614410    27A     -0.597956
      28A     -0.590227    29A     -0.570157    30A     -0.560634
      31A     -0.545848    32A     -0.534892    33A     -0.521106
      34A     -0.513874    35A     -0.498969    36A     -0.486319
      37A     -0.482819    38A     -0.479095    39A     -0.475489
      40A     -0.415960    41A     -0.341327

  @DF-RHF Final Energy:  -746.88554163944184

   => Energetics <=

    Nuclear Repulsion Energy =            579.0214271496828360
    One-Electron Energy =               -2172.9295974758424563
    Two-Electron Energy =                 847.0226286867176668
    Total Energy =                       -746.8855416394418398
  Basis Set: (AUG-CC-PVTZ AUX)
    Blend: AUG-CC-PVTZ-RI
    Molecular point group: c1

    Geometry (in Angstrom), charge = 0, multiplicity = 1:

       Center              X                  Y                   Z               Mass
    ------------   -----------------  -----------------  -----------------  -----------------
         S           -0.222275003559    -0.500336229290    -0.077010759376    31.972071174400
         O           -0.286355303559    -1.218380729290     1.187439540624    15.994914619570
         C            2.398438696441     0.103241270710     0.145648540624    12.000000000000
         C            1.026867696441     0.722128270710    -0.116996459376    12.000000000000
         C           -1.673605303559     0.578162270710    -0.252427459376    12.000000000000
         C            2.866017696441    -0.765664729290    -1.020538459376    12.000000000000
         C            3.411141696441     1.207720270710     0.443383540624    12.000000000000
         C           -2.976445303559    -0.207436729290    -0.169457459376    12.000000000000
         C           -4.193025303559     0.713696270710    -0.150848459376    12.000000000000
         H            2.295431696441    -0.527259729290     1.037726540624     1.007825032230
         H            0.755917696441     1.406142270710     0.696588540624     1.007825032230
         H            1.011818696441     1.269666270710    -1.068944459376     1.007825032230
         H           -1.585638303559     1.267112270710     0.596310540624     1.007825032230
         H           -1.601139303559     1.148045270710    -1.187115459376     1.007825032230
         H            2.953849696441    -0.166282729290    -1.934084459376     1.007825032230
         H            3.848446696441    -1.196827729290    -0.805851459376     1.007825032230
         H            2.176996696441    -1.591169729290    -1.220487459376     1.007825032230
         H            3.523687696441     1.873268270710    -0.419753459376     1.007825032230
         H            4.393149696441     0.780136270710     0.668357540624     1.007825032230
         H            3.100495696441     1.811773270710     1.301473540624     1.007825032230
         H           -3.042577303559    -0.897030729290    -1.019262459376     1.007825032230
         H           -2.949746303559    -0.820055729290     0.737228540624     1.007825032230
         H           -4.157767303559     1.389049270710     0.709181540624     1.007825032230
         H           -4.240615303559     1.324230270710    -1.057784459376     1.007825032230
         H           -5.118837303559     0.135333270710    -0.085666459376     1.007825032230

  Basis Set: AUG-CC-PVTZ
    Blend: AUG-CC-PVTZ
  Basis Set: (AUG-CC-PVTZ AUX)
    Blend: AUG-CC-PVTZ-JKFIT
	 Reference Energy          =    -746.8855416394418398 [Eh]
	 Singles Energy            =      -0.0000000000000000 [Eh]
	 Same-Spin Energy          =      -0.4267813573623714 [Eh]
	 Opposite-Spin Energy      =      -1.4552164425286842 [Eh]
	 Correlation Energy        =      -1.8819977998910558 [Eh]
	 Total Energy              =    -748.7675394393329498 [Eh]

	 ================> DF-SCS-MP2 Energies <==================
	-----------------------------------------------------------
	 SCS Same-Spin Scale       =       0.3333333333333333 [-]
	 SCS Opposite-Spin Scale   =       1.2000000000000000 [-]
	 SCS Same-Spin Energy      =      -0.1422604524541238 [Eh]
	 SCS Opposite-Spin Energy  =      -1.7462597310344210 [Eh]
	 SCS Correlation Energy    =      -1.8885201834885448 [Eh]
	 SCS Total Energy          =    -748.7740618229304346 [Eh]
	-----------------------------------------------------------

  Dipole Moment: [D]
     X:     0.0891      Y:     2.8748      Z:    -2.0031     Total:     3.5050

*** Psi4 exiting successfully. Buy a developer a beer!
