                               Psi4 1.4a3.dev225

  ==> Input File <==

--------------------------------------------------------------------------
#psi4
#
memory 32 gb

molecule  {
0 1
  S       -0.2613620    -0.5930190    -0.1424790
  O       -0.2870700    -1.2499240     1.2262220
  C        2.3977240     0.0716980     0.1844310
  C        1.0261530     0.6905850    -0.0782140
  C       -1.6743200     0.5466190    -0.2136450
  C        2.9090900    -0.7670091    -0.9854814
  C        3.4104270     1.1761770     0.4821660
  C       -2.9771600    -0.2389800    -0.1306750
  C       -4.1937400     0.6821530    -0.1120660
  H        2.2947170    -0.5588030     1.0765090
  H        0.7552030     1.3745990     0.7353710
  H        1.0111040     1.2381230    -1.0301620
  H       -1.5863530     1.2355690     0.6350930
  H       -1.6018540     1.1165020    -1.1483330
  H        2.9531350    -0.1978260    -1.8953020
  H        3.8477320    -1.2283710    -0.7670690
  H        2.1762820    -1.6227130    -1.1817050
  H        3.5229730     1.8417250    -0.3809710
  H        4.3924350     0.7485930     0.7071400
  H        3.0997810     1.7802300     1.3402560
  H       -3.0432920    -0.9285740    -0.9804800
  H       -2.9504610    -0.8515990     0.7760110
  H       -4.1584820     1.3575060     0.7479640
  H       -4.2413300     1.2926870    -1.0190020
  H       -5.1195520     0.1037900    -0.0468840
units angstrom
no_reorient  #important for SAPT in psi4, default
symmetry c1  #important for SAPT in psi4, default
}

set PROPERTIES_ORIGIN ["COM"]
properties('MP2/aug-cc-pvtz', properties = ['dipole'])
--------------------------------------------------------------------------

    Molecular point group: c1
  Charge       = 0
  Multiplicity = 1
  Basis Set: AUG-CC-PVTZ
    Blend: AUG-CC-PVTZ
  Basis Set: (AUG-CC-PVTZ AUX)
    Blend: AUG-CC-PVTZ-JKFIT

    Orbital Energies [Eh]
    ---------------------

    Doubly Occupied:

       1A    -92.057566     2A    -20.497436     3A    -11.261716
       4A    -11.260507     5A    -11.237843     6A    -11.233457
       7A    -11.223737     8A    -11.220141     9A    -11.218015
      10A     -9.045012    11A     -6.726608    12A     -6.726419
      13A     -6.725132    14A     -1.317070    15A     -1.109750
      16A     -1.085145    17A     -1.008243    18A     -0.942672
      19A     -0.935645    20A     -0.845825    21A     -0.800151
      22A     -0.773758    23A     -0.665090    24A     -0.649710
      25A     -0.629257    26A     -0.611302    27A     -0.590932
      28A     -0.588656    29A     -0.565716    30A     -0.554722
      31A     -0.548843    32A     -0.534079    33A     -0.514094
      34A     -0.506224    35A     -0.499569    36A     -0.486017
      37A     -0.478158    38A     -0.475935    39A     -0.469873
      40A     -0.403446    41A     -0.359065

  @DF-RHF Final Energy:  -746.88872759894002

   => Energetics <=

    Nuclear Repulsion Energy =            574.9945793258332287
    One-Electron Energy =               -2165.0015365301765087
    Two-Electron Energy =                 843.1182296054032577
    Total Energy =                       -746.8887275989400223
  Basis Set: (AUG-CC-PVTZ AUX)
    Blend: AUG-CC-PVTZ-RI
    Molecular point group: c1

    Geometry (in Angstrom), charge = 0, multiplicity = 1:

       Center              X                  Y                   Z               Mass
    ------------   -----------------  -----------------  -----------------  -----------------
         S           -0.255911078616    -0.550723172486    -0.158452588196    31.972071174400
         O           -0.281619078616    -1.207628172486     1.210248411804    15.994914619570
         C            2.403174921384     0.113993827514     0.168457411804    12.000000000000
         C            1.031603921384     0.732880827514    -0.094187588196    12.000000000000
         C           -1.668869078616     0.588914827514    -0.229618588196    12.000000000000
         C            2.914540921384    -0.724713272486    -1.001454988196    12.000000000000
         C            3.415877921384     1.218472827514     0.466192411804    12.000000000000
         C           -2.971709078616    -0.196684172486    -0.146648588196    12.000000000000
         C           -4.188289078616     0.724448827514    -0.128039588196    12.000000000000
         H            2.300167921384    -0.516507172486     1.060535411804     1.007825032230
         H            0.760653921384     1.416894827514     0.719397411804     1.007825032230
         H            1.016554921384     1.280418827514    -1.046135588196     1.007825032230
         H           -1.580902078616     1.277864827514     0.619119411804     1.007825032230
         H           -1.596403078616     1.158797827514    -1.164306588196     1.007825032230
         H            2.958585921384    -0.155530172486    -1.911275588196     1.007825032230
         H            3.853182921384    -1.186075172486    -0.783042588196     1.007825032230
         H            2.181732921384    -1.580417172486    -1.197678588196     1.007825032230
         H            3.528423921384     1.884020827514    -0.396944588196     1.007825032230
         H            4.397885921384     0.790888827514     0.691166411804     1.007825032230
         H            3.105231921384     1.822525827514     1.324282411804     1.007825032230
         H           -3.037841078616    -0.886278172486    -0.996453588196     1.007825032230
         H           -2.945010078616    -0.809303172486     0.760037411804     1.007825032230
         H           -4.153031078616     1.399801827514     0.731990411804     1.007825032230
         H           -4.235879078616     1.334982827514    -1.034975588196     1.007825032230
         H           -5.114101078616     0.146085827514    -0.062857588196     1.007825032230

  Basis Set: AUG-CC-PVTZ
    Blend: AUG-CC-PVTZ
  Basis Set: (AUG-CC-PVTZ AUX)
    Blend: AUG-CC-PVTZ-JKFIT
	 Reference Energy          =    -746.8887275989400223 [Eh]
	 Singles Energy            =      -0.0000000000000000 [Eh]
	 Same-Spin Energy          =      -0.4273034365130575 [Eh]
	 Opposite-Spin Energy      =      -1.4583696381038740 [Eh]
	 Correlation Energy        =      -1.8856730746169315 [Eh]
	 Total Energy              =    -748.7744006735568973 [Eh]

	 ================> DF-SCS-MP2 Energies <==================
	-----------------------------------------------------------
	 SCS Same-Spin Scale       =       0.3333333333333333 [-]
	 SCS Opposite-Spin Scale   =       1.2000000000000000 [-]
	 SCS Same-Spin Energy      =      -0.1424344788376858 [Eh]
	 SCS Opposite-Spin Energy  =      -1.7500435657246487 [Eh]
	 SCS Correlation Energy    =      -1.8924780445623346 [Eh]
	 SCS Total Energy          =    -748.7812056435024033 [Eh]
	-----------------------------------------------------------

  Dipole Moment: [D]
     X:    -0.0502      Y:     2.8908      Z:    -2.2892     Total:     3.6877

*** Psi4 exiting successfully. Buy a developer a beer!
