                               Psi4 1.4a3.dev225

  ==> Input File <==

--------------------------------------------------------------------------
#psi4
#
memory 32 gb

molecule  {
0 1
  S       -0.2613620    -0.5930190    -0.1424790
  O       -0.2870700    -1.2499240     1.2262220
  C        2.3977240     0.0716980     0.1844310
  C        1.1531028     0.5488038    -0.0718101
  C       -1.6743200     0.5466190    -0.2136450
  C        2.8653030    -0.7972080    -0.9817560
  C        3.4104270     1.1761770     0.4821660
  C       -2.9771600    -0.2389800    -0.1306750
  C       -4.1937400     0.6821530    -0.1120660
  H        2.2947170    -0.5588030     1.0765090
  H        0.7552030     1.3745990     0.7353710
  H        1.0111040     1.2381230    -1.0301620
  H       -1.5863530     1.2355690     0.6350930
  H       -1.6018540     1.1165020    -1.1483330
  H        2.9531350    -0.1978260    -1.8953020
  H        3.8477320    -1.2283710    -0.7670690
  H        2.1762820    -1.6227130    -1.1817050
  H        3.5229730     1.8417250    -0.3809710
  H        4.3924350     0.7485930     0.7071400
  H        3.0997810     1.7802300     1.3402560
  H       -3.0432920    -0.9285740    -0.9804800
  H       -2.9504610    -0.8515990     0.7760110
  H       -4.1584820     1.3575060     0.7479640
  H       -4.2413300     1.2926870    -1.0190020
  H       -5.1195520     0.1037900    -0.0468840
units angstrom
no_reorient  #important for SAPT in psi4, default
symmetry c1  #important for SAPT in psi4, default
}

set PROPERTIES_ORIGIN ["COM"]
properties('MP2/aug-cc-pvtz', properties = ['dipole'])
--------------------------------------------------------------------------

    Molecular point group: c1
  Charge       = 0
  Multiplicity = 1
  Basis Set: AUG-CC-PVTZ
    Blend: AUG-CC-PVTZ
  Basis Set: (AUG-CC-PVTZ AUX)
    Blend: AUG-CC-PVTZ-JKFIT

    Orbital Energies [Eh]
    ---------------------

    Doubly Occupied:

       1A    -92.057666     2A    -20.494058     3A    -11.272894
       4A    -11.265512     5A    -11.236464     6A    -11.228343
       7A    -11.225672     8A    -11.224749     9A    -11.219001
      10A     -9.045160    11A     -6.726808    12A     -6.726689
      13A     -6.725279    14A     -1.315710    15A     -1.137242
      16A     -1.089077    17A     -1.003804    18A     -0.945994
      19A     -0.939575    20A     -0.857891    21A     -0.805851
      22A     -0.762223    23A     -0.665821    24A     -0.657468
      25A     -0.633934    26A     -0.616929    27A     -0.594641
      28A     -0.582857    29A     -0.568942    30A     -0.548069
      31A     -0.544820    32A     -0.531825    33A     -0.515780
      34A     -0.505156    35A     -0.503590    36A     -0.496294
      37A     -0.486534    38A     -0.476771    39A     -0.449466
      40A     -0.405878    41A     -0.350394

  @DF-RHF Final Energy:  -746.85132045364594

   => Energetics <=

    Nuclear Repulsion Energy =            576.9759169447206659
    One-Electron Energy =               -2168.7728148877708918
    Two-Electron Energy =                 844.9455774894042861
    Total Energy =                       -746.8513204536459398
  Basis Set: (AUG-CC-PVTZ AUX)
    Blend: AUG-CC-PVTZ-RI
    Molecular point group: c1

    Geometry (in Angstrom), charge = 0, multiplicity = 1:

       Center              X                  Y                   Z               Mass
    ------------   -----------------  -----------------  -----------------  -----------------
         S           -0.262649810921    -0.536787520299    -0.159273371540    31.972071174400
         O           -0.288357810921    -1.193692520299     1.209427628460    15.994914619570
         C            2.396436189079     0.127929479701     0.167636628460    12.000000000000
         C            1.151814989079     0.605035279701    -0.088604471540    12.000000000000
         C           -1.675607810921     0.602850479701    -0.230439371540    12.000000000000
         C            2.864015189079    -0.740976520299    -0.998550371540    12.000000000000
         C            3.409139189079     1.232408479701     0.465371628460    12.000000000000
         C           -2.978447810921    -0.182748520299    -0.147469371540    12.000000000000
         C           -4.195027810921     0.738384479701    -0.128860371540    12.000000000000
         H            2.293429189079    -0.502571520299     1.059714628460     1.007825032230
         H            0.753915189079     1.430830479701     0.718576628460     1.007825032230
         H            1.009816189079     1.294354479701    -1.046956371540     1.007825032230
         H           -1.587640810921     1.291800479701     0.618298628460     1.007825032230
         H           -1.603141810921     1.172733479701    -1.165127371540     1.007825032230
         H            2.951847189079    -0.141594520299    -1.912096371540     1.007825032230
         H            3.846444189079    -1.172139520299    -0.783863371540     1.007825032230
         H            2.174994189079    -1.566481520299    -1.198499371540     1.007825032230
         H            3.521685189079     1.897956479701    -0.397765371540     1.007825032230
         H            4.391147189079     0.804824479701     0.690345628460     1.007825032230
         H            3.098493189079     1.836461479701     1.323461628460     1.007825032230
         H           -3.044579810921    -0.872342520299    -0.997274371540     1.007825032230
         H           -2.951748810921    -0.795367520299     0.759216628460     1.007825032230
         H           -4.159769810921     1.413737479701     0.731169628460     1.007825032230
         H           -4.242617810921     1.348918479701    -1.035796371540     1.007825032230
         H           -5.120839810921     0.160021479701    -0.063678371540     1.007825032230

  Basis Set: AUG-CC-PVTZ
    Blend: AUG-CC-PVTZ
  Basis Set: (AUG-CC-PVTZ AUX)
    Blend: AUG-CC-PVTZ-JKFIT
	 Reference Energy          =    -746.8513204536459398 [Eh]
	 Singles Energy            =      -0.0000000000000000 [Eh]
	 Same-Spin Energy          =      -0.4298150537635224 [Eh]
	 Opposite-Spin Energy      =      -1.4614422834715461 [Eh]
	 Correlation Energy        =      -1.8912573372350685 [Eh]
	 Total Energy              =    -748.7425777908810005 [Eh]

	 ================> DF-SCS-MP2 Energies <==================
	-----------------------------------------------------------
	 SCS Same-Spin Scale       =       0.3333333333333333 [-]
	 SCS Opposite-Spin Scale   =       1.2000000000000000 [-]
	 SCS Same-Spin Energy      =      -0.1432716845878408 [Eh]
	 SCS Opposite-Spin Energy  =      -1.7537307401658553 [Eh]
	 SCS Correlation Energy    =      -1.8970024247536961 [Eh]
	 SCS Total Energy          =    -748.7483228783996765 [Eh]
	-----------------------------------------------------------

  Dipole Moment: [D]
     X:    -0.0132      Y:     2.9053      Z:    -2.2788     Total:     3.6924

*** Psi4 exiting successfully. Buy a developer a beer!
