                               Psi4 1.4a3.dev225

  ==> Input File <==

--------------------------------------------------------------------------
#psi4
#
memory 32 gb

molecule  {
0 1
  S       -0.2613620    -0.5930190    -0.1424790
  O       -0.2870700    -1.2499240     1.2262220
  C        2.3977240     0.0716980     0.1844310
  C        1.0161355     0.6661798    -0.0820553
  C       -1.6743200     0.5466190    -0.2136450
  C        2.8653030    -0.7972080    -0.9817560
  C        3.4104270     1.1761770     0.4821660
  C       -2.9771600    -0.2389800    -0.1306750
  C       -4.1937400     0.6821530    -0.1120660
  H        2.2947170    -0.5588030     1.0765090
  H        0.7552030     1.3745990     0.7353710
  H        1.0111040     1.2381230    -1.0301620
  H       -1.5863530     1.2355690     0.6350930
  H       -1.6018540     1.1165020    -1.1483330
  H        2.9531350    -0.1978260    -1.8953020
  H        3.8477320    -1.2283710    -0.7670690
  H        2.1762820    -1.6227130    -1.1817050
  H        3.5229730     1.8417250    -0.3809710
  H        4.3924350     0.7485930     0.7071400
  H        3.0997810     1.7802300     1.3402560
  H       -3.0432920    -0.9285740    -0.9804800
  H       -2.9504610    -0.8515990     0.7760110
  H       -4.1584820     1.3575060     0.7479640
  H       -4.2413300     1.2926870    -1.0190020
  H       -5.1195520     0.1037900    -0.0468840
units angstrom
no_reorient  #important for SAPT in psi4, default
symmetry c1  #important for SAPT in psi4, default
}

set PROPERTIES_ORIGIN ["COM"]
properties('MP2/aug-cc-pvtz', properties = ['dipole'])
--------------------------------------------------------------------------

    Molecular point group: c1
  Charge       = 0
  Multiplicity = 1
  Basis Set: AUG-CC-PVTZ
    Blend: AUG-CC-PVTZ
  Basis Set: (AUG-CC-PVTZ AUX)
    Blend: AUG-CC-PVTZ-JKFIT

    Orbital Energies [Eh]
    ---------------------

    Doubly Occupied:

       1A    -92.057965     2A    -20.497379     3A    -11.262052
       4A    -11.260495     5A    -11.237925     6A    -11.233715
       7A    -11.223933     8A    -11.221504     9A    -11.217508
      10A     -9.045642    11A     -6.727293    12A     -6.727088
      13A     -6.725784    14A     -1.317856    15A     -1.110352
      16A     -1.085272    17A     -1.009634    18A     -0.942220
      19A     -0.937069    20A     -0.845987    21A     -0.801093
      22A     -0.771299    23A     -0.663969    24A     -0.649432
      25A     -0.630451    26A     -0.610946    27A     -0.593094
      28A     -0.587784    29A     -0.566373    30A     -0.554197
      31A     -0.545058    32A     -0.533269    33A     -0.514472
      34A     -0.505509    35A     -0.499561    36A     -0.486378
      37A     -0.479576    38A     -0.474564    39A     -0.471842
      40A     -0.405896    41A     -0.359914

  @DF-RHF Final Energy:  -746.89095546557064

   => Energetics <=

    Nuclear Repulsion Energy =            575.7012846992812456
    One-Electron Energy =               -2166.4017791575370211
    Two-Electron Energy =                 843.8095389926852476
    Total Energy =                       -746.8909554655706415
  Basis Set: (AUG-CC-PVTZ AUX)
    Blend: AUG-CC-PVTZ-RI
    Molecular point group: c1

    Geometry (in Angstrom), charge = 0, multiplicity = 1:

       Center              X                  Y                   Z               Mass
    ------------   -----------------  -----------------  -----------------  -----------------
         S           -0.251551267230    -0.546298569025    -0.158443196748    31.972071174400
         O           -0.277259267230    -1.203203569025     1.210257803252    15.994914619570
         C            2.407534732770     0.118418430975     0.168466803252    12.000000000000
         C            1.025946232770     0.712900230975    -0.098019496748    12.000000000000
         C           -1.664509267230     0.593339430975    -0.229609196748    12.000000000000
         C            2.875113732770    -0.750487569025    -0.997720196748    12.000000000000
         C            3.420237732770     1.222897430975     0.466201803252    12.000000000000
         C           -2.967349267230    -0.192259569025    -0.146639196748    12.000000000000
         C           -4.183929267230     0.728873430975    -0.128030196748    12.000000000000
         H            2.304527732770    -0.512082569025     1.060544803252     1.007825032230
         H            0.765013732770     1.421319430975     0.719406803252     1.007825032230
         H            1.020914732770     1.284843430975    -1.046126196748     1.007825032230
         H           -1.576542267230     1.282289430975     0.619128803252     1.007825032230
         H           -1.592043267230     1.163222430975    -1.164297196748     1.007825032230
         H            2.962945732770    -0.151105569025    -1.911266196748     1.007825032230
         H            3.857542732770    -1.181650569025    -0.783033196748     1.007825032230
         H            2.186092732770    -1.575992569025    -1.197669196748     1.007825032230
         H            3.532783732770     1.888445430975    -0.396935196748     1.007825032230
         H            4.402245732770     0.795313430975     0.691175803252     1.007825032230
         H            3.109591732770     1.826950430975     1.324291803252     1.007825032230
         H           -3.033481267230    -0.881853569025    -0.996444196748     1.007825032230
         H           -2.940650267230    -0.804878569025     0.760046803252     1.007825032230
         H           -4.148671267230     1.404226430975     0.731999803252     1.007825032230
         H           -4.231519267230     1.339407430975    -1.034966196748     1.007825032230
         H           -5.109741267230     0.150510430975    -0.062848196748     1.007825032230

  Basis Set: AUG-CC-PVTZ
    Blend: AUG-CC-PVTZ
  Basis Set: (AUG-CC-PVTZ AUX)
    Blend: AUG-CC-PVTZ-JKFIT
	 Reference Energy          =    -746.8909554655706415 [Eh]
	 Singles Energy            =      -0.0000000000000000 [Eh]
	 Same-Spin Energy          =      -0.4273497542530184 [Eh]
	 Opposite-Spin Energy      =      -1.4581991188656422 [Eh]
	 Correlation Energy        =      -1.8855488731186605 [Eh]
	 Total Energy              =    -748.7765043386892785 [Eh]

	 ================> DF-SCS-MP2 Energies <==================
	-----------------------------------------------------------
	 SCS Same-Spin Scale       =       0.3333333333333333 [-]
	 SCS Opposite-Spin Scale   =       1.2000000000000000 [-]
	 SCS Same-Spin Energy      =      -0.1424499180843394 [Eh]
	 SCS Opposite-Spin Energy  =      -1.7498389426387706 [Eh]
	 SCS Correlation Energy    =      -1.8922888607231101 [Eh]
	 SCS Total Energy          =    -748.7832443262936977 [Eh]
	-----------------------------------------------------------

  Dipole Moment: [D]
     X:    -0.0433      Y:     2.9028      Z:    -2.2809     Total:     3.6920

*** Psi4 exiting successfully. Buy a developer a beer!
