                               Psi4 1.4a3.dev225

  ==> Input File <==

--------------------------------------------------------------------------
#psi4
#
memory 32 gb

molecule  {
0 1
  S       -0.2613620    -0.5930190    -0.1424790
  O       -0.2870700    -1.2499240     1.2262220
  C        2.3977240     0.0716980     0.1844310
  C        1.0261530     0.6905850    -0.0782140
  C       -1.6743200     0.5466190    -0.2136450
  C        2.8653030    -0.7972080    -0.9817560
  C        3.4104270     1.1761770     0.4821660
  C       -2.9771600    -0.2389800    -0.1306750
  C       -4.1937400     0.6821530    -0.1120660
  H        2.2947170    -0.5588030     1.0765090
  H        0.7552030     1.3745990     0.7353710
  H        1.0111040     1.2381230    -1.0301620
  H       -1.5863530     1.2355690     0.6350930
  H       -1.6018540     1.1165020    -1.1483330
  H        2.9531350    -0.1978260    -1.8953020
  H        3.8477320    -1.2283710    -0.7670690
  H        2.1762820    -1.6227130    -1.1817050
  H        3.5229730     1.8417250    -0.3809710
  H        4.3924350     0.7485930     0.7071400
  H        3.0997810     1.7802300     1.3402560
  H       -3.0432920    -0.9285740    -0.9804800
  H       -2.9504610    -0.8515990     0.7760110
  H       -4.1568707     1.3883702     0.7872680
  H       -4.2413300     1.2926870    -1.0190020
  H       -5.1195520     0.1037900    -0.0468840
units angstrom
no_reorient  #important for SAPT in psi4, default
symmetry c1  #important for SAPT in psi4, default
}

set PROPERTIES_ORIGIN ["COM"]
properties('MP2/aug-cc-pvtz', properties = ['dipole'])
--------------------------------------------------------------------------

    Molecular point group: c1
  Charge       = 0
  Multiplicity = 1
  Basis Set: AUG-CC-PVTZ
    Blend: AUG-CC-PVTZ
  Basis Set: (AUG-CC-PVTZ AUX)
    Blend: AUG-CC-PVTZ-JKFIT

    Orbital Energies [Eh]
    ---------------------

    Doubly Occupied:

       1A    -92.057646     2A    -20.497516     3A    -11.261825
       4A    -11.259881     5A    -11.237777     6A    -11.234125
       7A    -11.229902     8A    -11.221076     9A    -11.217830
      10A     -9.045106    11A     -6.726705    12A     -6.726517
      13A     -6.725232    14A     -1.317171    15A     -1.109659
      16A     -1.084760    17A     -1.006894    18A     -0.940487
      19A     -0.937239    20A     -0.844039    21A     -0.799610
      22A     -0.772969    23A     -0.664351    24A     -0.648781
      25A     -0.629647    26A     -0.611187    27A     -0.593300
      28A     -0.586247    29A     -0.566088    30A     -0.551582
      31A     -0.545173    32A     -0.533179    33A     -0.514415
      34A     -0.505965    35A     -0.497947    36A     -0.484821
      37A     -0.480069    38A     -0.475585    39A     -0.472493
      40A     -0.403587    41A     -0.359411

  @DF-RHF Final Energy:  -746.88963629213185

   => Energetics <=

    Nuclear Repulsion Energy =            575.0778992190008694
    One-Electron Energy =               -2165.1794857865520498
    Two-Electron Energy =                 843.2119502754194400
    Total Energy =                       -746.8896362921318541
  Basis Set: (AUG-CC-PVTZ AUX)
    Blend: AUG-CC-PVTZ-RI
    Molecular point group: c1

    Geometry (in Angstrom), charge = 0, multiplicity = 1:

       Center              X                  Y                   Z               Mass
    ------------   -----------------  -----------------  -----------------  -----------------
         S           -0.252373956877    -0.548486180144    -0.159021938660    31.972071174400
         O           -0.278081956877    -1.205391180144     1.209679061340    15.994914619570
         C            2.406712043123     0.116230819856     0.167888061340    12.000000000000
         C            1.035141043123     0.735117819856    -0.094756938660    12.000000000000
         C           -1.665331956877     0.591151819856    -0.230187938660    12.000000000000
         C            2.874291043123    -0.752675180144    -0.998298938660    12.000000000000
         C            3.419415043123     1.220709819856     0.465623061340    12.000000000000
         C           -2.968171956877    -0.194447180144    -0.147217938660    12.000000000000
         C           -4.184751956877     0.726685819856    -0.128608938660    12.000000000000
         H            2.303705043123    -0.514270180144     1.059966061340     1.007825032230
         H            0.764191043123     1.419131819856     0.718828061340     1.007825032230
         H            1.020092043123     1.282655819856    -1.046704938660     1.007825032230
         H           -1.577364956877     1.280101819856     0.618550061340     1.007825032230
         H           -1.592865956877     1.161034819856    -1.164875938660     1.007825032230
         H            2.962123043123    -0.153293180144    -1.911844938660     1.007825032230
         H            3.856720043123    -1.183838180144    -0.783611938660     1.007825032230
         H            2.185270043123    -1.578180180144    -1.198247938660     1.007825032230
         H            3.531961043123     1.886257819856    -0.397513938660     1.007825032230
         H            4.401423043123     0.793125819856     0.690597061340     1.007825032230
         H            3.108769043123     1.824762819856     1.323713061340     1.007825032230
         H           -3.034303956877    -0.884041180144    -0.997022938660     1.007825032230
         H           -2.941472956877    -0.807066180144     0.759468061340     1.007825032230
         H           -4.147882656877     1.432903019856     0.770725061340     1.007825032230
         H           -4.232341956877     1.337219819856    -1.035544938660     1.007825032230
         H           -5.110563956877     0.148322819856    -0.063426938660     1.007825032230

  Basis Set: AUG-CC-PVTZ
    Blend: AUG-CC-PVTZ
  Basis Set: (AUG-CC-PVTZ AUX)
    Blend: AUG-CC-PVTZ-JKFIT
	 Reference Energy          =    -746.8896362921318541 [Eh]
	 Singles Energy            =      -0.0000000000000000 [Eh]
	 Same-Spin Energy          =      -0.4272373102432593 [Eh]
	 Opposite-Spin Energy      =      -1.4585386792015047 [Eh]
	 Correlation Energy        =      -1.8857759894447641 [Eh]
	 Total Energy              =    -748.7754122815765641 [Eh]

	 ================> DF-SCS-MP2 Energies <==================
	-----------------------------------------------------------
	 SCS Same-Spin Scale       =       0.3333333333333333 [-]
	 SCS Opposite-Spin Scale   =       1.2000000000000000 [-]
	 SCS Same-Spin Energy      =      -0.1424124367477531 [Eh]
	 SCS Opposite-Spin Energy  =      -1.7502464150418056 [Eh]
	 SCS Correlation Energy    =      -1.8926588517895586 [Eh]
	 SCS Total Energy          =    -748.7822951439213739 [Eh]
	-----------------------------------------------------------

  Dipole Moment: [D]
     X:    -0.0461      Y:     2.8640      Z:    -2.3003     Total:     3.6737

*** Psi4 exiting successfully. Buy a developer a beer!
