                               Psi4 1.4a3.dev225

  ==> Input File <==

--------------------------------------------------------------------------
#psi4
#
memory 32 gb

molecule  {
0 1
  S       -0.2613620    -0.5930190    -0.1424790
  O       -0.2870700    -1.2499240     1.2262220
  C        2.3977240     0.0716980     0.1844310
  C        0.9724170     0.5415884    -0.1000219
  C       -1.6743200     0.5466190    -0.2136450
  C        2.8653030    -0.7972080    -0.9817560
  C        3.4104270     1.1761770     0.4821660
  C       -2.9771600    -0.2389800    -0.1306750
  C       -4.1937400     0.6821530    -0.1120660
  H        2.2947170    -0.5588030     1.0765090
  H        0.7552030     1.3745990     0.7353710
  H        1.0111040     1.2381230    -1.0301620
  H       -1.5863530     1.2355690     0.6350930
  H       -1.6018540     1.1165020    -1.1483330
  H        2.9531350    -0.1978260    -1.8953020
  H        3.8477320    -1.2283710    -0.7670690
  H        2.1762820    -1.6227130    -1.1817050
  H        3.5229730     1.8417250    -0.3809710
  H        4.3924350     0.7485930     0.7071400
  H        3.0997810     1.7802300     1.3402560
  H       -3.0432920    -0.9285740    -0.9804800
  H       -2.9504610    -0.8515990     0.7760110
  H       -4.1584820     1.3575060     0.7479640
  H       -4.2413300     1.2926870    -1.0190020
  H       -5.1195520     0.1037900    -0.0468840
units angstrom
no_reorient  #important for SAPT in psi4, default
symmetry c1  #important for SAPT in psi4, default
}

set PROPERTIES_ORIGIN ["COM"]
properties('MP2/aug-cc-pvtz', properties = ['dipole'])
--------------------------------------------------------------------------

    Molecular point group: c1
  Charge       = 0
  Multiplicity = 1
  Basis Set: AUG-CC-PVTZ
    Blend: AUG-CC-PVTZ
  Basis Set: (AUG-CC-PVTZ AUX)
    Blend: AUG-CC-PVTZ-JKFIT

    Orbital Energies [Eh]
    ---------------------

    Doubly Occupied:

       1A    -92.057699     2A    -20.496141     3A    -11.266606
       4A    -11.263449     5A    -11.240518     6A    -11.234571
       7A    -11.224658     8A    -11.224625     9A    -11.216640
      10A     -9.047108    11A     -6.729209    12A     -6.728576
      13A     -6.727276    14A     -1.321679    15A     -1.116088
      16A     -1.086269    17A     -1.021208    18A     -0.945711
      19A     -0.936176    20A     -0.847841    21A     -0.805775
      22A     -0.762070    23A     -0.663521    24A     -0.655148
      25A     -0.631732    26A     -0.612264    27A     -0.593602
      28A     -0.586286    29A     -0.566317    30A     -0.553725
      31A     -0.545130    32A     -0.535194    33A     -0.516795
      34A     -0.500545    35A     -0.499484    36A     -0.487958
      37A     -0.482517    38A     -0.466247    39A     -0.460505
      40A     -0.415520    41A     -0.359108

  @DF-RHF Final Energy:  -746.86816719253272

   => Energetics <=

    Nuclear Repulsion Energy =            577.9181679018248587
    One-Electron Energy =               -2170.7096942254156602
    Two-Electron Energy =                 845.9233591310581915
    Total Energy =                       -746.8681671925327237
  Basis Set: (AUG-CC-PVTZ AUX)
    Blend: AUG-CC-PVTZ-RI
    Molecular point group: c1

    Geometry (in Angstrom), charge = 0, multiplicity = 1:

       Center              X                  Y                   Z               Mass
    ------------   -----------------  -----------------  -----------------  -----------------
         S           -0.248008730564    -0.536202852045    -0.156987352214    31.972071174400
         O           -0.273716730564    -1.193107852045     1.211713647786    15.994914619570
         C            2.411077269436     0.128514147955     0.169922647786    12.000000000000
         C            0.985770269436     0.598404547955    -0.114530252214    12.000000000000
         C           -1.660966730564     0.603435147955    -0.228153352214    12.000000000000
         C            2.878656269436    -0.740391852045    -0.996264352214    12.000000000000
         C            3.423780269436     1.232993147955     0.467657647786    12.000000000000
         C           -2.963806730564    -0.182163852045    -0.145183352214    12.000000000000
         C           -4.180386730564     0.738969147955    -0.126574352214    12.000000000000
         H            2.308070269436    -0.501986852045     1.062000647786     1.007825032230
         H            0.768556269436     1.431415147955     0.720862647786     1.007825032230
         H            1.024457269436     1.294939147955    -1.044670352214     1.007825032230
         H           -1.572999730564     1.292385147955     0.620584647786     1.007825032230
         H           -1.588500730564     1.173318147955    -1.162841352214     1.007825032230
         H            2.966488269436    -0.141009852045    -1.909810352214     1.007825032230
         H            3.861085269436    -1.171554852045    -0.781577352214     1.007825032230
         H            2.189635269436    -1.565896852045    -1.196213352214     1.007825032230
         H            3.536326269436     1.898541147955    -0.395479352214     1.007825032230
         H            4.405788269436     0.805409147955     0.692631647786     1.007825032230
         H            3.113134269436     1.837046147955     1.325747647786     1.007825032230
         H           -3.029938730564    -0.871757852045    -0.994988352214     1.007825032230
         H           -2.937107730564    -0.794782852045     0.761502647786     1.007825032230
         H           -4.145128730564     1.414322147955     0.733455647786     1.007825032230
         H           -4.227976730564     1.349503147955    -1.033510352214     1.007825032230
         H           -5.106198730564     0.160606147955    -0.061392352214     1.007825032230

  Basis Set: AUG-CC-PVTZ
    Blend: AUG-CC-PVTZ
  Basis Set: (AUG-CC-PVTZ AUX)
    Blend: AUG-CC-PVTZ-JKFIT
	 Reference Energy          =    -746.8681671925327237 [Eh]
	 Singles Energy            =      -0.0000000000000000 [Eh]
	 Same-Spin Energy          =      -0.4286380103573856 [Eh]
	 Opposite-Spin Energy      =      -1.4594651453191734 [Eh]
	 Correlation Energy        =      -1.8881031556765588 [Eh]
	 Total Energy              =    -748.7562703482092274 [Eh]

	 ================> DF-SCS-MP2 Energies <==================
	-----------------------------------------------------------
	 SCS Same-Spin Scale       =       0.3333333333333333 [-]
	 SCS Opposite-Spin Scale   =       1.2000000000000000 [-]
	 SCS Same-Spin Energy      =      -0.1428793367857952 [Eh]
	 SCS Opposite-Spin Energy  =      -1.7513581743830080 [Eh]
	 SCS Correlation Energy    =      -1.8942375111688032 [Eh]
	 SCS Total Energy          =    -748.7624047037015771 [Eh]
	-----------------------------------------------------------

  Dipole Moment: [D]
     X:     0.0410      Y:     2.9889      Z:    -2.3022     Total:     3.7729

*** Psi4 exiting successfully. Buy a developer a beer!
