                               Psi4 1.4a3.dev225

  ==> Input File <==

--------------------------------------------------------------------------
#psi4
#
memory 32 gb

molecule  {
0 1
  S       -0.2613620    -0.5930190    -0.1424790
  O       -0.2870700    -1.2499240     1.2262220
  C        2.3977240     0.0716980     0.1844310
  C        1.0261530     0.6905850    -0.0782140
  C       -1.6743200     0.5466190    -0.2136450
  C        2.8653030    -0.7972080    -0.9817560
  C        3.4104270     1.1761770     0.4821660
  C       -2.9771600    -0.2389800    -0.1306750
  C       -4.1937400     0.6821530    -0.1120660
  H        2.2947170    -0.5588030     1.0765090
  H        0.7552030     1.3745990     0.7353710
  H        1.0111040     1.2381230    -1.0301620
  H       -1.5863530     1.2355690     0.6350930
  H       -1.6018540     1.1165020    -1.1483330
  H        2.9531350    -0.1978260    -1.8953020
  H        3.8477320    -1.2283710    -0.7670690
  H        2.1762820    -1.6227130    -1.1817050
  H        3.5229730     1.8417250    -0.3809710
  H        4.3924350     0.7485930     0.7071400
  H        3.0997810     1.7802300     1.3402560
  H       -3.0432920    -0.9285740    -0.9804800
  H       -2.9504610    -0.8515990     0.7760110
  H       -4.1584820     1.3575060     0.7479640
  H       -4.2421998     1.3038452    -1.0355772
  H       -5.1195520     0.1037900    -0.0468840
units angstrom
no_reorient  #important for SAPT in psi4, default
symmetry c1  #important for SAPT in psi4, default
}

set PROPERTIES_ORIGIN ["COM"]
properties('MP2/aug-cc-pvtz', properties = ['dipole'])
--------------------------------------------------------------------------

    Molecular point group: c1
  Charge       = 0
  Multiplicity = 1
  Basis Set: AUG-CC-PVTZ
    Blend: AUG-CC-PVTZ
  Basis Set: (AUG-CC-PVTZ AUX)
    Blend: AUG-CC-PVTZ-JKFIT

    Orbital Energies [Eh]
    ---------------------

    Doubly Occupied:

       1A    -92.057622     2A    -20.497496     3A    -11.261778
       4A    -11.259856     5A    -11.237761     6A    -11.233733
       7A    -11.226261     8A    -11.221069     9A    -11.217811
      10A     -9.045081    11A     -6.726679    12A     -6.726491
      13A     -6.725205    14A     -1.317153    15A     -1.109650
      16A     -1.084929    17A     -1.007332    18A     -0.941321
      19A     -0.937230    20A     -0.844965    21A     -0.799965
      22A     -0.772957    23A     -0.664335    24A     -0.649322
      25A     -0.629702    26A     -0.610923    27A     -0.592711
      28A     -0.588052    29A     -0.564874    30A     -0.554319
      31A     -0.545153    32A     -0.533166    33A     -0.514142
      34A     -0.506203    35A     -0.499248    36A     -0.485356
      37A     -0.480020    38A     -0.475717    39A     -0.472530
      40A     -0.403520    41A     -0.359396

  @DF-RHF Final Energy:  -746.89117555402515

   => Energetics <=

    Nuclear Repulsion Energy =            575.1910986875986964
    One-Electron Energy =               -2165.4024878500135856
    Two-Electron Energy =                 843.3202136083897358
    Total Energy =                       -746.8911755540251534
  Basis Set: (AUG-CC-PVTZ AUX)
    Blend: AUG-CC-PVTZ-RI
    Molecular point group: c1

    Geometry (in Angstrom), charge = 0, multiplicity = 1:

       Center              X                  Y                   Z               Mass
    ------------   -----------------  -----------------  -----------------  -----------------
         S           -0.252357072025    -0.548352073135    -0.158641658931    31.972071174400
         O           -0.278065072025    -1.205257073135     1.210059341069    15.994914619570
         C            2.406728927975     0.116364926865     0.168268341069    12.000000000000
         C            1.035157927975     0.735251926865    -0.094376658931    12.000000000000
         C           -1.665315072025     0.591285926865    -0.229807658931    12.000000000000
         C            2.874307927975    -0.752541073135    -0.997918658931    12.000000000000
         C            3.419431927975     1.220843926865     0.466003341069    12.000000000000
         C           -2.968155072025    -0.194313073135    -0.146837658931    12.000000000000
         C           -4.184735072025     0.726819926865    -0.128228658931    12.000000000000
         H            2.303721927975    -0.514136073135     1.060346341069     1.007825032230
         H            0.764207927975     1.419265926865     0.719208341069     1.007825032230
         H            1.020108927975     1.282789926865    -1.046324658931     1.007825032230
         H           -1.577348072025     1.280235926865     0.618930341069     1.007825032230
         H           -1.592849072025     1.161168926865    -1.164495658931     1.007825032230
         H            2.962139927975    -0.153159073135    -1.911464658931     1.007825032230
         H            3.856736927975    -1.183704073135    -0.783231658931     1.007825032230
         H            2.185286927975    -1.578046073135    -1.197867658931     1.007825032230
         H            3.531977927975     1.886391926865    -0.397133658931     1.007825032230
         H            4.401439927975     0.793259926865     0.690977341069     1.007825032230
         H            3.108785927975     1.824896926865     1.324093341069     1.007825032230
         H           -3.034287072025    -0.883907073135    -0.996642658931     1.007825032230
         H           -2.941456072025    -0.806932073135     0.759848341069     1.007825032230
         H           -4.149477072025     1.402172926865     0.731801341069     1.007825032230
         H           -4.233194872025     1.348512126865    -1.051739858931     1.007825032230
         H           -5.110547072025     0.148456926865    -0.063046658931     1.007825032230

  Basis Set: AUG-CC-PVTZ
    Blend: AUG-CC-PVTZ
  Basis Set: (AUG-CC-PVTZ AUX)
    Blend: AUG-CC-PVTZ-JKFIT
	 Reference Energy          =    -746.8911755540251534 [Eh]
	 Singles Energy            =      -0.0000000000000000 [Eh]
	 Same-Spin Energy          =      -0.4272487051514059 [Eh]
	 Opposite-Spin Energy      =      -1.4583507001269675 [Eh]
	 Correlation Energy        =      -1.8855994052783736 [Eh]
	 Total Energy              =    -748.7767749593035660 [Eh]

	 ================> DF-SCS-MP2 Energies <==================
	-----------------------------------------------------------
	 SCS Same-Spin Scale       =       0.3333333333333333 [-]
	 SCS Opposite-Spin Scale   =       1.2000000000000000 [-]
	 SCS Same-Spin Energy      =      -0.1424162350504686 [Eh]
	 SCS Opposite-Spin Energy  =      -1.7500208401523609 [Eh]
	 SCS Correlation Energy    =      -1.8924370752028294 [Eh]
	 SCS Total Energy          =    -748.7836126292279459 [Eh]
	-----------------------------------------------------------

  Dipole Moment: [D]
     X:    -0.0488      Y:     2.8780      Z:    -2.2680     Total:     3.6646

*** Psi4 exiting successfully. Buy a developer a beer!
