                               Psi4 1.4a3.dev225

  ==> Input File <==

--------------------------------------------------------------------------
#psi4
#
memory 32 gb

molecule  {
0 1
  S       -0.2613620    -0.5930190    -0.1424790
  O       -0.2870700    -1.2499240     1.2262220
  C        2.3977240     0.0716980     0.1844310
  C        1.0261530     0.6905850    -0.0782140
  C       -1.7324165     0.6356927    -0.2143603
  C        2.8653030    -0.7972080    -0.9817560
  C        3.4104270     1.1761770     0.4821660
  C       -2.9771600    -0.2389800    -0.1306750
  C       -4.1937400     0.6821530    -0.1120660
  H        2.2947170    -0.5588030     1.0765090
  H        0.7552030     1.3745990     0.7353710
  H        1.0111040     1.2381230    -1.0301620
  H       -1.5863530     1.2355690     0.6350930
  H       -1.6018540     1.1165020    -1.1483330
  H        2.9531350    -0.1978260    -1.8953020
  H        3.8477320    -1.2283710    -0.7670690
  H        2.1762820    -1.6227130    -1.1817050
  H        3.5229730     1.8417250    -0.3809710
  H        4.3924350     0.7485930     0.7071400
  H        3.0997810     1.7802300     1.3402560
  H       -3.0432920    -0.9285740    -0.9804800
  H       -2.9504610    -0.8515990     0.7760110
  H       -4.1584820     1.3575060     0.7479640
  H       -4.2413300     1.2926870    -1.0190020
  H       -5.1195520     0.1037900    -0.0468840
units angstrom
no_reorient  #important for SAPT in psi4, default
symmetry c1  #important for SAPT in psi4, default
}

set PROPERTIES_ORIGIN ["COM"]
properties('MP2/aug-cc-pvtz', properties = ['dipole'])
--------------------------------------------------------------------------

    Molecular point group: c1
  Charge       = 0
  Multiplicity = 1
  Basis Set: AUG-CC-PVTZ
    Blend: AUG-CC-PVTZ
  Basis Set: (AUG-CC-PVTZ AUX)
    Blend: AUG-CC-PVTZ-JKFIT

    Orbital Energies [Eh]
    ---------------------

    Doubly Occupied:

       1A    -92.054846     2A    -20.497631     3A    -11.261320
       4A    -11.258485     5A    -11.236582     6A    -11.234034
       7A    -11.222511     8A    -11.220228     9A    -11.217079
      10A     -9.041755    11A     -6.723214    12A     -6.722967
      13A     -6.721791    14A     -1.314233    15A     -1.107439
      16A     -1.084573    17A     -1.002042    18A     -0.940208
      19A     -0.936453    20A     -0.840510    21A     -0.808791
      22A     -0.770996    23A     -0.671749    24A     -0.649513
      25A     -0.624621    26A     -0.609004    27A     -0.594310
      28A     -0.588295    29A     -0.569581    30A     -0.555396
      31A     -0.544439    32A     -0.532160    33A     -0.510133
      34A     -0.506672    35A     -0.504490    36A     -0.492102
      37A     -0.479189    38A     -0.474556    39A     -0.471093
      40A     -0.393068    41A     -0.354289

  @DF-RHF Final Energy:  -746.88346841555779

   => Energetics <=

    Nuclear Repulsion Energy =            573.5542503280565825
    One-Electron Energy =               -2162.1907479080155099
    Two-Electron Energy =                 841.7530291644010276
    Total Energy =                       -746.8834684155577861
  Basis Set: (AUG-CC-PVTZ AUX)
    Blend: AUG-CC-PVTZ-RI
    Molecular point group: c1

    Geometry (in Angstrom), charge = 0, multiplicity = 1:

       Center              X                  Y                   Z               Mass
    ------------   -----------------  -----------------  -----------------  -----------------
         S           -0.247655396595    -0.555493833367    -0.158696498431    31.972071174400
         O           -0.273363396595    -1.212398833367     1.210004501569    15.994914619570
         C            2.411430603405     0.109223166633     0.168213501569    12.000000000000
         C            1.039859603405     0.728110166633    -0.094431498431    12.000000000000
         C           -1.718709896595     0.673217866633    -0.230577798431    12.000000000000
         C            2.879009603405    -0.759682833367    -0.997973498431    12.000000000000
         C            3.424133603405     1.213702166633     0.465948501569    12.000000000000
         C           -2.963453396595    -0.201454833367    -0.146892498431    12.000000000000
         C           -4.180033396595     0.719678166633    -0.128283498431    12.000000000000
         H            2.308423603405    -0.521277833367     1.060291501569     1.007825032230
         H            0.768909603405     1.412124166633     0.719153501569     1.007825032230
         H            1.024810603405     1.275648166633    -1.046379498431     1.007825032230
         H           -1.572646396595     1.273094166633     0.618875501569     1.007825032230
         H           -1.588147396595     1.154027166633    -1.164550498431     1.007825032230
         H            2.966841603405    -0.160300833367    -1.911519498431     1.007825032230
         H            3.861438603405    -1.190845833367    -0.783286498431     1.007825032230
         H            2.189988603405    -1.585187833367    -1.197922498431     1.007825032230
         H            3.536679603405     1.879250166633    -0.397188498431     1.007825032230
         H            4.406141603405     0.786118166633     0.690922501569     1.007825032230
         H            3.113487603405     1.817755166633     1.324038501569     1.007825032230
         H           -3.029585396595    -0.891048833367    -0.996697498431     1.007825032230
         H           -2.936754396595    -0.814073833367     0.759793501569     1.007825032230
         H           -4.144775396595     1.395031166633     0.731746501569     1.007825032230
         H           -4.227623396595     1.330212166633    -1.035219498431     1.007825032230
         H           -5.105845396595     0.141315166633    -0.063101498431     1.007825032230

  Basis Set: AUG-CC-PVTZ
    Blend: AUG-CC-PVTZ
  Basis Set: (AUG-CC-PVTZ AUX)
    Blend: AUG-CC-PVTZ-JKFIT
	 Reference Energy          =    -746.8834684155577861 [Eh]
	 Singles Energy            =      -0.0000000000000000 [Eh]
	 Same-Spin Energy          =      -0.4274958466377023 [Eh]
	 Opposite-Spin Energy      =      -1.4594585599316603 [Eh]
	 Correlation Energy        =      -1.8869544065693626 [Eh]
	 Total Energy              =    -748.7704228221271023 [Eh]

	 ================> DF-SCS-MP2 Energies <==================
	-----------------------------------------------------------
	 SCS Same-Spin Scale       =       0.3333333333333333 [-]
	 SCS Opposite-Spin Scale   =       1.2000000000000000 [-]
	 SCS Same-Spin Energy      =      -0.1424986155459008 [Eh]
	 SCS Opposite-Spin Energy  =      -1.7513502719179923 [Eh]
	 SCS Correlation Energy    =      -1.8938488874638930 [Eh]
	 SCS Total Energy          =    -748.7773173030217322 [Eh]
	-----------------------------------------------------------

  Dipole Moment: [D]
     X:    -0.0161      Y:     2.8263      Z:    -2.2511     Total:     3.6133

*** Psi4 exiting successfully. Buy a developer a beer!
