                               Psi4 1.4a3.dev225

  ==> Input File <==

--------------------------------------------------------------------------
#psi4
#
memory 32 gb

molecule  {
0 1
  S       -0.2613620    -0.5930190    -0.1424790
  O       -0.2870700    -1.2499240     1.2262220
  C        2.3977240     0.0716980     0.1844310
  C        1.0261530     0.6905850    -0.0782140
  C       -1.6743200     0.5466190    -0.2136450
  C        2.8653030    -0.7972080    -0.9817560
  C        3.3971697     1.1617183     0.4782684
  C       -2.9771600    -0.2389800    -0.1306750
  C       -4.1937400     0.6821530    -0.1120660
  H        2.2947170    -0.5588030     1.0765090
  H        0.7552030     1.3745990     0.7353710
  H        1.0111040     1.2381230    -1.0301620
  H       -1.5863530     1.2355690     0.6350930
  H       -1.6018540     1.1165020    -1.1483330
  H        2.9531350    -0.1978260    -1.8953020
  H        3.8477320    -1.2283710    -0.7670690
  H        2.1762820    -1.6227130    -1.1817050
  H        3.5229730     1.8417250    -0.3809710
  H        4.3924350     0.7485930     0.7071400
  H        3.0997810     1.7802300     1.3402560
  H       -3.0432920    -0.9285740    -0.9804800
  H       -2.9504610    -0.8515990     0.7760110
  H       -4.1584820     1.3575060     0.7479640
  H       -4.2413300     1.2926870    -1.0190020
  H       -5.1195520     0.1037900    -0.0468840
units angstrom
no_reorient  #important for SAPT in psi4, default
symmetry c1  #important for SAPT in psi4, default
}

set PROPERTIES_ORIGIN ["COM"]
properties('MP2/aug-cc-pvtz', properties = ['dipole'])
--------------------------------------------------------------------------

    Molecular point group: c1
  Charge       = 0
  Multiplicity = 1
  Basis Set: AUG-CC-PVTZ
    Blend: AUG-CC-PVTZ
  Basis Set: (AUG-CC-PVTZ AUX)
    Blend: AUG-CC-PVTZ-JKFIT

    Orbital Energies [Eh]
    ---------------------

    Doubly Occupied:

       1A    -92.057646     2A    -20.497511     3A    -11.261779
       4A    -11.259920     5A    -11.236899     6A    -11.233504
       7A    -11.223771     8A    -11.222021     9A    -11.217877
      10A     -9.045103    11A     -6.726701    12A     -6.726513
      13A     -6.725228    14A     -1.317169    15A     -1.111477
      16A     -1.085588    17A     -1.008225    18A     -0.942043
      19A     -0.937024    20A     -0.845404    21A     -0.800149
      22A     -0.773384    23A     -0.664736    24A     -0.649984
      25A     -0.630315    26A     -0.611183    27A     -0.593189
      28A     -0.587856    29A     -0.566879    30A     -0.554105
      31A     -0.543813    32A     -0.531390    33A     -0.514354
      34A     -0.506285    35A     -0.499399    36A     -0.486656
      37A     -0.482300    38A     -0.474844    39A     -0.471698
      40A     -0.403628    41A     -0.359480

  @DF-RHF Final Energy:  -746.89103561944864

   => Energetics <=

    Nuclear Repulsion Energy =            575.6269793645865320
    One-Electron Energy =               -2166.2619678334071978
    Two-Electron Energy =                 843.7439528493720218
    Total Energy =                       -746.8910356194486440
  Basis Set: (AUG-CC-PVTZ AUX)
    Blend: AUG-CC-PVTZ-RI
    Molecular point group: c1

    Geometry (in Angstrom), charge = 0, multiplicity = 1:

       Center              X                  Y                   Z               Mass
    ------------   -----------------  -----------------  -----------------  -----------------
         S           -0.251288744264    -0.547104539975    -0.158438634725    31.972071174400
         O           -0.276996744264    -1.204009539975     1.210262365275    15.994914619570
         C            2.407797255736     0.117612460025     0.168471365275    12.000000000000
         C            1.036226255736     0.736499460025    -0.094173634725    12.000000000000
         C           -1.664246744264     0.592533460025    -0.229604634725    12.000000000000
         C            2.875376255736    -0.751293539975    -0.997715634725    12.000000000000
         C            3.407242955736     1.207632760025     0.462308765275    12.000000000000
         C           -2.967086744264    -0.193065539975    -0.146634634725    12.000000000000
         C           -4.183666744264     0.728067460025    -0.128025634725    12.000000000000
         H            2.304790255736    -0.512888539975     1.060549365275     1.007825032230
         H            0.765276255736     1.420513460025     0.719411365275     1.007825032230
         H            1.021177255736     1.284037460025    -1.046121634725     1.007825032230
         H           -1.576279744264     1.281483460025     0.619133365275     1.007825032230
         H           -1.591780744264     1.162416460025    -1.164292634725     1.007825032230
         H            2.963208255736    -0.151911539975    -1.911261634725     1.007825032230
         H            3.857805255736    -1.182456539975    -0.783028634725     1.007825032230
         H            2.186355255736    -1.576798539975    -1.197664634725     1.007825032230
         H            3.533046255736     1.887639460025    -0.396930634725     1.007825032230
         H            4.402508255736     0.794507460025     0.691180365275     1.007825032230
         H            3.109854255736     1.826144460025     1.324296365275     1.007825032230
         H           -3.033218744264    -0.882659539975    -0.996439634725     1.007825032230
         H           -2.940387744264    -0.805684539975     0.760051365275     1.007825032230
         H           -4.148408744264     1.403420460025     0.732004365275     1.007825032230
         H           -4.231256744264     1.338601460025    -1.034961634725     1.007825032230
         H           -5.109478744264     0.149704460025    -0.062843634725     1.007825032230

  Basis Set: AUG-CC-PVTZ
    Blend: AUG-CC-PVTZ
  Basis Set: (AUG-CC-PVTZ AUX)
    Blend: AUG-CC-PVTZ-JKFIT
	 Reference Energy          =    -746.8910356194486440 [Eh]
	 Singles Energy            =      -0.0000000000000000 [Eh]
	 Same-Spin Energy          =      -0.4274162601213218 [Eh]
	 Opposite-Spin Energy      =      -1.4583850805023724 [Eh]
	 Correlation Energy        =      -1.8858013406236942 [Eh]
	 Total Energy              =    -748.7768369600723872 [Eh]

	 ================> DF-SCS-MP2 Energies <==================
	-----------------------------------------------------------
	 SCS Same-Spin Scale       =       0.3333333333333333 [-]
	 SCS Opposite-Spin Scale   =       1.2000000000000000 [-]
	 SCS Same-Spin Energy      =      -0.1424720867071073 [Eh]
	 SCS Opposite-Spin Energy  =      -1.7500620966028468 [Eh]
	 SCS Correlation Energy    =      -1.8925341833099540 [Eh]
	 SCS Total Energy          =    -748.7835698027586204 [Eh]
	-----------------------------------------------------------

  Dipole Moment: [D]
     X:    -0.0556      Y:     2.8853      Z:    -2.2771     Total:     3.6760

*** Psi4 exiting successfully. Buy a developer a beer!
