                               Psi4 1.4a3.dev225

  ==> Input File <==

--------------------------------------------------------------------------
#psi4
#
memory 32 gb

molecule  {
0 1
  S       -0.2613620    -0.5930190    -0.1424790
  O       -0.2870700    -1.2499240     1.2262220
  C        2.3977240     0.0716980     0.1844310
  C        1.0261530     0.6905850    -0.0782140
  C       -1.7637577     0.6786578    -0.2145652
  C        2.8653030    -0.7972080    -0.9817560
  C        3.4104270     1.1761770     0.4821660
  C       -2.9771600    -0.2389800    -0.1306750
  C       -4.1937400     0.6821530    -0.1120660
  H        2.2947170    -0.5588030     1.0765090
  H        0.7552030     1.3745990     0.7353710
  H        1.0111040     1.2381230    -1.0301620
  H       -1.5863530     1.2355690     0.6350930
  H       -1.6018540     1.1165020    -1.1483330
  H        2.9531350    -0.1978260    -1.8953020
  H        3.8477320    -1.2283710    -0.7670690
  H        2.1762820    -1.6227130    -1.1817050
  H        3.5229730     1.8417250    -0.3809710
  H        4.3924350     0.7485930     0.7071400
  H        3.0997810     1.7802300     1.3402560
  H       -3.0432920    -0.9285740    -0.9804800
  H       -2.9504610    -0.8515990     0.7760110
  H       -4.1584820     1.3575060     0.7479640
  H       -4.2413300     1.2926870    -1.0190020
  H       -5.1195520     0.1037900    -0.0468840
units angstrom
no_reorient  #important for SAPT in psi4, default
symmetry c1  #important for SAPT in psi4, default
}

set PROPERTIES_ORIGIN ["COM"]
properties('MP2/aug-cc-pvtz', properties = ['dipole'])
--------------------------------------------------------------------------

    Molecular point group: c1
  Charge       = 0
  Multiplicity = 1
  Basis Set: AUG-CC-PVTZ
    Blend: AUG-CC-PVTZ
  Basis Set: (AUG-CC-PVTZ AUX)
    Blend: AUG-CC-PVTZ-JKFIT

    Orbital Energies [Eh]
    ---------------------

    Doubly Occupied:

       1A    -92.052723     2A    -20.497442     3A    -11.262566
       4A    -11.257731     5A    -11.235889     6A    -11.234915
       7A    -11.222307     8A    -11.219736     9A    -11.216588
      10A     -9.039565    11A     -6.720968    12A     -6.720676
      13A     -6.719548    14A     -1.312775    15A     -1.106420
      16A     -1.085151    17A     -0.999553    18A     -0.939794
      19A     -0.935959    20A     -0.838471    21A     -0.812338
      22A     -0.769942    23A     -0.676915    24A     -0.649353
      25A     -0.622841    26A     -0.607840    27A     -0.596174
      28A     -0.588320    29A     -0.571453    30A     -0.554339
      31A     -0.543941    32A     -0.531618    33A     -0.510060
      34A     -0.507430    35A     -0.504315    36A     -0.494163
      37A     -0.478631    38A     -0.473758    39A     -0.470134
      40A     -0.388203    41A     -0.349732

  @DF-RHF Final Energy:  -746.87406995829258

   => Energetics <=

    Nuclear Repulsion Energy =            572.7225308765871432
    One-Electron Energy =               -2160.5526514703110479
    Two-Electron Energy =                 840.9560506354313247
    Total Energy =                       -746.8740699582925799
  Basis Set: (AUG-CC-PVTZ AUX)
    Blend: AUG-CC-PVTZ-RI
    Molecular point group: c1

    Geometry (in Angstrom), charge = 0, multiplicity = 1:

       Center              X                  Y                   Z               Mass
    ------------   -----------------  -----------------  -----------------  -----------------
         S           -0.245115800081    -0.558975321572    -0.158679895259    31.972071174400
         O           -0.270823800081    -1.215880321572     1.210021104741    15.994914619570
         C            2.413970199919     0.105741678428     0.168230104741    12.000000000000
         C            1.042399199919     0.724628678428    -0.094414895259    12.000000000000
         C           -1.747511500081     0.712701478428    -0.230766095259    12.000000000000
         C            2.881549199919    -0.763164321572    -0.997956895259    12.000000000000
         C            3.426673199919     1.210220678428     0.465965104741    12.000000000000
         C           -2.960913800081    -0.204936321572    -0.146875895259    12.000000000000
         C           -4.177493800081     0.716196678428    -0.128266895259    12.000000000000
         H            2.310963199919    -0.524759321572     1.060308104741     1.007825032230
         H            0.771449199919     1.408642678428     0.719170104741     1.007825032230
         H            1.027350199919     1.272166678428    -1.046362895259     1.007825032230
         H           -1.570106800081     1.269612678428     0.618892104741     1.007825032230
         H           -1.585607800081     1.150545678428    -1.164533895259     1.007825032230
         H            2.969381199919    -0.163782321572    -1.911502895259     1.007825032230
         H            3.863978199919    -1.194327321572    -0.783269895259     1.007825032230
         H            2.192528199919    -1.588669321572    -1.197905895259     1.007825032230
         H            3.539219199919     1.875768678428    -0.397171895259     1.007825032230
         H            4.408681199919     0.782636678428     0.690939104741     1.007825032230
         H            3.116027199919     1.814273678428     1.324055104741     1.007825032230
         H           -3.027045800081    -0.894530321572    -0.996680895259     1.007825032230
         H           -2.934214800081    -0.817555321572     0.759810104741     1.007825032230
         H           -4.142235800081     1.391549678428     0.731763104741     1.007825032230
         H           -4.225083800081     1.326730678428    -1.035202895259     1.007825032230
         H           -5.103305800081     0.137833678428    -0.063084895259     1.007825032230

  Basis Set: AUG-CC-PVTZ
    Blend: AUG-CC-PVTZ
  Basis Set: (AUG-CC-PVTZ AUX)
    Blend: AUG-CC-PVTZ-JKFIT
	 Reference Energy          =    -746.8740699582925799 [Eh]
	 Singles Energy            =      -0.0000000000000000 [Eh]
	 Same-Spin Energy          =      -0.4279009258099791 [Eh]
	 Opposite-Spin Energy      =      -1.4605824761616775 [Eh]
	 Correlation Energy        =      -1.8884834019716565 [Eh]
	 Total Energy              =    -748.7625533602642918 [Eh]

	 ================> DF-SCS-MP2 Energies <==================
	-----------------------------------------------------------
	 SCS Same-Spin Scale       =       0.3333333333333333 [-]
	 SCS Opposite-Spin Scale   =       1.2000000000000000 [-]
	 SCS Same-Spin Energy      =      -0.1426336419366597 [Eh]
	 SCS Opposite-Spin Energy  =      -1.7526989713940129 [Eh]
	 SCS Correlation Energy    =      -1.8953326133306725 [Eh]
	 SCS Total Energy          =    -748.7694025716232318 [Eh]
	-----------------------------------------------------------

  Dipole Moment: [D]
     X:     0.0015      Y:     2.7924      Z:    -2.2371     Total:     3.5780

*** Psi4 exiting successfully. Buy a developer a beer!
