                               Psi4 1.4a3.dev225

  ==> Input File <==

--------------------------------------------------------------------------
#psi4
#
memory 32 gb

molecule  {
0 1
  S       -0.2613620    -0.5930190    -0.1424790
  O       -0.2870700    -1.2499240     1.2262220
  C        2.3977240     0.0716980     0.1844310
  C        1.0261530     0.6905850    -0.0782140
  C       -1.6743200     0.5466190    -0.2136450
  C        2.8653030    -0.7972080    -0.9817560
  C        3.4104270     1.1761770     0.4821660
  C       -2.8061419    -0.1358578    -0.1415661
  C       -4.1937400     0.6821530    -0.1120660
  H        2.2947170    -0.5588030     1.0765090
  H        0.7552030     1.3745990     0.7353710
  H        1.0111040     1.2381230    -1.0301620
  H       -1.5863530     1.2355690     0.6350930
  H       -1.6018540     1.1165020    -1.1483330
  H        2.9531350    -0.1978260    -1.8953020
  H        3.8477320    -1.2283710    -0.7670690
  H        2.1762820    -1.6227130    -1.1817050
  H        3.5229730     1.8417250    -0.3809710
  H        4.3924350     0.7485930     0.7071400
  H        3.0997810     1.7802300     1.3402560
  H       -3.0432920    -0.9285740    -0.9804800
  H       -2.9504610    -0.8515990     0.7760110
  H       -4.1584820     1.3575060     0.7479640
  H       -4.2413300     1.2926870    -1.0190020
  H       -5.1195520     0.1037900    -0.0468840
units angstrom
no_reorient  #important for SAPT in psi4, default
symmetry c1  #important for SAPT in psi4, default
}

set PROPERTIES_ORIGIN ["COM"]
properties('MP2/aug-cc-pvtz', properties = ['dipole'])
--------------------------------------------------------------------------

    Molecular point group: c1
  Charge       = 0
  Multiplicity = 1
  Basis Set: AUG-CC-PVTZ
    Blend: AUG-CC-PVTZ
  Basis Set: (AUG-CC-PVTZ AUX)
    Blend: AUG-CC-PVTZ-JKFIT

    Orbital Energies [Eh]
    ---------------------

    Doubly Occupied:

       1A    -92.059556     2A    -20.499814     3A    -11.261110
       4A    -11.254231     5A    -11.238743     6A    -11.238725
       7A    -11.229010     8A    -11.221778     9A    -11.218619
      10A     -9.047261    11A     -6.728843    12A     -6.728554
      13A     -6.727267    14A     -1.319791    15A     -1.126505
      16A     -1.103794    17A     -1.002113    18A     -0.945826
      19A     -0.938026    20A     -0.851680    21A     -0.789586
      22A     -0.774467    23A     -0.672046    24A     -0.652796
      25A     -0.639274    26A     -0.618153    27A     -0.598737
      28A     -0.591150    29A     -0.568028    30A     -0.555556
      31A     -0.546695    32A     -0.541930    33A     -0.530630
      34A     -0.508912    35A     -0.487602    36A     -0.480608
      37A     -0.474664    38A     -0.462546    39A     -0.447253
      40A     -0.402306    41A     -0.360779

  @DF-RHF Final Energy:  -746.84172463049538

   => Energetics <=

    Nuclear Repulsion Energy =            578.2719575293477874
    One-Electron Energy =               -2171.3374417814547996
    Two-Electron Energy =                 846.2237596216117481
    Total Energy =                       -746.8417246304953778
  Basis Set: (AUG-CC-PVTZ AUX)
    Blend: AUG-CC-PVTZ-RI
    Molecular point group: c1

    Geometry (in Angstrom), charge = 0, multiplicity = 1:

       Center              X                  Y                   Z               Mass
    ------------   -----------------  -----------------  -----------------  -----------------
         S           -0.266220692094    -0.556632191873    -0.157871947163    31.972071174400
         O           -0.291928692094    -1.213537191873     1.210829052837    15.994914619570
         C            2.392865307906     0.108084808127     0.169038052837    12.000000000000
         C            1.021294307906     0.726971808127    -0.093606947163    12.000000000000
         C           -1.679178692094     0.583005808127    -0.229037947163    12.000000000000
         C            2.860444307906    -0.760821191873    -0.997148947163    12.000000000000
         C            3.405568307906     1.212563808127     0.466773052837    12.000000000000
         C           -2.811000592094    -0.099470991873    -0.156959047163    12.000000000000
         C           -4.198598692094     0.718539808127    -0.127458947163    12.000000000000
         H            2.289858307906    -0.522416191873     1.061116052837     1.007825032230
         H            0.750344307906     1.410985808127     0.719978052837     1.007825032230
         H            1.006245307906     1.274509808127    -1.045554947163     1.007825032230
         H           -1.591211692094     1.271955808127     0.619700052837     1.007825032230
         H           -1.606712692094     1.152888808127    -1.163725947163     1.007825032230
         H            2.948276307906    -0.161439191873    -1.910694947163     1.007825032230
         H            3.842873307906    -1.191984191873    -0.782461947163     1.007825032230
         H            2.171423307906    -1.586326191873    -1.197097947163     1.007825032230
         H            3.518114307906     1.878111808127    -0.396363947163     1.007825032230
         H            4.387576307906     0.784979808127     0.691747052837     1.007825032230
         H            3.094922307906     1.816616808127     1.324863052837     1.007825032230
         H           -3.048150692094    -0.892187191873    -0.995872947163     1.007825032230
         H           -2.955319692094    -0.815212191873     0.760618052837     1.007825032230
         H           -4.163340692094     1.393892808127     0.732571052837     1.007825032230
         H           -4.246188692094     1.329073808127    -1.034394947163     1.007825032230
         H           -5.124410692094     0.140176808127    -0.062276947163     1.007825032230

  Basis Set: AUG-CC-PVTZ
    Blend: AUG-CC-PVTZ
  Basis Set: (AUG-CC-PVTZ AUX)
    Blend: AUG-CC-PVTZ-JKFIT
	 Reference Energy          =    -746.8417246304953778 [Eh]
	 Singles Energy            =      -0.0000000000000000 [Eh]
	 Same-Spin Energy          =      -0.4301602529051062 [Eh]
	 Opposite-Spin Energy      =      -1.4624467220636514 [Eh]
	 Correlation Energy        =      -1.8926069749687577 [Eh]
	 Total Energy              =    -748.7343316054641491 [Eh]

	 ================> DF-SCS-MP2 Energies <==================
	-----------------------------------------------------------
	 SCS Same-Spin Scale       =       0.3333333333333333 [-]
	 SCS Opposite-Spin Scale   =       1.2000000000000000 [-]
	 SCS Same-Spin Energy      =      -0.1433867509683687 [Eh]
	 SCS Opposite-Spin Energy  =      -1.7549360664763818 [Eh]
	 SCS Correlation Energy    =      -1.8983228174447506 [Eh]
	 SCS Total Energy          =    -748.7400474479401282 [Eh]
	-----------------------------------------------------------

  Dipole Moment: [D]
     X:     0.0871      Y:     2.8905      Z:    -2.2308     Total:     3.6523

*** Psi4 exiting successfully. Buy a developer a beer!
