                               Psi4 1.4a3.dev225

  ==> Input File <==

--------------------------------------------------------------------------
#psi4
#
memory 32 gb

molecule  {
0 1
  S       -0.2613620    -0.5930190    -0.1424790
  O       -0.2870700    -1.2499240     1.2262220
  C        2.3977240     0.0716980     0.1844310
  C        1.0261530     0.6905850    -0.0782140
  C       -1.6587645     0.5340725    -0.2128615
  C        2.8653030    -0.7972080    -0.9817560
  C        3.4104270     1.1761770     0.4821660
  C       -2.9771600    -0.2389800    -0.1306750
  C       -4.1937400     0.6821530    -0.1120660
  H        2.2947170    -0.5588030     1.0765090
  H        0.7552030     1.3745990     0.7353710
  H        1.0111040     1.2381230    -1.0301620
  H       -1.5863530     1.2355690     0.6350930
  H       -1.6018540     1.1165020    -1.1483330
  H        2.9531350    -0.1978260    -1.8953020
  H        3.8477320    -1.2283710    -0.7670690
  H        2.1762820    -1.6227130    -1.1817050
  H        3.5229730     1.8417250    -0.3809710
  H        4.3924350     0.7485930     0.7071400
  H        3.0997810     1.7802300     1.3402560
  H       -3.0432920    -0.9285740    -0.9804800
  H       -2.9504610    -0.8515990     0.7760110
  H       -4.1584820     1.3575060     0.7479640
  H       -4.2413300     1.2926870    -1.0190020
  H       -5.1195520     0.1037900    -0.0468840
units angstrom
no_reorient  #important for SAPT in psi4, default
symmetry c1  #important for SAPT in psi4, default
}

set PROPERTIES_ORIGIN ["COM"]
properties('MP2/aug-cc-pvtz', properties = ['dipole'])
--------------------------------------------------------------------------

    Molecular point group: c1
  Charge       = 0
  Multiplicity = 1
  Basis Set: AUG-CC-PVTZ
    Blend: AUG-CC-PVTZ
  Basis Set: (AUG-CC-PVTZ AUX)
    Blend: AUG-CC-PVTZ-JKFIT

    Orbital Energies [Eh]
    ---------------------

    Doubly Occupied:

       1A    -92.057924     2A    -20.497459     3A    -11.261838
       4A    -11.259920     5A    -11.237812     6A    -11.233893
       7A    -11.224025     8A    -11.221122     9A    -11.217873
      10A     -9.045555    11A     -6.727200    12A     -6.726982
      13A     -6.725692    14A     -1.317756    15A     -1.110012
      16A     -1.084606    17A     -1.008917    18A     -0.942302
      19A     -0.937289    20A     -0.846357    21A     -0.798832
      22A     -0.773255    23A     -0.663840    24A     -0.649290
      25A     -0.630508    26A     -0.611340    27A     -0.593014
      28A     -0.587575    29A     -0.566289    30A     -0.553963
      31A     -0.545260    32A     -0.533411    33A     -0.514683
      34A     -0.506249    35A     -0.498171    36A     -0.485008
      37A     -0.480086    38A     -0.475306    39A     -0.472521
      40A     -0.405284    41A     -0.360152

  @DF-RHF Final Energy:  -746.89132128416395

   => Energetics <=

    Nuclear Repulsion Energy =            575.5912566057537560
    One-Electron Energy =               -2166.1880146970470378
    Two-Electron Energy =                 843.7054368071294448
    Total Energy =                       -746.8913212841639506
  Basis Set: (AUG-CC-PVTZ AUX)
    Blend: AUG-CC-PVTZ-RI
    Molecular point group: c1

    Geometry (in Angstrom), charge = 0, multiplicity = 1:

       Center              X                  Y                   Z               Mass
    ------------   -----------------  -----------------  -----------------  -----------------
         S           -0.253623462986    -0.547259486705    -0.158817947107    31.972071174400
         O           -0.279331462986    -1.204164486705     1.209883052893    15.994914619570
         C            2.405462537014     0.117457513295     0.168092052893    12.000000000000
         C            1.033891537014     0.736344513295    -0.094552947107    12.000000000000
         C           -1.651025962986     0.579832013295    -0.229200447107    12.000000000000
         C            2.873041537014    -0.751448486705    -0.998094947107    12.000000000000
         C            3.418165537014     1.221936513295     0.465827052893    12.000000000000
         C           -2.969421462986    -0.193220486705    -0.147013947107    12.000000000000
         C           -4.186001462986     0.727912513295    -0.128404947107    12.000000000000
         H            2.302455537014    -0.513043486705     1.060170052893     1.007825032230
         H            0.762941537014     1.420358513295     0.719032052893     1.007825032230
         H            1.018842537014     1.283882513295    -1.046500947107     1.007825032230
         H           -1.578614462986     1.281328513295     0.618754052893     1.007825032230
         H           -1.594115462986     1.162261513295    -1.164671947107     1.007825032230
         H            2.960873537014    -0.152066486705    -1.911640947107     1.007825032230
         H            3.855470537014    -1.182611486705    -0.783407947107     1.007825032230
         H            2.184020537014    -1.576953486705    -1.198043947107     1.007825032230
         H            3.530711537014     1.887484513295    -0.397309947107     1.007825032230
         H            4.400173537014     0.794352513295     0.690801052893     1.007825032230
         H            3.107519537014     1.825989513295     1.323917052893     1.007825032230
         H           -3.035553462986    -0.882814486705    -0.996818947107     1.007825032230
         H           -2.942722462986    -0.805839486705     0.759672052893     1.007825032230
         H           -4.150743462986     1.403265513295     0.731625052893     1.007825032230
         H           -4.233591462986     1.338446513295    -1.035340947107     1.007825032230
         H           -5.111813462986     0.149549513295    -0.063222947107     1.007825032230

  Basis Set: AUG-CC-PVTZ
    Blend: AUG-CC-PVTZ
  Basis Set: (AUG-CC-PVTZ AUX)
    Blend: AUG-CC-PVTZ-JKFIT
	 Reference Energy          =    -746.8913212841639506 [Eh]
	 Singles Energy            =      -0.0000000000000000 [Eh]
	 Same-Spin Energy          =      -0.4272830569056977 [Eh]
	 Opposite-Spin Energy      =      -1.4581686941447078 [Eh]
	 Correlation Energy        =      -1.8854517510504056 [Eh]
	 Total Energy              =    -748.7767730352143190 [Eh]

	 ================> DF-SCS-MP2 Energies <==================
	-----------------------------------------------------------
	 SCS Same-Spin Scale       =       0.3333333333333333 [-]
	 SCS Opposite-Spin Scale   =       1.2000000000000000 [-]
	 SCS Same-Spin Energy      =      -0.1424276856352326 [Eh]
	 SCS Opposite-Spin Energy  =      -1.7498024329736495 [Eh]
	 SCS Correlation Energy    =      -1.8922301186088819 [Eh]
	 SCS Total Energy          =    -748.7835514027727868 [Eh]
	-----------------------------------------------------------

  Dipole Moment: [D]
     X:    -0.0636      Y:     2.8959      Z:    -2.2828     Total:     3.6880

*** Psi4 exiting successfully. Buy a developer a beer!
