                               Psi4 1.4a3.dev225

  ==> Input File <==

--------------------------------------------------------------------------
#psi4
#
memory 32 gb

molecule  {
0 1
  S       -0.2613620    -0.5930190    -0.1424790
  O       -0.2870700    -1.2499240     1.2262220
  C        2.3977240     0.0716980     0.1844310
  C        1.0261530     0.6905850    -0.0782140
  C       -1.6743200     0.5466190    -0.2136450
  C        2.8653030    -0.7972080    -0.9817560
  C        3.4104270     1.1761770     0.4821660
  C       -2.9771600    -0.2389800    -0.1306750
  C       -4.1937400     0.6821530    -0.1120660
  H        2.2947170    -0.5588030     1.0765090
  H        0.7552030     1.3745990     0.7353710
  H        1.0111040     1.2381230    -1.0301620
  H       -1.5863530     1.2355690     0.6350930
  H       -1.6018540     1.1165020    -1.1483330
  H        2.9547376    -0.1868898    -1.9119703
  H        3.8477320    -1.2283710    -0.7670690
  H        2.1762820    -1.6227130    -1.1817050
  H        3.5229730     1.8417250    -0.3809710
  H        4.3924350     0.7485930     0.7071400
  H        3.0997810     1.7802300     1.3402560
  H       -3.0432920    -0.9285740    -0.9804800
  H       -2.9504610    -0.8515990     0.7760110
  H       -4.1584820     1.3575060     0.7479640
  H       -4.2413300     1.2926870    -1.0190020
  H       -5.1195520     0.1037900    -0.0468840
units angstrom
no_reorient  #important for SAPT in psi4, default
symmetry c1  #important for SAPT in psi4, default
}

set PROPERTIES_ORIGIN ["COM"]
properties('MP2/aug-cc-pvtz', properties = ['dipole'])
--------------------------------------------------------------------------

    Molecular point group: c1
  Charge       = 0
  Multiplicity = 1
  Basis Set: AUG-CC-PVTZ
    Blend: AUG-CC-PVTZ
  Basis Set: (AUG-CC-PVTZ AUX)
    Blend: AUG-CC-PVTZ-JKFIT

    Orbital Energies [Eh]
    ---------------------

    Doubly Occupied:

       1A    -92.057622     2A    -20.497501     3A    -11.261764
       4A    -11.259860     5A    -11.238007     6A    -11.233492
       7A    -11.223763     8A    -11.221092     9A    -11.220315
      10A     -9.045081    11A     -6.726679    12A     -6.726491
      13A     -6.725206    14A     -1.317158    15A     -1.109559
      16A     -1.085040    17A     -1.007567    18A     -0.941825
      19A     -0.936147    20A     -0.845576    21A     -0.800177
      22A     -0.772366    23A     -0.664540    24A     -0.649335
      25A     -0.629772    26A     -0.610917    27A     -0.593049
      28A     -0.587661    29A     -0.566342    30A     -0.554134
      31A     -0.543121    32A     -0.533000    33A     -0.514159
      34A     -0.506403    35A     -0.499433    36A     -0.486130
      37A     -0.480178    38A     -0.475595    39A     -0.472151
      40A     -0.403518    41A     -0.359401

  @DF-RHF Final Energy:  -746.89116870917258

   => Energetics <=

    Nuclear Repulsion Energy =            575.1840947715230641
    One-Electron Energy =               -2165.3882761470827063
    Two-Electron Energy =                 843.3130126663869532
    Total Energy =                       -746.8911687091725753
  Basis Set: (AUG-CC-PVTZ AUX)
    Blend: AUG-CC-PVTZ-RI
    Molecular point group: c1

    Geometry (in Angstrom), charge = 0, multiplicity = 1:

       Center              X                  Y                   Z               Mass
    ------------   -----------------  -----------------  -----------------  -----------------
         S           -0.252373897670    -0.548350562339    -0.158641025349    31.972071174400
         O           -0.278081897670    -1.205255562339     1.210059974651    15.994914619570
         C            2.406712102330     0.116366437661     0.168268974651    12.000000000000
         C            1.035141102330     0.735253437661    -0.094376025349    12.000000000000
         C           -1.665331897670     0.591287437661    -0.229807025349    12.000000000000
         C            2.874291102330    -0.752539562339    -0.997918025349    12.000000000000
         C            3.419415102330     1.220845437661     0.466003974651    12.000000000000
         C           -2.968171897670    -0.194311562339    -0.146837025349    12.000000000000
         C           -4.184751897670     0.726821437661    -0.128228025349    12.000000000000
         H            2.303705102330    -0.514134562339     1.060346974651     1.007825032230
         H            0.764191102330     1.419267437661     0.719208974651     1.007825032230
         H            1.020092102330     1.282791437661    -1.046324025349     1.007825032230
         H           -1.577364897670     1.280237437661     0.618930974651     1.007825032230
         H           -1.592865897670     1.161170437661    -1.164495025349     1.007825032230
         H            2.963725702330    -0.142221362339    -1.928132325349     1.007825032230
         H            3.856720102330    -1.183702562339    -0.783231025349     1.007825032230
         H            2.185270102330    -1.578044562339    -1.197867025349     1.007825032230
         H            3.531961102330     1.886393437661    -0.397133025349     1.007825032230
         H            4.401423102330     0.793261437661     0.690977974651     1.007825032230
         H            3.108769102330     1.824898437661     1.324093974651     1.007825032230
         H           -3.034303897670    -0.883905562339    -0.996642025349     1.007825032230
         H           -2.941472897670    -0.806930562339     0.759848974651     1.007825032230
         H           -4.149493897670     1.402174437661     0.731801974651     1.007825032230
         H           -4.232341897670     1.337355437661    -1.035164025349     1.007825032230
         H           -5.110563897670     0.148458437661    -0.063046025349     1.007825032230

  Basis Set: AUG-CC-PVTZ
    Blend: AUG-CC-PVTZ
  Basis Set: (AUG-CC-PVTZ AUX)
    Blend: AUG-CC-PVTZ-JKFIT
	 Reference Energy          =    -746.8911687091725753 [Eh]
	 Singles Energy            =      -0.0000000000000000 [Eh]
	 Same-Spin Energy          =      -0.4272593905085956 [Eh]
	 Opposite-Spin Energy      =      -1.4583586437292231 [Eh]
	 Correlation Energy        =      -1.8856180342378188 [Eh]
	 Total Energy              =    -748.7767867434104119 [Eh]

	 ================> DF-SCS-MP2 Energies <==================
	-----------------------------------------------------------
	 SCS Same-Spin Scale       =       0.3333333333333333 [-]
	 SCS Opposite-Spin Scale   =       1.2000000000000000 [-]
	 SCS Same-Spin Energy      =      -0.1424197968361985 [Eh]
	 SCS Opposite-Spin Energy  =      -1.7500303724750677 [Eh]
	 SCS Correlation Energy    =      -1.8924501693112661 [Eh]
	 SCS Total Energy          =    -748.7836188784838214 [Eh]
	-----------------------------------------------------------

  Dipole Moment: [D]
     X:    -0.0559      Y:     2.8820      Z:    -2.2659     Total:     3.6665

*** Psi4 exiting successfully. Buy a developer a beer!
