                               Psi4 1.4a3.dev225

  ==> Input File <==

--------------------------------------------------------------------------
#psi4
#
memory 32 gb

molecule  {
0 1
  S       -0.2613620    -0.5930190    -0.1424790
  O       -0.2870700    -1.2499240     1.2262220
  C        2.3977240     0.0716980     0.1844310
  C        1.0261530     0.6905850    -0.0782140
  C       -1.6743200     0.5466190    -0.2136450
  C        2.8653030    -0.7972080    -0.9817560
  C        3.4104270     1.1761770     0.4821660
  C       -3.0626691    -0.2905411    -0.1252294
  C       -4.1937400     0.6821530    -0.1120660
  H        2.2947170    -0.5588030     1.0765090
  H        0.7552030     1.3745990     0.7353710
  H        1.0111040     1.2381230    -1.0301620
  H       -1.5863530     1.2355690     0.6350930
  H       -1.6018540     1.1165020    -1.1483330
  H        2.9531350    -0.1978260    -1.8953020
  H        3.8477320    -1.2283710    -0.7670690
  H        2.1762820    -1.6227130    -1.1817050
  H        3.5229730     1.8417250    -0.3809710
  H        4.3924350     0.7485930     0.7071400
  H        3.0997810     1.7802300     1.3402560
  H       -3.0432920    -0.9285740    -0.9804800
  H       -2.9504610    -0.8515990     0.7760110
  H       -4.1584820     1.3575060     0.7479640
  H       -4.2413300     1.2926870    -1.0190020
  H       -5.1195520     0.1037900    -0.0468840
units angstrom
no_reorient  #important for SAPT in psi4, default
symmetry c1  #important for SAPT in psi4, default
}

set PROPERTIES_ORIGIN ["COM"]
properties('MP2/aug-cc-pvtz', properties = ['dipole'])
--------------------------------------------------------------------------

    Molecular point group: c1
  Charge       = 0
  Multiplicity = 1
  Basis Set: AUG-CC-PVTZ
    Blend: AUG-CC-PVTZ
  Basis Set: (AUG-CC-PVTZ AUX)
    Blend: AUG-CC-PVTZ-JKFIT

    Orbital Energies [Eh]
    ---------------------

    Doubly Occupied:

       1A    -92.056378     2A    -20.496282     3A    -11.262798
       4A    -11.258809     5A    -11.236988     6A    -11.234686
       7A    -11.223126     8A    -11.220499     9A    -11.217211
      10A     -9.043725    11A     -6.725330    12A     -6.725166
      13A     -6.723887    14A     -1.315794    15A     -1.107916
      16A     -1.077902    17A     -1.010713    18A     -0.939227
      19A     -0.936621    20A     -0.845078    21A     -0.802776
      22A     -0.771922    23A     -0.663294    24A     -0.649481
      25A     -0.626743    26A     -0.609763    27A     -0.592721
      28A     -0.586495    29A     -0.567980    30A     -0.554707
      31A     -0.544575    32A     -0.533099    33A     -0.522371
      34A     -0.507295    35A     -0.497547    36A     -0.493373
      37A     -0.479388    38A     -0.472759    39A     -0.460925
      40A     -0.400583    41A     -0.358152

  @DF-RHF Final Energy:  -746.88407592743795

   => Energetics <=

    Nuclear Repulsion Energy =            573.9120866940761516
    One-Electron Energy =               -2162.8841579029235618
    Two-Electron Energy =                 842.0879952814094622
    Total Energy =                       -746.8840759274379479
  Basis Set: (AUG-CC-PVTZ AUX)
    Blend: AUG-CC-PVTZ-RI
    Molecular point group: c1

    Geometry (in Angstrom), charge = 0, multiplicity = 1:

       Center              X                  Y                   Z               Mass
    ------------   -----------------  -----------------  -----------------  -----------------
         S           -0.245434136931    -0.544098109918    -0.159195719908    31.972071174400
         O           -0.271142136931    -1.201003109918     1.209505280092    15.994914619570
         C            2.413651863069     0.120618890082     0.167714280092    12.000000000000
         C            1.042080863069     0.739505890082    -0.094930719908    12.000000000000
         C           -1.658392136931     0.595539890082    -0.230361719908    12.000000000000
         C            2.881230863069    -0.748287109918    -0.998472719908    12.000000000000
         C            3.426354863069     1.225097890082     0.465449280092    12.000000000000
         C           -3.046741236931    -0.241620209918    -0.141946119908    12.000000000000
         C           -4.177812136931     0.731073890082    -0.128782719908    12.000000000000
         H            2.310644863069    -0.509882109918     1.059792280092     1.007825032230
         H            0.771130863069     1.423519890082     0.718654280092     1.007825032230
         H            1.027031863069     1.287043890082    -1.046878719908     1.007825032230
         H           -1.570425136931     1.284489890082     0.618376280092     1.007825032230
         H           -1.585926136931     1.165422890082    -1.165049719908     1.007825032230
         H            2.969062863069    -0.148905109918    -1.912018719908     1.007825032230
         H            3.863659863069    -1.179450109918    -0.783785719908     1.007825032230
         H            2.192209863069    -1.573792109918    -1.198421719908     1.007825032230
         H            3.538900863069     1.890645890082    -0.397687719908     1.007825032230
         H            4.408362863069     0.797513890082     0.690423280092     1.007825032230
         H            3.115708863069     1.829150890082     1.323539280092     1.007825032230
         H           -3.027364136931    -0.879653109918    -0.997196719908     1.007825032230
         H           -2.934533136931    -0.802678109918     0.759294280092     1.007825032230
         H           -4.142554136931     1.406426890082     0.731247280092     1.007825032230
         H           -4.225402136931     1.341607890082    -1.035718719908     1.007825032230
         H           -5.103624136931     0.152710890082    -0.063600719908     1.007825032230

  Basis Set: AUG-CC-PVTZ
    Blend: AUG-CC-PVTZ
  Basis Set: (AUG-CC-PVTZ AUX)
    Blend: AUG-CC-PVTZ-JKFIT
	 Reference Energy          =    -746.8840759274379479 [Eh]
	 Singles Energy            =      -0.0000000000000000 [Eh]
	 Same-Spin Energy          =      -0.4271479584698042 [Eh]
	 Opposite-Spin Energy      =      -1.4583935543280551 [Eh]
	 Correlation Energy        =      -1.8855415127978592 [Eh]
	 Total Energy              =    -748.7696174402358338 [Eh]

	 ================> DF-SCS-MP2 Energies <==================
	-----------------------------------------------------------
	 SCS Same-Spin Scale       =       0.3333333333333333 [-]
	 SCS Opposite-Spin Scale   =       1.2000000000000000 [-]
	 SCS Same-Spin Energy      =      -0.1423826528232681 [Eh]
	 SCS Opposite-Spin Energy  =      -1.7500722651936660 [Eh]
	 SCS Correlation Energy    =      -1.8924549180169341 [Eh]
	 SCS Total Energy          =    -748.7765308454548858 [Eh]
	-----------------------------------------------------------

  Dipole Moment: [D]
     X:    -0.1543      Y:     2.8891      Z:    -2.2930     Total:     3.6916

*** Psi4 exiting successfully. Buy a developer a beer!
