                               Psi4 1.4a3.dev225

  ==> Input File <==

--------------------------------------------------------------------------
#psi4
#
memory 32 gb

molecule  {
0 1
  S       -0.2613620    -0.5930190    -0.1424790
  O       -0.2870700    -1.2499240     1.2262220
  C        2.3977240     0.0716980     0.1844310
  C        1.0261530     0.6905850    -0.0782140
  C       -1.6743200     0.5466190    -0.2136450
  C        2.8653030    -0.7972080    -0.9817560
  C        3.4104270     1.1761770     0.4821660
  C       -2.9771600    -0.2389800    -0.1306750
  C       -4.1937400     0.6821530    -0.1120660
  H        2.2900231    -0.5875341     1.1171598
  H        0.7552030     1.3745990     0.7353710
  H        1.0111040     1.2381230    -1.0301620
  H       -1.5863530     1.2355690     0.6350930
  H       -1.6018540     1.1165020    -1.1483330
  H        2.9531350    -0.1978260    -1.8953020
  H        3.8477320    -1.2283710    -0.7670690
  H        2.1762820    -1.6227130    -1.1817050
  H        3.5229730     1.8417250    -0.3809710
  H        4.3924350     0.7485930     0.7071400
  H        3.0997810     1.7802300     1.3402560
  H       -3.0432920    -0.9285740    -0.9804800
  H       -2.9504610    -0.8515990     0.7760110
  H       -4.1584820     1.3575060     0.7479640
  H       -4.2413300     1.2926870    -1.0190020
  H       -5.1195520     0.1037900    -0.0468840
units angstrom
no_reorient  #important for SAPT in psi4, default
symmetry c1  #important for SAPT in psi4, default
}

set PROPERTIES_ORIGIN ["COM"]
properties('MP2/aug-cc-pvtz', properties = ['dipole'])
--------------------------------------------------------------------------

    Molecular point group: c1
  Charge       = 0
  Multiplicity = 1
  Basis Set: AUG-CC-PVTZ
    Blend: AUG-CC-PVTZ
  Basis Set: (AUG-CC-PVTZ AUX)
    Blend: AUG-CC-PVTZ-JKFIT

    Orbital Energies [Eh]
    ---------------------

    Doubly Occupied:

       1A    -92.057618     2A    -20.497358     3A    -11.261769
       4A    -11.260198     5A    -11.243344     6A    -11.233489
       7A    -11.223761     8A    -11.221365     9A    -11.218157
      10A     -9.045070    11A     -6.726669    12A     -6.726479
      13A     -6.725193    14A     -1.317019    15A     -1.108533
      16A     -1.084733    17A     -1.007530    18A     -0.942054
      19A     -0.937444    20A     -0.845291    21A     -0.799806
      22A     -0.767455    23A     -0.664041    24A     -0.648399
      25A     -0.629670    26A     -0.611142    27A     -0.592830
      28A     -0.587617    29A     -0.566461    30A     -0.554256
      31A     -0.545283    32A     -0.533307    33A     -0.514123
      34A     -0.506419    35A     -0.499434    36A     -0.486120
      37A     -0.480269    38A     -0.475385    39A     -0.466271
      40A     -0.403424    41A     -0.359339

  @DF-RHF Final Energy:  -746.88942837055288

   => Energetics <=

    Nuclear Repulsion Energy =            575.0416401018437682
    One-Electron Energy =               -2165.1138772900121694
    Two-Electron Energy =                 843.1828088176155234
    Total Energy =                       -746.8894283705528778
  Basis Set: (AUG-CC-PVTZ AUX)
    Blend: AUG-CC-PVTZ-RI
    Molecular point group: c1

    Geometry (in Angstrom), charge = 0, multiplicity = 1:

       Center              X                  Y                   Z               Mass
    ------------   -----------------  -----------------  -----------------  -----------------
         S           -0.252331047534    -0.548080610906    -0.159031104159    31.972071174400
         O           -0.278039047534    -1.204985610906     1.209669895841    15.994914619570
         C            2.406754952466     0.116636389094     0.167878895841    12.000000000000
         C            1.035183952466     0.735523389094    -0.094766104159    12.000000000000
         C           -1.665289047534     0.591557389094    -0.230197104159    12.000000000000
         C            2.874333952466    -0.752269610906    -0.998308104159    12.000000000000
         C            3.419457952466     1.221115389094     0.465613895841    12.000000000000
         C           -2.968129047534    -0.194041610906    -0.147227104159    12.000000000000
         C           -4.184709047534     0.727091389094    -0.128618104159    12.000000000000
         H            2.299054052466    -0.542595710906     1.100607695841     1.007825032230
         H            0.764233952466     1.419537389094     0.718818895841     1.007825032230
         H            1.020134952466     1.283061389094    -1.046714104159     1.007825032230
         H           -1.577322047534     1.280507389094     0.618540895841     1.007825032230
         H           -1.592823047534     1.161440389094    -1.164885104159     1.007825032230
         H            2.962165952466    -0.152887610906    -1.911854104159     1.007825032230
         H            3.856762952466    -1.183432610906    -0.783621104159     1.007825032230
         H            2.185312952466    -1.577774610906    -1.198257104159     1.007825032230
         H            3.532003952466     1.886663389094    -0.397523104159     1.007825032230
         H            4.401465952466     0.793531389094     0.690587895841     1.007825032230
         H            3.108811952466     1.825168389094     1.323703895841     1.007825032230
         H           -3.034261047534    -0.883635610906    -0.997032104159     1.007825032230
         H           -2.941430047534    -0.806660610906     0.759458895841     1.007825032230
         H           -4.149451047534     1.402444389094     0.731411895841     1.007825032230
         H           -4.232299047534     1.337625389094    -1.035554104159     1.007825032230
         H           -5.110521047534     0.148728389094    -0.063436104159     1.007825032230

  Basis Set: AUG-CC-PVTZ
    Blend: AUG-CC-PVTZ
  Basis Set: (AUG-CC-PVTZ AUX)
    Blend: AUG-CC-PVTZ-JKFIT
	 Reference Energy          =    -746.8894283705528778 [Eh]
	 Singles Energy            =      -0.0000000000000000 [Eh]
	 Same-Spin Energy          =      -0.4273652202322639 [Eh]
	 Opposite-Spin Energy      =      -1.4586802347923409 [Eh]
	 Correlation Energy        =      -1.8860454550246049 [Eh]
	 Total Energy              =    -748.7754738255774782 [Eh]

	 ================> DF-SCS-MP2 Energies <==================
	-----------------------------------------------------------
	 SCS Same-Spin Scale       =       0.3333333333333333 [-]
	 SCS Opposite-Spin Scale   =       1.2000000000000000 [-]
	 SCS Same-Spin Energy      =      -0.1424550734107546 [Eh]
	 SCS Opposite-Spin Energy  =      -1.7504162817508091 [Eh]
	 SCS Correlation Energy    =      -1.8928713551615637 [Eh]
	 SCS Total Energy          =    -748.7822997257144380 [Eh]
	-----------------------------------------------------------

  Dipole Moment: [D]
     X:    -0.0571      Y:     2.8926      Z:    -2.2913     Total:     3.6906

*** Psi4 exiting successfully. Buy a developer a beer!
