                               Psi4 1.4a3.dev225

  ==> Input File <==

--------------------------------------------------------------------------
#psi4
#
memory 32 gb

molecule  {
0 1
  S       -0.2613620    -0.5930190    -0.1424790
  O       -0.4168880    -1.1632561     1.2561520
  C        2.3977240     0.0716980     0.1844310
  C        1.0261530     0.6905850    -0.0782140
  C       -1.6743200     0.5466190    -0.2136450
  C        2.8653030    -0.7972080    -0.9817560
  C        3.4104270     1.1761770     0.4821660
  C       -2.9771600    -0.2389800    -0.1306750
  C       -4.1937400     0.6821530    -0.1120660
  H        2.2947170    -0.5588030     1.0765090
  H        0.7552030     1.3745990     0.7353710
  H        1.0111040     1.2381230    -1.0301620
  H       -1.5863530     1.2355690     0.6350930
  H       -1.6018540     1.1165020    -1.1483330
  H        2.9531350    -0.1978260    -1.8953020
  H        3.8477320    -1.2283710    -0.7670690
  H        2.1762820    -1.6227130    -1.1817050
  H        3.5229730     1.8417250    -0.3809710
  H        4.3924350     0.7485930     0.7071400
  H        3.0997810     1.7802300     1.3402560
  H       -3.0432920    -0.9285740    -0.9804800
  H       -2.9504610    -0.8515990     0.7760110
  H       -4.1584820     1.3575060     0.7479640
  H       -4.2413300     1.2926870    -1.0190020
  H       -5.1195520     0.1037900    -0.0468840
units angstrom
no_reorient  #important for SAPT in psi4, default
symmetry c1  #important for SAPT in psi4, default
}

set PROPERTIES_ORIGIN ["COM"]
properties('MP2/aug-cc-pvtz', properties = ['dipole'])
--------------------------------------------------------------------------

    Molecular point group: c1
  Charge       = 0
  Multiplicity = 1
  Basis Set: AUG-CC-PVTZ
    Blend: AUG-CC-PVTZ
  Basis Set: (AUG-CC-PVTZ AUX)
    Blend: AUG-CC-PVTZ-JKFIT

    Orbital Energies [Eh]
    ---------------------

    Doubly Occupied:

       1A    -92.058346     2A    -20.494025     3A    -11.260683
       4A    -11.258669     5A    -11.240029     6A    -11.230078
       7A    -11.222411     8A    -11.221505     9A    -11.219782
      10A     -9.045872    11A     -6.727420    12A     -6.727257
      13A     -6.725936    14A     -1.316854    15A     -1.110664
      16A     -1.081639    17A     -1.006734    18A     -0.940998
      19A     -0.938976    20A     -0.844915    21A     -0.798596
      22A     -0.775010    23A     -0.663275    24A     -0.648913
      25A     -0.629257    26A     -0.611969    27A     -0.592829
      28A     -0.587371    29A     -0.565862    30A     -0.551880
      31A     -0.546602    32A     -0.533937    33A     -0.513149
      34A     -0.506016    35A     -0.496639    36A     -0.483920
      37A     -0.480350    38A     -0.476010    39A     -0.473967
      40A     -0.400587    41A     -0.361609

  @DF-RHF Final Energy:  -746.89016785042338

   => Energetics <=

    Nuclear Repulsion Energy =            575.7117724914055543
    One-Electron Energy =               -2166.4627962285926515
    Two-Electron Energy =                 843.8608558867637157
    Total Energy =                       -746.8901678504233814
  Basis Set: (AUG-CC-PVTZ AUX)
    Blend: AUG-CC-PVTZ-RI
    Molecular point group: c1

    Geometry (in Angstrom), charge = 0, multiplicity = 1:

       Center              X                  Y                   Z               Mass
    ------------   -----------------  -----------------  -----------------  -----------------
         S           -0.238341807131    -0.557636831378    -0.161987093341    31.972071174400
         O           -0.393867807131    -1.127873931378     1.236643906658    15.994914619570
         C            2.420744192869     0.107080168622     0.164922906659    12.000000000000
         C            1.049173192869     0.725967168622    -0.097722093341    12.000000000000
         C           -1.651299807131     0.582001168622    -0.233153093341    12.000000000000
         C            2.888323192869    -0.761825831378    -1.001264093342    12.000000000000
         C            3.433447192869     1.211559168622     0.462657906659    12.000000000000
         C           -2.954139807131    -0.203597831378    -0.150183093341    12.000000000000
         C           -4.170719807131     0.717535168622    -0.131574093341    12.000000000000
         H            2.317737192869    -0.523420831378     1.057000906658     1.007825032230
         H            0.778223192869     1.409981168622     0.715862906658     1.007825032230
         H            1.034124192869     1.273505168622    -1.049670093341     1.007825032230
         H           -1.563332807131     1.270951168622     0.615584906659     1.007825032230
         H           -1.578833807131     1.151884168622    -1.167841093341     1.007825032230
         H            2.976155192869    -0.162443831378    -1.914810093341     1.007825032230
         H            3.870752192869    -1.192988831378    -0.786577093341     1.007825032230
         H            2.199302192869    -1.587330831378    -1.201213093341     1.007825032230
         H            3.545993192869     1.877107168622    -0.400479093341     1.007825032230
         H            4.415455192869     0.783975168622     0.687631906659     1.007825032230
         H            3.122801192869     1.815612168622     1.320747906658     1.007825032230
         H           -3.020271807131    -0.893191831378    -0.999988093341     1.007825032230
         H           -2.927440807131    -0.816216831378     0.756502906658     1.007825032230
         H           -4.135461807131     1.392888168622     0.728455906659     1.007825032230
         H           -4.218309807131     1.328069168622    -1.038510093341     1.007825032230
         H           -5.096531807131     0.139172168622    -0.066392093341     1.007825032230

  Basis Set: AUG-CC-PVTZ
    Blend: AUG-CC-PVTZ
  Basis Set: (AUG-CC-PVTZ AUX)
    Blend: AUG-CC-PVTZ-JKFIT
	 Reference Energy          =    -746.8901678504233814 [Eh]
	 Singles Energy            =      -0.0000000000000000 [Eh]
	 Same-Spin Energy          =      -0.4273569102617220 [Eh]
	 Opposite-Spin Energy      =      -1.4584188733983121 [Eh]
	 Correlation Energy        =      -1.8857757836600340 [Eh]
	 Total Energy              =    -748.7759436340834327 [Eh]

	 ================> DF-SCS-MP2 Energies <==================
	-----------------------------------------------------------
	 SCS Same-Spin Scale       =       0.3333333333333333 [-]
	 SCS Opposite-Spin Scale   =       1.2000000000000000 [-]
	 SCS Same-Spin Energy      =      -0.1424523034205740 [Eh]
	 SCS Opposite-Spin Energy  =      -1.7501026480779744 [Eh]
	 SCS Correlation Energy    =      -1.8925549514985485 [Eh]
	 SCS Total Energy          =    -748.7827228019219774 [Eh]
	-----------------------------------------------------------

  Dipole Moment: [D]
     X:     0.2957      Y:     2.7223      Z:    -2.3804     Total:     3.6284

*** Psi4 exiting successfully. Buy a developer a beer!
