                               Psi4 1.4a3.dev225

  ==> Input File <==

--------------------------------------------------------------------------
#psi4
#
memory 32 gb

molecule  {
0 1
  S       -0.2613620    -0.5930190    -0.1424790
  O       -0.2870700    -1.2499240     1.2262220
  C        2.3977240     0.0716980     0.1844310
  C        1.0261530     0.6905850    -0.0782140
  C       -1.6743200     0.5466190    -0.2136450
  C        2.9522541    -0.7357884    -0.9877814
  C        3.4104270     1.1761770     0.4821660
  C       -2.9771600    -0.2389800    -0.1306750
  C       -4.1937400     0.6821530    -0.1120660
  H        2.2947170    -0.5588030     1.0765090
  H        0.7552030     1.3745990     0.7353710
  H        1.0111040     1.2381230    -1.0301620
  H       -1.5863530     1.2355690     0.6350930
  H       -1.6018540     1.1165020    -1.1483330
  H        2.9531350    -0.1978260    -1.8953020
  H        3.8477320    -1.2283710    -0.7670690
  H        2.1762820    -1.6227130    -1.1817050
  H        3.5229730     1.8417250    -0.3809710
  H        4.3924350     0.7485930     0.7071400
  H        3.0997810     1.7802300     1.3402560
  H       -3.0432920    -0.9285740    -0.9804800
  H       -2.9504610    -0.8515990     0.7760110
  H       -4.1584820     1.3575060     0.7479640
  H       -4.2413300     1.2926870    -1.0190020
  H       -5.1195520     0.1037900    -0.0468840
units angstrom
no_reorient  #important for SAPT in psi4, default
symmetry c1  #important for SAPT in psi4, default
}

set PROPERTIES_ORIGIN ["COM"]
properties('MP2/aug-cc-pvtz', properties = ['dipole'])
--------------------------------------------------------------------------

    Molecular point group: c1
  Charge       = 0
  Multiplicity = 1
  Basis Set: AUG-CC-PVTZ
    Blend: AUG-CC-PVTZ
  Basis Set: (AUG-CC-PVTZ AUX)
    Blend: AUG-CC-PVTZ-JKFIT

    Orbital Energies [Eh]
    ---------------------

    Doubly Occupied:

       1A    -92.057579     2A    -20.497450     3A    -11.261725
       4A    -11.261273     5A    -11.238377     6A    -11.233458
       7A    -11.223739     8A    -11.219469     9A    -11.219237
      10A     -9.045014    11A     -6.726606    12A     -6.726417
      13A     -6.725128    14A     -1.317068    15A     -1.110124
      16A     -1.085315    17A     -1.008962    18A     -0.943584
      19A     -0.934531    20A     -0.846111    21A     -0.800199
      22A     -0.774885    23A     -0.666134    24A     -0.650935
      25A     -0.628952    26A     -0.612671    27A     -0.592576
      28A     -0.587088    29A     -0.565067    30A     -0.556542
      31A     -0.551891    32A     -0.533353    33A     -0.513875
      34A     -0.506172    35A     -0.499699    36A     -0.486144
      37A     -0.479854    38A     -0.478914    39A     -0.457987
      40A     -0.403422    41A     -0.358741

  @DF-RHF Final Energy:  -746.88049992071876

   => Energetics <=

    Nuclear Repulsion Energy =            574.7378837128206897
    One-Electron Energy =               -2164.4642339515899039
    Two-Electron Energy =                 842.8458503180503385
    Total Energy =                       -746.8804999207187620
  Basis Set: (AUG-CC-PVTZ AUX)
    Blend: AUG-CC-PVTZ-RI
    Molecular point group: c1

    Geometry (in Angstrom), charge = 0, multiplicity = 1:

       Center              X                  Y                   Z               Mass
    ------------   -----------------  -----------------  -----------------  -----------------
         S           -0.259408691913    -0.553253004811    -0.158266217796    31.972071174400
         O           -0.285116691913    -1.210158004811     1.210434782204    15.994914619570
         C            2.399677308087     0.111463995189     0.168643782204    12.000000000000
         C            1.028106308087     0.730350995189    -0.094001217796    12.000000000000
         C           -1.672366691913     0.586384995189    -0.229432217796    12.000000000000
         C            2.954207408087    -0.696022404811    -1.003568617796    12.000000000000
         C            3.412380308087     1.215942995189     0.466378782204    12.000000000000
         C           -2.975206691913    -0.199214004811    -0.146462217796    12.000000000000
         C           -4.191786691913     0.721918995189    -0.127853217796    12.000000000000
         H            2.296670308087    -0.519037004811     1.060721782204     1.007825032230
         H            0.757156308087     1.414364995189     0.719583782204     1.007825032230
         H            1.013057308087     1.277888995189    -1.045949217796     1.007825032230
         H           -1.584399691913     1.275334995189     0.619305782204     1.007825032230
         H           -1.599900691913     1.156267995189    -1.164120217796     1.007825032230
         H            2.955088308087    -0.158060004811    -1.911089217796     1.007825032230
         H            3.849685308087    -1.188605004811    -0.782856217796     1.007825032230
         H            2.178235308087    -1.582947004811    -1.197492217796     1.007825032230
         H            3.524926308087     1.881490995189    -0.396758217796     1.007825032230
         H            4.394388308087     0.788358995189     0.691352782204     1.007825032230
         H            3.101734308087     1.819995995189     1.324468782204     1.007825032230
         H           -3.041338691913    -0.888808004811    -0.996267217796     1.007825032230
         H           -2.948507691913    -0.811833004811     0.760223782204     1.007825032230
         H           -4.156528691913     1.397271995189     0.732176782204     1.007825032230
         H           -4.239376691913     1.332452995189    -1.034789217796     1.007825032230
         H           -5.117598691913     0.143555995189    -0.062671217796     1.007825032230

  Basis Set: AUG-CC-PVTZ
    Blend: AUG-CC-PVTZ
  Basis Set: (AUG-CC-PVTZ AUX)
    Blend: AUG-CC-PVTZ-JKFIT
	 Reference Energy          =    -746.8804999207187620 [Eh]
	 Singles Energy            =      -0.0000000000000000 [Eh]
	 Same-Spin Energy          =      -0.4274515883553860 [Eh]
	 Opposite-Spin Energy      =      -1.4587931888738948 [Eh]
	 Correlation Energy        =      -1.8862447772292807 [Eh]
	 Total Energy              =    -748.7667446979480701 [Eh]

	 ================> DF-SCS-MP2 Energies <==================
	-----------------------------------------------------------
	 SCS Same-Spin Scale       =       0.3333333333333333 [-]
	 SCS Opposite-Spin Scale   =       1.2000000000000000 [-]
	 SCS Same-Spin Energy      =      -0.1424838627851286 [Eh]
	 SCS Opposite-Spin Energy  =      -1.7505518266486737 [Eh]
	 SCS Correlation Energy    =      -1.8930356894338023 [Eh]
	 SCS Total Energy          =    -748.7735356101525213 [Eh]
	-----------------------------------------------------------

  Dipole Moment: [D]
     X:    -0.0480      Y:     2.9033      Z:    -2.2938     Total:     3.7003

*** Psi4 exiting successfully. Buy a developer a beer!
