                               Psi4 1.4a3.dev225

  ==> Input File <==

--------------------------------------------------------------------------
#psi4
#
memory 32 gb

molecule  {
0 1
  S       -0.2613620    -0.5930190    -0.1424790
  O       -0.2870700    -1.2499240     1.2262220
  C        2.3977240     0.0716980     0.1844310
  C        1.0261530     0.6905850    -0.0782140
  C       -1.6476355     0.5006190    -0.2131355
  C        2.8653030    -0.7972080    -0.9817560
  C        3.4104270     1.1761770     0.4821660
  C       -2.9771600    -0.2389800    -0.1306750
  C       -4.1937400     0.6821530    -0.1120660
  H        2.2947170    -0.5588030     1.0765090
  H        0.7552030     1.3745990     0.7353710
  H        1.0111040     1.2381230    -1.0301620
  H       -1.5863530     1.2355690     0.6350930
  H       -1.6018540     1.1165020    -1.1483330
  H        2.9531350    -0.1978260    -1.8953020
  H        3.8477320    -1.2283710    -0.7670690
  H        2.1762820    -1.6227130    -1.1817050
  H        3.5229730     1.8417250    -0.3809710
  H        4.3924350     0.7485930     0.7071400
  H        3.0997810     1.7802300     1.3402560
  H       -3.0432920    -0.9285740    -0.9804800
  H       -2.9504610    -0.8515990     0.7760110
  H       -4.1584820     1.3575060     0.7479640
  H       -4.2413300     1.2926870    -1.0190020
  H       -5.1195520     0.1037900    -0.0468840
units angstrom
no_reorient  #important for SAPT in psi4, default
symmetry c1  #important for SAPT in psi4, default
}

set PROPERTIES_ORIGIN ["COM"]
properties('MP2/aug-cc-pvtz', properties = ['dipole'])
--------------------------------------------------------------------------

    Molecular point group: c1
  Charge       = 0
  Multiplicity = 1
  Basis Set: AUG-CC-PVTZ
    Blend: AUG-CC-PVTZ
  Basis Set: (AUG-CC-PVTZ AUX)
    Blend: AUG-CC-PVTZ-JKFIT

    Orbital Energies [Eh]
    ---------------------

    Doubly Occupied:

       1A    -92.058103     2A    -20.497048     3A    -11.263289
       4A    -11.260415     5A    -11.238192     6A    -11.233849
       7A    -11.224768     8A    -11.221380     9A    -11.218010
      10A     -9.046078    11A     -6.727807    12A     -6.727537
      13A     -6.726230    14A     -1.318552    15A     -1.110888
      16A     -1.086161    17A     -1.010821    18A     -0.943268
      19A     -0.937479    20A     -0.848733    21A     -0.795290
      22A     -0.773749    23A     -0.662723    24A     -0.649733
      25A     -0.632113    26A     -0.612033    27A     -0.593497
      28A     -0.587512    29A     -0.565583    30A     -0.552569
      31A     -0.545412    32A     -0.533932    33A     -0.516693
      34A     -0.505886    35A     -0.496759    36A     -0.482050
      37A     -0.479800    38A     -0.475577    39A     -0.472864
      40A     -0.408195    41A     -0.360248

  @DF-RHF Final Energy:  -746.88913800104876

   => Energetics <=

    Nuclear Repulsion Energy =            576.1604298606177963
    One-Electron Energy =               -2167.2974915095223878
    Two-Electron Energy =                 844.2479236478558278
    Total Energy =                       -746.8891380010487637
  Basis Set: (AUG-CC-PVTZ AUX)
    Blend: AUG-CC-PVTZ-RI
    Molecular point group: c1

    Geometry (in Angstrom), charge = 0, multiplicity = 1:

       Center              X                  Y                   Z               Mass
    ------------   -----------------  -----------------  -----------------  -----------------
         S           -0.254525252630    -0.544548729237    -0.158795744720    31.972071174400
         O           -0.280233252630    -1.201453729237     1.209905255280    15.994914619570
         C            2.404560747370     0.120168270763     0.168114255280    12.000000000000
         C            1.032989747370     0.739055270763    -0.094530744720    12.000000000000
         C           -1.640798752630     0.549089270763    -0.229452244720    12.000000000000
         C            2.872139747370    -0.748737729237    -0.998072744720    12.000000000000
         C            3.417263747370     1.224647270763     0.465849255280    12.000000000000
         C           -2.970323252630    -0.190509729237    -0.146991744720    12.000000000000
         C           -4.186903252630     0.730623270763    -0.128382744720    12.000000000000
         H            2.301553747370    -0.510332729237     1.060192255280     1.007825032230
         H            0.762039747370     1.423069270763     0.719054255280     1.007825032230
         H            1.017940747370     1.286593270763    -1.046478744720     1.007825032230
         H           -1.579516252630     1.284039270763     0.618776255280     1.007825032230
         H           -1.595017252630     1.164972270763    -1.164649744720     1.007825032230
         H            2.959971747370    -0.149355729237    -1.911618744720     1.007825032230
         H            3.854568747370    -1.179900729237    -0.783385744720     1.007825032230
         H            2.183118747370    -1.574242729237    -1.198021744720     1.007825032230
         H            3.529809747370     1.890195270763    -0.397287744720     1.007825032230
         H            4.399271747370     0.797063270763     0.690823255280     1.007825032230
         H            3.106617747370     1.828700270763     1.323939255280     1.007825032230
         H           -3.036455252630    -0.880103729237    -0.996796744720     1.007825032230
         H           -2.943624252630    -0.803128729237     0.759694255280     1.007825032230
         H           -4.151645252630     1.405976270763     0.731647255280     1.007825032230
         H           -4.234493252630     1.341157270763    -1.035318744720     1.007825032230
         H           -5.112715252630     0.152260270763    -0.063200744720     1.007825032230

  Basis Set: AUG-CC-PVTZ
    Blend: AUG-CC-PVTZ
  Basis Set: (AUG-CC-PVTZ AUX)
    Blend: AUG-CC-PVTZ-JKFIT
	 Reference Energy          =    -746.8891380010487637 [Eh]
	 Singles Energy            =      -0.0000000000000000 [Eh]
	 Same-Spin Energy          =      -0.4274602532240673 [Eh]
	 Opposite-Spin Energy      =      -1.4581832559002157 [Eh]
	 Correlation Energy        =      -1.8856435091242829 [Eh]
	 Total Energy              =    -748.7747815101730566 [Eh]

	 ================> DF-SCS-MP2 Energies <==================
	-----------------------------------------------------------
	 SCS Same-Spin Scale       =       0.3333333333333333 [-]
	 SCS Opposite-Spin Scale   =       1.2000000000000000 [-]
	 SCS Same-Spin Energy      =      -0.1424867510746891 [Eh]
	 SCS Opposite-Spin Energy  =      -1.7498199070802587 [Eh]
	 SCS Correlation Energy    =      -1.8923066581549477 [Eh]
	 SCS Total Energy          =    -748.7814446592036575 [Eh]
	-----------------------------------------------------------

  Dipole Moment: [D]
     X:    -0.0806      Y:     2.9165      Z:    -2.2926     Total:     3.7106

*** Psi4 exiting successfully. Buy a developer a beer!
