                               Psi4 1.3.2 release

  ==> Input File <==

--------------------------------------------------------------------------
#psi4
#
memory 32 gb

molecule  {
0 1
  S       -0.0598420     0.1064250    -0.0004010
  O       -0.4164780     0.7677630     1.2543941
  O       -0.4374810     0.6982890    -1.2834970
  N       -0.5542268    -1.4967966    -0.0808065
  C        1.7021800    -0.0997450     0.0075480
  H        1.9984920    -0.6462440    -0.8867680
  H        2.1431120     0.8977760     0.0077280
  H        1.9907200    -0.6430360     0.9062190
  H       -1.1275310    -1.6767740    -0.8419270
  H       -1.1351590    -1.6740770     0.8371300
units angstrom
no_reorient  #important for SAPT in psi4, default
symmetry c1  #important for SAPT in psi4, default
}

set PROPERTIES_ORIGIN ["COM"]
properties('MP2/aug-cc-pvtz', properties = ['dipole'])
--------------------------------------------------------------------------

    Molecular point group: c1
  Charge       = 0
  Multiplicity = 1
  Basis Set: AUG-CC-PVTZ
    Blend: AUG-CC-PVTZ
  Basis Set: (AUG-CC-PVTZ AUX)
    Blend: AUG-CC-PVTZ-JKFIT

    Orbital Energies [Eh]
    ---------------------

    Doubly Occupied:

       1A    -92.208668     2A    -20.559617     3A    -20.548138
       4A    -15.619241     5A    -11.275896     6A     -9.174713
       7A     -6.859933     8A     -6.858919     9A     -6.858856
      10A     -1.458625    11A     -1.340841    12A     -1.224905
      13A     -1.042030    14A     -0.848383    15A     -0.724404
      16A     -0.701627    17A     -0.678149    18A     -0.644082
      19A     -0.604102    20A     -0.599014    21A     -0.542359
      22A     -0.500505    23A     -0.480328    24A     -0.475525
      25A     -0.461591

  @DF-RHF Final Energy:  -642.54646044328842

   => Energetics <=

    Nuclear Repulsion Energy =            276.8856188807690728
    One-Electron Energy =               -1434.2832588553940241
    Two-Electron Energy =                 514.8511795313365838
    Total Energy =                       -642.5464604432884244
  Basis Set: (AUG-CC-PVTZ AUX)
    Blend: AUG-CC-PVTZ-RI
    Molecular point group: c1

    Geometry (in Angstrom), charge = 0, multiplicity = 1:

       Center              X                  Y                   Z               Mass
    ------------   -----------------  -----------------  -----------------  -----------------
         S           -0.070293350444     0.096702560244     0.015353324998    31.972071174400
         O           -0.426929350444     0.758040560244     1.270148424998    15.994914619570
         O           -0.447932350444     0.688566560244    -1.267742675002    15.994914619570
         N           -0.564678150444    -1.506519039756    -0.065052175002    14.003074004430
         C            1.691728649556    -0.109467439756     0.023302324998    12.000000000000
         H            1.988040649556    -0.655966439756    -0.871013675002     1.007825032230
         H            2.132660649556     0.888053560244     0.023482324998     1.007825032230
         H            1.980268649556    -0.652758439756     0.921973324998     1.007825032230
         H           -1.137982350444    -1.686496439756    -0.826172675002     1.007825032230
         H           -1.145610350444    -1.683799439756     0.852884324998     1.007825032230

  Basis Set: AUG-CC-PVTZ
    Blend: AUG-CC-PVTZ
  Basis Set: (AUG-CC-PVTZ AUX)
    Blend: AUG-CC-PVTZ-JKFIT
	 Reference Energy          =    -642.5464604432884244 [Eh]
	 Singles Energy            =      -0.0000000000000000 [Eh]
	 Same-Spin Energy          =      -0.3005370813127782 [Eh]
	 Opposite-Spin Energy      =      -0.8927955432488212 [Eh]
	 Correlation Energy        =      -1.1933326245615994 [Eh]
	 Total Energy              =    -643.7397930678499733 [Eh]

	 ================> DF-SCS-MP2 Energies <==================
	-----------------------------------------------------------
	 SCS Same-Spin Scale       =       0.3333333333333333 [-]
	 SCS Opposite-Spin Scale   =       1.2000000000000000 [-]
	 SCS Same-Spin Energy      =      -0.1001790271042594 [Eh]
	 SCS Opposite-Spin Energy  =      -1.0713546518985853 [Eh]
	 SCS Correlation Energy    =      -1.1715336790028448 [Eh]
	 SCS Total Energy          =    -643.7179941222913158 [Eh]
	-----------------------------------------------------------

  Dipole Moment: [D]
     X:     1.3689      Y:    -3.2439      Z:     0.2545     Total:     3.5301

*** Psi4 exiting successfully. Buy a developer a beer!
