                               Psi4 1.3.2 release

  ==> Input File <==

--------------------------------------------------------------------------
#psi4
#
memory 32 gb

molecule  {
0 1
  S       -0.0598420     0.1064250    -0.0004010
  O       -0.4487500     0.7022520     1.2774130
  O       -0.4162098     0.7422039    -1.2684849
  N       -0.5662035    -1.4941584     0.0537440
  C        1.7021800    -0.0997450     0.0075480
  H        1.9984920    -0.6462440    -0.8867680
  H        2.1431120     0.8977760     0.0077280
  H        1.9907200    -0.6430360     0.9062190
  H       -1.1275310    -1.6767740    -0.8419270
  H       -1.1351590    -1.6740770     0.8371300
units angstrom
no_reorient  #important for SAPT in psi4, default
symmetry c1  #important for SAPT in psi4, default
}

set PROPERTIES_ORIGIN ["COM"]
properties('MP2/aug-cc-pvtz', properties = ['dipole'])
--------------------------------------------------------------------------

    Molecular point group: c1
  Charge       = 0
  Multiplicity = 1
  Basis Set: AUG-CC-PVTZ
    Blend: AUG-CC-PVTZ
  Basis Set: (AUG-CC-PVTZ AUX)
    Blend: AUG-CC-PVTZ-JKFIT

    Orbital Energies [Eh]
    ---------------------

    Doubly Occupied:

       1A    -92.208693     2A    -20.557934     3A    -20.550210
       4A    -15.616522     5A    -11.276717     6A     -9.174684
       7A     -6.859891     8A     -6.858903     9A     -6.858856
      10A     -1.458550    11A     -1.341365    12A     -1.223584
      13A     -1.042589    14A     -0.846862    15A     -0.723793
      16A     -0.705452    17A     -0.678246    18A     -0.645631
      19A     -0.604239    20A     -0.600124    21A     -0.541015
      22A     -0.500832    23A     -0.479879    24A     -0.476339
      25A     -0.461556

  @DF-RHF Final Energy:  -642.55208104896792

   => Energetics <=

    Nuclear Repulsion Energy =            276.9086199545400291
    One-Electron Energy =               -1434.3364713999330888
    Two-Electron Energy =                 514.8757703964251959
    Total Energy =                       -642.5520810489679207
  Basis Set: (AUG-CC-PVTZ AUX)
    Blend: AUG-CC-PVTZ-RI
    Molecular point group: c1

    Geometry (in Angstrom), charge = 0, multiplicity = 1:

       Center              X                  Y                   Z               Mass
    ------------   -----------------  -----------------  -----------------  -----------------
         S           -0.066675954198     0.099949629235    -0.010881576630    31.972071174400
         O           -0.455583954198     0.695776629235     1.266932423370    15.994914619570
         O           -0.423043754198     0.735728529235    -1.278965476630    15.994914619570
         N           -0.573037454198    -1.500633770765     0.043263423370    14.003074004430
         C            1.695346045802    -0.106220370765    -0.002932576630    12.000000000000
         H            1.991658045802    -0.652719370765    -0.897248576630     1.007825032230
         H            2.136278045802     0.891300629235    -0.002752576630     1.007825032230
         H            1.983886045802    -0.649511370765     0.895738423370     1.007825032230
         H           -1.134364954198    -1.683249370765    -0.852407576630     1.007825032230
         H           -1.141992954198    -1.680552370765     0.826649423370     1.007825032230

  Basis Set: AUG-CC-PVTZ
    Blend: AUG-CC-PVTZ
  Basis Set: (AUG-CC-PVTZ AUX)
    Blend: AUG-CC-PVTZ-JKFIT
	 Reference Energy          =    -642.5520810489679207 [Eh]
	 Singles Energy            =      -0.0000000000000000 [Eh]
	 Same-Spin Energy          =      -0.3003727219169380 [Eh]
	 Opposite-Spin Energy      =      -0.8922914758785373 [Eh]
	 Correlation Energy        =      -1.1926641977954753 [Eh]
	 Total Energy              =    -643.7447452467633866 [Eh]

	 ================> DF-SCS-MP2 Energies <==================
	-----------------------------------------------------------
	 SCS Same-Spin Scale       =       0.3333333333333333 [-]
	 SCS Opposite-Spin Scale   =       1.2000000000000000 [-]
	 SCS Same-Spin Energy      =      -0.1001242406389793 [Eh]
	 SCS Opposite-Spin Energy  =      -1.0707497710542446 [Eh]
	 SCS Correlation Energy    =      -1.1708740116932239 [Eh]
	 SCS Total Energy          =    -643.7229550606610928 [Eh]
	-----------------------------------------------------------

  Dipole Moment: [D]
     X:     1.4256      Y:    -3.2049      Z:    -0.1522     Total:     3.5110

*** Psi4 exiting successfully. Buy a developer a beer!
