                               Psi4 1.3.2 release

  ==> Input File <==

--------------------------------------------------------------------------
#psi4
#
memory 32 gb

molecule  {
0 1
  S       -0.0598420     0.1064250    -0.0004010
  O       -0.4731402     0.7019179     1.2698906
  O       -0.4374810     0.6982890    -1.2834970
  N       -0.5882700    -1.4879290    -0.0002140
  C        1.7006251    -0.1118065    -0.0209265
  H        1.9984920    -0.6462440    -0.8867680
  H        2.1431120     0.8977760     0.0077280
  H        1.9907200    -0.6430360     0.9062190
  H       -1.1275310    -1.6767740    -0.8419270
  H       -1.1351590    -1.6740770     0.8371300
units angstrom
no_reorient  #important for SAPT in psi4, default
symmetry c1  #important for SAPT in psi4, default
}

set PROPERTIES_ORIGIN ["COM"]
properties('MP2/aug-cc-pvtz', properties = ['dipole'])
--------------------------------------------------------------------------

    Molecular point group: c1
  Charge       = 0
  Multiplicity = 1
  Basis Set: AUG-CC-PVTZ
    Blend: AUG-CC-PVTZ
  Basis Set: (AUG-CC-PVTZ AUX)
    Blend: AUG-CC-PVTZ-JKFIT

    Orbital Energies [Eh]
    ---------------------

    Doubly Occupied:

       1A    -92.208948     2A    -20.555883     3A    -20.552703
       4A    -15.609551     5A    -11.280061     6A     -9.174839
       7A     -6.860054     8A     -6.859107     9A     -6.858997
      10A     -1.458613    11A     -1.341957    12A     -1.220421
      13A     -1.045402    14A     -0.845734    15A     -0.724156
      16A     -0.709764    17A     -0.678870    18A     -0.649414
      19A     -0.608553    20A     -0.597615    21A     -0.537694
      22A     -0.501527    23A     -0.480163    24A     -0.476914
      25A     -0.459941

  @DF-RHF Final Energy:  -642.55607618961972

   => Energetics <=

    Nuclear Repulsion Energy =            276.9939723468938269
    One-Electron Energy =               -1434.5063361282911956
    Two-Electron Energy =                 514.9562875917777092
    Total Energy =                       -642.5560761896197164
  Basis Set: (AUG-CC-PVTZ AUX)
    Blend: AUG-CC-PVTZ-RI
    Molecular point group: c1

    Geometry (in Angstrom), charge = 0, multiplicity = 1:

       Center              X                  Y                   Z               Mass
    ------------   -----------------  -----------------  -----------------  -----------------
         S           -0.055539510280     0.108004715607     0.004462069350    31.972071174400
         O           -0.468837710280     0.703497615607     1.274753669350    15.994914619570
         O           -0.433178510280     0.699868715607    -1.278633930650    15.994914619570
         N           -0.583967510280    -1.486349284393     0.004649069350    14.003074004430
         C            1.704927589720    -0.110226784393    -0.016063430650    12.000000000000
         H            2.002794489720    -0.644664284393    -0.881904930650     1.007825032230
         H            2.147414489720     0.899355715607     0.012591069350     1.007825032230
         H            1.995022489720    -0.641456284393     0.911082069350     1.007825032230
         H           -1.123228510280    -1.675194284393    -0.837063930650     1.007825032230
         H           -1.130856510280    -1.672497284393     0.841993069350     1.007825032230

  Basis Set: AUG-CC-PVTZ
    Blend: AUG-CC-PVTZ
  Basis Set: (AUG-CC-PVTZ AUX)
    Blend: AUG-CC-PVTZ-JKFIT
	 Reference Energy          =    -642.5560761896197164 [Eh]
	 Singles Energy            =      -0.0000000000000000 [Eh]
	 Same-Spin Energy          =      -0.3001617763999298 [Eh]
	 Opposite-Spin Energy      =      -0.8916416144660584 [Eh]
	 Correlation Energy        =      -1.1918033908659882 [Eh]
	 Total Energy              =    -643.7478795804856873 [Eh]

	 ================> DF-SCS-MP2 Energies <==================
	-----------------------------------------------------------
	 SCS Same-Spin Scale       =       0.3333333333333333 [-]
	 SCS Opposite-Spin Scale   =       1.2000000000000000 [-]
	 SCS Same-Spin Energy      =      -0.1000539254666433 [Eh]
	 SCS Opposite-Spin Energy  =      -1.0699699373592699 [Eh]
	 SCS Correlation Energy    =      -1.1700238628259132 [Eh]
	 SCS Total Energy          =    -643.7261000524456449 [Eh]
	-----------------------------------------------------------

  Dipole Moment: [D]
     X:     1.6121      Y:    -3.1004      Z:     0.0454     Total:     3.4948

*** Psi4 exiting successfully. Buy a developer a beer!
