                               Psi4 1.3.2 release

  ==> Input File <==

--------------------------------------------------------------------------
#psi4
#
memory 32 gb

molecule  {
0 1
  S       -0.0598420     0.1064250    -0.0004010
  O       -0.4843933     0.7576820     1.2384244
  O       -0.4734673     0.7538420    -1.2449953
  N       -0.5882700    -1.4879290    -0.0002140
  C        1.7021800    -0.0997450     0.0075480
  H        1.9984920    -0.6462440    -0.8867680
  H        2.1431120     0.8977760     0.0077280
  H        1.9907200    -0.6430360     0.9062190
  H       -1.1275310    -1.6767740    -0.8419270
  H       -1.1351590    -1.6740770     0.8371300
units angstrom
no_reorient  #important for SAPT in psi4, default
symmetry c1  #important for SAPT in psi4, default
}

set PROPERTIES_ORIGIN ["COM"]
properties('MP2/aug-cc-pvtz', properties = ['dipole'])
--------------------------------------------------------------------------

    Molecular point group: c1
  Charge       = 0
  Multiplicity = 1
  Basis Set: AUG-CC-PVTZ
    Blend: AUG-CC-PVTZ
  Basis Set: (AUG-CC-PVTZ AUX)
    Blend: AUG-CC-PVTZ-JKFIT

    Orbital Energies [Eh]
    ---------------------

    Doubly Occupied:

       1A    -92.207603     2A    -20.549091     3A    -20.549064
       4A    -15.614202     5A    -11.282764     6A     -9.173731
       7A     -6.858877     8A     -6.858013     9A     -6.857863
      10A     -1.456587    11A     -1.333258    12A     -1.225504
      13A     -1.048136    14A     -0.847123    15A     -0.727071
      16A     -0.708942    17A     -0.677816    18A     -0.646502
      19A     -0.608319    20A     -0.600323    21A     -0.539725
      22A     -0.494895    23A     -0.480779    24A     -0.469386
      25A     -0.462370

  @DF-RHF Final Energy:  -642.55630358378221

   => Energetics <=

    Nuclear Repulsion Energy =            276.8151105449006195
    One-Electron Energy =               -1434.1869452354112582
    Two-Electron Energy =                 514.8155311067284856
    Total Energy =                       -642.5563035837822099
  Basis Set: (AUG-CC-PVTZ AUX)
    Blend: AUG-CC-PVTZ-RI
    Molecular point group: c1

    Geometry (in Angstrom), charge = 0, multiplicity = 1:

       Center              X                  Y                   Z               Mass
    ------------   -----------------  -----------------  -----------------  -----------------
         S           -0.047782672702     0.087739847894    -0.000319052979    31.972071174400
         O           -0.472333972702     0.738996847894     1.238506347021    15.994914619570
         O           -0.461407972702     0.735156847894    -1.244913352979    15.994914619570
         N           -0.576210672702    -1.506614152106    -0.000132052979    14.003074004430
         C            1.714239327298    -0.118430152106     0.007629947021    12.000000000000
         H            2.010551327298    -0.664929152106    -0.886686052979     1.007825032230
         H            2.155171327298     0.879090847894     0.007809947021     1.007825032230
         H            2.002779327298    -0.661721152106     0.906300947021     1.007825032230
         H           -1.115471672702    -1.695459152106    -0.841845052979     1.007825032230
         H           -1.123099672702    -1.692762152106     0.837211947021     1.007825032230

  Basis Set: AUG-CC-PVTZ
    Blend: AUG-CC-PVTZ
  Basis Set: (AUG-CC-PVTZ AUX)
    Blend: AUG-CC-PVTZ-JKFIT
	 Reference Energy          =    -642.5563035837822099 [Eh]
	 Singles Energy            =      -0.0000000000000000 [Eh]
	 Same-Spin Energy          =      -0.2998983311226506 [Eh]
	 Opposite-Spin Energy      =      -0.8910548849143991 [Eh]
	 Correlation Energy        =      -1.1909532160370497 [Eh]
	 Total Energy              =    -643.7472567998192972 [Eh]

	 ================> DF-SCS-MP2 Energies <==================
	-----------------------------------------------------------
	 SCS Same-Spin Scale       =       0.3333333333333333 [-]
	 SCS Opposite-Spin Scale   =       1.2000000000000000 [-]
	 SCS Same-Spin Energy      =      -0.0999661103742168 [Eh]
	 SCS Opposite-Spin Energy  =      -1.0692658618972788 [Eh]
	 SCS Correlation Energy    =      -1.1692319722714957 [Eh]
	 SCS Total Energy          =    -643.7255355560537282 [Eh]
	-----------------------------------------------------------

  Dipole Moment: [D]
     X:     1.7407      Y:    -3.3909      Z:     0.0130     Total:     3.8116

*** Psi4 exiting successfully. Buy a developer a beer!
