                               Psi4 1.3.2 release

  ==> Input File <==

--------------------------------------------------------------------------
#psi4
#
memory 32 gb

molecule  {
0 1
  S       -0.0598420     0.1064250    -0.0004010
  O       -0.4974045     0.7014024     1.2619812
  O       -0.4374810     0.6982890    -1.2834970
  N       -0.5882700    -1.4879290    -0.0002140
  C        1.6985340    -0.1238015    -0.0493948
  H        1.9984920    -0.6462440    -0.8867680
  H        2.1431120     0.8977760     0.0077280
  H        1.9907200    -0.6430360     0.9062190
  H       -1.1275310    -1.6767740    -0.8419270
  H       -1.1351590    -1.6740770     0.8371300
units angstrom
no_reorient  #important for SAPT in psi4, default
symmetry c1  #important for SAPT in psi4, default
}

set PROPERTIES_ORIGIN ["COM"]
properties('MP2/aug-cc-pvtz', properties = ['dipole'])
--------------------------------------------------------------------------

    Molecular point group: c1
  Charge       = 0
  Multiplicity = 1
  Basis Set: AUG-CC-PVTZ
    Blend: AUG-CC-PVTZ
  Basis Set: (AUG-CC-PVTZ AUX)
    Blend: AUG-CC-PVTZ-JKFIT

    Orbital Energies [Eh]
    ---------------------

    Doubly Occupied:

       1A    -92.209045     2A    -20.557391     3A    -20.550994
       4A    -15.608232     5A    -11.281809     6A     -9.174956
       7A     -6.860174     8A     -6.859275     9A     -6.859054
      10A     -1.458733    11A     -1.341427    12A     -1.219616
      13A     -1.046832    14A     -0.846053    15A     -0.723554
      16A     -0.710501    17A     -0.679914    18A     -0.651089
      19A     -0.612549    20A     -0.591327    21A     -0.537257
      22A     -0.501406    23A     -0.481027    24A     -0.475807
      25A     -0.459314

  @DF-RHF Final Energy:  -642.55223441306475

   => Energetics <=

    Nuclear Repulsion Energy =            277.0039010545430642
    One-Electron Energy =               -1434.5175955543481905
    Two-Electron Energy =                 514.9614600867403169
    Total Energy =                       -642.5522344130647525
  Basis Set: (AUG-CC-PVTZ AUX)
    Blend: AUG-CC-PVTZ-RI
    Molecular point group: c1

    Geometry (in Angstrom), charge = 0, multiplicity = 1:

       Center              X                  Y                   Z               Mass
    ------------   -----------------  -----------------  -----------------  -----------------
         S           -0.051190238947     0.109606597833     0.009389538583    31.972071174400
         O           -0.488752738947     0.704583997833     1.271771738583    15.994914619570
         O           -0.428829238947     0.701470597833    -1.273706461417    15.994914619570
         N           -0.579618238947    -1.484747402167     0.009576538583    14.003074004430
         C            1.707185761053    -0.120619902167    -0.039604261417    12.000000000000
         H            2.007143761053    -0.643062402167    -0.876977461417     1.007825032230
         H            2.151763761053     0.900957597833     0.017518538583     1.007825032230
         H            1.999371761053    -0.639854402167     0.916009538583     1.007825032230
         H           -1.118879238947    -1.673592402167    -0.832136461417     1.007825032230
         H           -1.126507238947    -1.670895402167     0.846920538583     1.007825032230

  Basis Set: AUG-CC-PVTZ
    Blend: AUG-CC-PVTZ
  Basis Set: (AUG-CC-PVTZ AUX)
    Blend: AUG-CC-PVTZ-JKFIT
	 Reference Energy          =    -642.5522344130647525 [Eh]
	 Singles Energy            =      -0.0000000000000000 [Eh]
	 Same-Spin Energy          =      -0.3002137365505372 [Eh]
	 Opposite-Spin Energy      =      -0.8917836945500091 [Eh]
	 Correlation Energy        =      -1.1919974311005461 [Eh]
	 Total Energy              =    -643.7442318441652560 [Eh]

	 ================> DF-SCS-MP2 Energies <==================
	-----------------------------------------------------------
	 SCS Same-Spin Scale       =       0.3333333333333333 [-]
	 SCS Opposite-Spin Scale   =       1.2000000000000000 [-]
	 SCS Same-Spin Energy      =      -0.1000712455168457 [Eh]
	 SCS Opposite-Spin Energy  =      -1.0701404334600109 [Eh]
	 SCS Correlation Energy    =      -1.1702116789768566 [Eh]
	 SCS Total Energy          =    -643.7224460920416504 [Eh]
	-----------------------------------------------------------

  Dipole Moment: [D]
     X:     1.6768      Y:    -3.0832      Z:     0.0823     Total:     3.5106

*** Psi4 exiting successfully. Buy a developer a beer!
