                               Psi4 1.3.2 release

  ==> Input File <==

--------------------------------------------------------------------------
#psi4
#
memory 32 gb

molecule  {
0 1
  S       -0.0598420     0.1064250    -0.0004010
  O       -0.4696778     0.6576595     1.2908167
  O       -0.4374810     0.6982890    -1.2834970
  N       -0.6101664    -1.4795875     0.0535277
  C        1.7021800    -0.0997450     0.0075480
  H        1.9984920    -0.6462440    -0.8867680
  H        2.1431120     0.8977760     0.0077280
  H        1.9907200    -0.6430360     0.9062190
  H       -1.1275310    -1.6767740    -0.8419270
  H       -1.1351590    -1.6740770     0.8371300
units angstrom
no_reorient  #important for SAPT in psi4, default
symmetry c1  #important for SAPT in psi4, default
}

set PROPERTIES_ORIGIN ["COM"]
properties('MP2/aug-cc-pvtz', properties = ['dipole'])
--------------------------------------------------------------------------

    Molecular point group: c1
  Charge       = 0
  Multiplicity = 1
  Basis Set: AUG-CC-PVTZ
    Blend: AUG-CC-PVTZ
  Basis Set: (AUG-CC-PVTZ AUX)
    Blend: AUG-CC-PVTZ-JKFIT

    Orbital Energies [Eh]
    ---------------------

    Doubly Occupied:

       1A    -92.209585     2A    -20.558894     3A    -20.550817
       4A    -15.604960     5A    -11.280586     6A     -9.175292
       7A     -6.860554     8A     -6.859546     9A     -6.859455
      10A     -1.458943    11A     -1.343983    12A     -1.219508
      13A     -1.046025    14A     -0.847957    15A     -0.730056
      16A     -0.707257    17A     -0.678862    18A     -0.649358
      19A     -0.606829    20A     -0.602639    21A     -0.535076
      22A     -0.503104    23A     -0.479784    24A     -0.478359
      25A     -0.457438

  @DF-RHF Final Energy:  -642.55279912589856

   => Energetics <=

    Nuclear Repulsion Energy =            277.1407491695637759
    One-Electron Energy =               -1434.7773619694248737
    Two-Electron Energy =                 515.0838136739624815
    Total Energy =                       -642.5527991258985594
  Basis Set: (AUG-CC-PVTZ AUX)
    Blend: AUG-CC-PVTZ-RI
    Molecular point group: c1

    Geometry (in Angstrom), charge = 0, multiplicity = 1:

       Center              X                  Y                   Z               Mass
    ------------   -----------------  -----------------  -----------------  -----------------
         S           -0.053091433636     0.112703088513    -0.010578904580    31.972071174400
         O           -0.462927233636     0.663937588513     1.280638795420    15.994914619570
         O           -0.430730433636     0.704567088513    -1.293674904580    15.994914619570
         N           -0.603415833636    -1.473309411487     0.043349795420    14.003074004430
         C            1.708930566364    -0.093466911487    -0.002629904580    12.000000000000
         H            2.005242566364    -0.639965911487    -0.896945904580     1.007825032230
         H            2.149862566364     0.904054088513    -0.002449904580     1.007825032230
         H            1.997470566364    -0.636757911487     0.896041095420     1.007825032230
         H           -1.120780433636    -1.670495911487    -0.852104904580     1.007825032230
         H           -1.128408433636    -1.667798911487     0.826952095420     1.007825032230

  Basis Set: AUG-CC-PVTZ
    Blend: AUG-CC-PVTZ
  Basis Set: (AUG-CC-PVTZ AUX)
    Blend: AUG-CC-PVTZ-JKFIT
	 Reference Energy          =    -642.5527991258985594 [Eh]
	 Singles Energy            =      -0.0000000000000000 [Eh]
	 Same-Spin Energy          =      -0.3001241437383573 [Eh]
	 Opposite-Spin Energy      =      -0.8915301951422833 [Eh]
	 Correlation Energy        =      -1.1916543388806407 [Eh]
	 Total Energy              =    -643.7444534647792125 [Eh]

	 ================> DF-SCS-MP2 Energies <==================
	-----------------------------------------------------------
	 SCS Same-Spin Scale       =       0.3333333333333333 [-]
	 SCS Opposite-Spin Scale   =       1.2000000000000000 [-]
	 SCS Same-Spin Energy      =      -0.1000413812461191 [Eh]
	 SCS Opposite-Spin Energy  =      -1.0698362341707399 [Eh]
	 SCS Correlation Energy    =      -1.1698776154168591 [Eh]
	 SCS Total Energy          =    -643.7226767413154676 [Eh]
	-----------------------------------------------------------

  Dipole Moment: [D]
     X:     1.6688      Y:    -3.0084      Z:    -0.1535     Total:     3.4437

*** Psi4 exiting successfully. Buy a developer a beer!
