                               Psi4 1.3.2 release

  ==> Input File <==

--------------------------------------------------------------------------
#psi4
#
memory 32 gb

molecule  {
0 1
  S       -0.0598420     0.1064250    -0.0004010
  O       -0.4487500     0.7022520     1.2774130
  O       -0.4322053     0.7093374    -1.2798898
  N       -0.5828127    -1.4896688     0.0132781
  C        1.7021800    -0.0997450     0.0075480
  H        1.9984920    -0.6462440    -0.8867680
  H        2.1431120     0.8977760     0.0077280
  H        1.9907200    -0.6430360     0.9062190
  H       -1.1275310    -1.6767740    -0.8419270
  H       -1.1351590    -1.6740770     0.8371300
units angstrom
no_reorient  #important for SAPT in psi4, default
symmetry c1  #important for SAPT in psi4, default
}

set PROPERTIES_ORIGIN ["COM"]
properties('MP2/aug-cc-pvtz', properties = ['dipole'])
--------------------------------------------------------------------------

    Molecular point group: c1
  Charge       = 0
  Multiplicity = 1
  Basis Set: AUG-CC-PVTZ
    Blend: AUG-CC-PVTZ
  Basis Set: (AUG-CC-PVTZ AUX)
    Blend: AUG-CC-PVTZ-JKFIT

    Orbital Energies [Eh]
    ---------------------

    Doubly Occupied:

       1A    -92.208866     2A    -20.555338     3A    -20.553383
       4A    -15.612322     5A    -11.278055     6A     -9.174765
       7A     -6.859971     8A     -6.858985     9A     -6.858970
      10A     -1.458559    11A     -1.342237    12A     -1.221792
      13A     -1.043644    14A     -0.845765    15A     -0.724155
      16A     -0.709231    17A     -0.678413    18A     -0.647463
      19A     -0.604697    20A     -0.601565    21A     -0.538851
      22A     -0.501497    23A     -0.479507    24A     -0.477385
      25A     -0.460763

  @DF-RHF Final Energy:  -642.55678348662138

   => Energetics <=

    Nuclear Repulsion Energy =            276.9681746679470393
    One-Electron Energy =               -1434.4575577850721402
    Two-Electron Energy =                 514.9325996305036597
    Total Energy =                       -642.5567834866213843
  Basis Set: (AUG-CC-PVTZ AUX)
    Blend: AUG-CC-PVTZ-RI
    Molecular point group: c1

    Geometry (in Angstrom), charge = 0, multiplicity = 1:

       Center              X                  Y                   Z               Mass
    ------------   -----------------  -----------------  -----------------  -----------------
         S           -0.061534844333     0.104821299641    -0.002996996939    31.972071174400
         O           -0.450442844333     0.700648299641     1.274817003061    15.994914619570
         O           -0.433898144333     0.707733699641    -1.282485796939    15.994914619570
         N           -0.584505544333    -1.491272500359     0.010682103061    14.003074004430
         C            1.700487155667    -0.101348700359     0.004952003061    12.000000000000
         H            1.996799155667    -0.647847700359    -0.889363996939     1.007825032230
         H            2.141419155667     0.896172299641     0.005132003061     1.007825032230
         H            1.989027155667    -0.644639700359     0.903623003061     1.007825032230
         H           -1.129223844333    -1.678377700359    -0.844522996939     1.007825032230
         H           -1.136851844333    -1.675680700359     0.834534003061     1.007825032230

  Basis Set: AUG-CC-PVTZ
    Blend: AUG-CC-PVTZ
  Basis Set: (AUG-CC-PVTZ AUX)
    Blend: AUG-CC-PVTZ-JKFIT
	 Reference Energy          =    -642.5567834866213843 [Eh]
	 Singles Energy            =      -0.0000000000000000 [Eh]
	 Same-Spin Energy          =      -0.3001990308148832 [Eh]
	 Opposite-Spin Energy      =      -0.8917612654630968 [Eh]
	 Correlation Energy        =      -1.1919602962779798 [Eh]
	 Total Energy              =    -643.7487437828993961 [Eh]

	 ================> DF-SCS-MP2 Energies <==================
	-----------------------------------------------------------
	 SCS Same-Spin Scale       =       0.3333333333333333 [-]
	 SCS Opposite-Spin Scale   =       1.2000000000000000 [-]
	 SCS Same-Spin Energy      =      -0.1000663436049611 [Eh]
	 SCS Opposite-Spin Energy  =      -1.0701135185557160 [Eh]
	 SCS Correlation Energy    =      -1.1701798621606772 [Eh]
	 SCS Total Energy          =    -643.7269633487820784 [Eh]
	-----------------------------------------------------------

  Dipole Moment: [D]
     X:     1.5117      Y:    -3.1387      Z:    -0.0296     Total:     3.4838

*** Psi4 exiting successfully. Buy a developer a beer!
