                               Psi4 1.3.2 release

  ==> Input File <==

--------------------------------------------------------------------------
#psi4
#
memory 32 gb

molecule  {
0 1
  S       -0.0598420     0.1064250    -0.0004010
  O       -0.4799560     0.6351079     1.2969295
  O       -0.4374810     0.6982890    -1.2834970
  N       -0.6208648    -1.4746914     0.0803779
  C        1.7021800    -0.0997450     0.0075480
  H        1.9984920    -0.6462440    -0.8867680
  H        2.1431120     0.8977760     0.0077280
  H        1.9907200    -0.6430360     0.9062190
  H       -1.1275310    -1.6767740    -0.8419270
  H       -1.1351590    -1.6740770     0.8371300
units angstrom
no_reorient  #important for SAPT in psi4, default
symmetry c1  #important for SAPT in psi4, default
}

set PROPERTIES_ORIGIN ["COM"]
properties('MP2/aug-cc-pvtz', properties = ['dipole'])
--------------------------------------------------------------------------

    Molecular point group: c1
  Charge       = 0
  Multiplicity = 1
  Basis Set: AUG-CC-PVTZ
    Blend: AUG-CC-PVTZ
  Basis Set: (AUG-CC-PVTZ AUX)
    Blend: AUG-CC-PVTZ-JKFIT

    Orbital Energies [Eh]
    ---------------------

    Doubly Occupied:

       1A    -92.210047     2A    -20.561188     3A    -20.548947
       4A    -15.601887     5A    -11.281707     6A     -9.175664
       7A     -6.860964     8A     -6.859933     9A     -6.859787
      10A     -1.459250    11A     -1.344812    12A     -1.218906
      13A     -1.047200    14A     -0.850367    15A     -0.733136
      16A     -0.704542    17A     -0.679126    18A     -0.649742
      19A     -0.608059    20A     -0.602691    21A     -0.533609
      22A     -0.503916    23A     -0.480225    24A     -0.478315
      25A     -0.455443

  @DF-RHF Final Energy:  -642.54639291855017

   => Energetics <=

    Nuclear Repulsion Energy =            277.2377924698397464
    One-Electron Energy =               -1434.9494440244377529
    Two-Electron Energy =                 515.1652586360479518
    Total Energy =                       -642.5463929185501684
  Basis Set: (AUG-CC-PVTZ AUX)
    Blend: AUG-CC-PVTZ-RI
    Molecular point group: c1

    Geometry (in Angstrom), charge = 0, multiplicity = 1:

       Center              X                  Y                   Z               Mass
    ------------   -----------------  -----------------  -----------------  -----------------
         S           -0.049784108797     0.115778223872    -0.015565626773    31.972071174400
         O           -0.469898108797     0.644461123872     1.281764873227    15.994914619570
         O           -0.427423108797     0.707642223872    -1.298661626773    15.994914619570
         N           -0.610806908797    -1.465338176128     0.065213273227    14.003074004430
         C            1.712237891203    -0.090391776128    -0.007616626773    12.000000000000
         H            2.008549891203    -0.636890776128    -0.901932626773     1.007825032230
         H            2.153169891203     0.907129223872    -0.007436626773     1.007825032230
         H            2.000777891203    -0.633682776128     0.891054373227     1.007825032230
         H           -1.117473108797    -1.667420776128    -0.857091626773     1.007825032230
         H           -1.125101108797    -1.664723776128     0.821965373227     1.007825032230

  Basis Set: AUG-CC-PVTZ
    Blend: AUG-CC-PVTZ
  Basis Set: (AUG-CC-PVTZ AUX)
    Blend: AUG-CC-PVTZ-JKFIT
	 Reference Energy          =    -642.5463929185501684 [Eh]
	 Singles Energy            =      -0.0000000000000000 [Eh]
	 Same-Spin Energy          =      -0.3001762345204195 [Eh]
	 Opposite-Spin Energy      =      -0.8916816556663285 [Eh]
	 Correlation Energy        =      -1.1918578901867480 [Eh]
	 Total Energy              =    -643.7382508087368933 [Eh]

	 ================> DF-SCS-MP2 Energies <==================
	-----------------------------------------------------------
	 SCS Same-Spin Scale       =       0.3333333333333333 [-]
	 SCS Opposite-Spin Scale   =       1.2000000000000000 [-]
	 SCS Same-Spin Energy      =      -0.1000587448401398 [Eh]
	 SCS Opposite-Spin Energy  =      -1.0700179867995943 [Eh]
	 SCS Correlation Energy    =      -1.1700767316397340 [Eh]
	 SCS Total Energy          =    -643.7164696501898788 [Eh]
	-----------------------------------------------------------

  Dipole Moment: [D]
     X:     1.7362      Y:    -2.9484      Z:    -0.2356     Total:     3.4297

*** Psi4 exiting successfully. Buy a developer a beer!
