                               Psi4 1.3.2 release

  ==> Input File <==

--------------------------------------------------------------------------
#psi4
#
memory 32 gb

molecule  {
0 1
  S       -0.0598420     0.1064250    -0.0004010
  O       -0.4427031     0.6928507     1.2835733
  O       -0.4313800     0.6888683    -1.2895747
  N       -0.5882700    -1.4879290    -0.0002140
  C        1.7021800    -0.0997450     0.0075480
  H        1.9984920    -0.6462440    -0.8867680
  H        2.1431120     0.8977760     0.0077280
  H        1.9907200    -0.6430360     0.9062190
  H       -1.1275310    -1.6767740    -0.8419270
  H       -1.1351590    -1.6740770     0.8371300
units angstrom
no_reorient  #important for SAPT in psi4, default
symmetry c1  #important for SAPT in psi4, default
}

set PROPERTIES_ORIGIN ["COM"]
properties('MP2/aug-cc-pvtz', properties = ['dipole'])
--------------------------------------------------------------------------

    Molecular point group: c1
  Charge       = 0
  Multiplicity = 1
  Basis Set: AUG-CC-PVTZ
    Blend: AUG-CC-PVTZ
  Basis Set: (AUG-CC-PVTZ AUX)
    Blend: AUG-CC-PVTZ-JKFIT

    Orbital Energies [Eh]
    ---------------------

    Doubly Occupied:

       1A    -92.209160     2A    -20.555303     3A    -20.555278
       4A    -15.610326     5A    -11.277808     6A     -9.174988
       7A     -6.860211     8A     -6.859221     9A     -6.859185
      10A     -1.458944    11A     -1.343975    12A     -1.220536
      13A     -1.043361    14A     -0.845568    15A     -0.724499
      16A     -0.709739    17A     -0.678561    18A     -0.648234
      19A     -0.604394    20A     -0.602092    21A     -0.537823
      22A     -0.502803    23A     -0.479195    24A     -0.478864
      25A     -0.459934

  @DF-RHF Final Energy:  -642.55696101406784

   => Energetics <=

    Nuclear Repulsion Energy =            277.0345499718094970
    One-Electron Energy =               -1434.5830128385937314
    Two-Electron Energy =                 514.9915018527162829
    Total Energy =                       -642.5569610140678378
  Basis Set: (AUG-CC-PVTZ AUX)
    Blend: AUG-CC-PVTZ-RI
    Molecular point group: c1

    Geometry (in Angstrom), charge = 0, multiplicity = 1:

       Center              X                  Y                   Z               Mass
    ------------   -----------------  -----------------  -----------------  -----------------
         S           -0.061887474131     0.109593851052    -0.000414934145    31.972071174400
         O           -0.444748574131     0.696019551052     1.283559365855    15.994914619570
         O           -0.433425474131     0.692037151052    -1.289588634145    15.994914619570
         N           -0.590315474131    -1.484760148948    -0.000227934145    14.003074004430
         C            1.700134525869    -0.096576148948     0.007534065855    12.000000000000
         H            1.996446525869    -0.643075148948    -0.886781934145     1.007825032230
         H            2.141066525869     0.900944851052     0.007714065855     1.007825032230
         H            1.988674525869    -0.639867148948     0.906205065855     1.007825032230
         H           -1.129576474131    -1.673605148948    -0.841940934145     1.007825032230
         H           -1.137204474131    -1.670908148948     0.837116065855     1.007825032230

  Basis Set: AUG-CC-PVTZ
    Blend: AUG-CC-PVTZ
  Basis Set: (AUG-CC-PVTZ AUX)
    Blend: AUG-CC-PVTZ-JKFIT
	 Reference Energy          =    -642.5569610140678378 [Eh]
	 Singles Energy            =      -0.0000000000000000 [Eh]
	 Same-Spin Energy          =      -0.3002252998774169 [Eh]
	 Opposite-Spin Energy      =      -0.8917904921249559 [Eh]
	 Correlation Energy        =      -1.1920157920023726 [Eh]
	 Total Energy              =    -643.7489768060702318 [Eh]

	 ================> DF-SCS-MP2 Energies <==================
	-----------------------------------------------------------
	 SCS Same-Spin Scale       =       0.3333333333333333 [-]
	 SCS Opposite-Spin Scale   =       1.2000000000000000 [-]
	 SCS Same-Spin Energy      =      -0.1000750999591389 [Eh]
	 SCS Opposite-Spin Energy  =      -1.0701485905499470 [Eh]
	 SCS Correlation Energy    =      -1.1702236905090859 [Eh]
	 SCS Total Energy          =    -643.7271847045768709 [Eh]
	-----------------------------------------------------------

  Dipole Moment: [D]
     X:     1.5078      Y:    -3.0681      Z:     0.0115     Total:     3.4186

*** Psi4 exiting successfully. Buy a developer a beer!
