                               Psi4 1.3.2 release

  ==> Input File <==

--------------------------------------------------------------------------
#psi4
#
memory 32 gb

molecule  {
0 1
  S       -0.0598420     0.1064250    -0.0004010
  O       -0.3955680     0.6207745     1.1026758
  O       -0.4374810     0.6982890    -1.2834970
  N       -0.5882700    -1.4879290    -0.0002140
  C        1.7021800    -0.0997450     0.0075480
  H        1.9984920    -0.6462440    -0.8867680
  H        2.1431120     0.8977760     0.0077280
  H        1.9907200    -0.6430360     0.9062190
  H       -1.1275310    -1.6767740    -0.8419270
  H       -1.1351590    -1.6740770     0.8371300
units angstrom
no_reorient  #important for SAPT in psi4, default
symmetry c1  #important for SAPT in psi4, default
}

set PROPERTIES_ORIGIN ["COM"]
properties('MP2/aug-cc-pvtz', properties = ['dipole'])
--------------------------------------------------------------------------

    Molecular point group: c1
  Charge       = 0
  Multiplicity = 1
  Basis Set: AUG-CC-PVTZ
    Blend: AUG-CC-PVTZ
  Basis Set: (AUG-CC-PVTZ AUX)
    Blend: AUG-CC-PVTZ-JKFIT

    Orbital Energies [Eh]
    ---------------------

    Doubly Occupied:

       1A    -92.178776     2A    -20.558278     3A    -20.536034
       4A    -15.594651     5A    -11.263173     6A     -9.154123
       7A     -6.841617     8A     -6.837576     9A     -6.836631
      10A     -1.565678    11A     -1.361666    12A     -1.211304
      13A     -1.032755    14A     -0.830443    15A     -0.738016
      16A     -0.718027    17A     -0.712315    18A     -0.662639
      19A     -0.605845    20A     -0.601670    21A     -0.556532
      22A     -0.521893    23A     -0.486687    24A     -0.473739
      25A     -0.453071

  @DF-RHF Final Energy:  -642.51179974622733

   => Energetics <=

    Nuclear Repulsion Energy =            286.9256397483030128
    One-Electron Energy =               -1454.2085996685361806
    Two-Electron Energy =                 524.7711601740058995
    Total Energy =                       -642.5117997462273252
  Basis Set: (AUG-CC-PVTZ AUX)
    Blend: AUG-CC-PVTZ-RI
    Molecular point group: c1

    Geometry (in Angstrom), charge = 0, multiplicity = 1:

       Center              X                  Y                   Z               Mass
    ------------   -----------------  -----------------  -----------------  -----------------
         S           -0.068795985752     0.120142547133     0.029017772309    31.972071174400
         O           -0.404521985752     0.634492047133     1.132094572309    15.994914619570
         O           -0.446434985752     0.712006547133    -1.254078227691    15.994914619570
         N           -0.597223985752    -1.474211452867     0.029204772309    14.003074004430
         C            1.693226014248    -0.086027452867     0.036966772309    12.000000000000
         H            1.989538014248    -0.632526452867    -0.857349227691     1.007825032230
         H            2.134158014248     0.911493547133     0.037146772309     1.007825032230
         H            1.981766014248    -0.629318452867     0.935637772309     1.007825032230
         H           -1.136484985752    -1.663056452867    -0.812508227691     1.007825032230
         H           -1.144112985752    -1.660359452867     0.866548772309     1.007825032230

  Basis Set: AUG-CC-PVTZ
    Blend: AUG-CC-PVTZ
  Basis Set: (AUG-CC-PVTZ AUX)
    Blend: AUG-CC-PVTZ-JKFIT
	 Reference Energy          =    -642.5117997462273252 [Eh]
	 Singles Energy            =      -0.0000000000000000 [Eh]
	 Same-Spin Energy          =      -0.2955711955306948 [Eh]
	 Opposite-Spin Energy      =      -0.8807228859372491 [Eh]
	 Correlation Energy        =      -1.1762940814679439 [Eh]
	 Total Energy              =    -643.6880938276952975 [Eh]

	 ================> DF-SCS-MP2 Energies <==================
	-----------------------------------------------------------
	 SCS Same-Spin Scale       =       0.3333333333333333 [-]
	 SCS Opposite-Spin Scale   =       1.2000000000000000 [-]
	 SCS Same-Spin Energy      =      -0.0985237318435649 [Eh]
	 SCS Opposite-Spin Energy  =      -1.0568674631246988 [Eh]
	 SCS Correlation Energy    =      -1.1553911949682638 [Eh]
	 SCS Total Energy          =    -643.6671909411955994 [Eh]
	-----------------------------------------------------------

  Dipole Moment: [D]
     X:     1.1709      Y:    -2.5582      Z:     0.9736     Total:     2.9772

*** Psi4 exiting successfully. Buy a developer a beer!
