                               Psi4 1.3.2 release

  ==> Input File <==

--------------------------------------------------------------------------
#psi4
#
memory 32 gb

molecule  {
0 1
  S       -0.0598420     0.1064250    -0.0004010
  O       -0.4487500     0.7022520     1.2774130
  O       -0.4862714     0.6974897    -1.2684901
  N       -0.5882700    -1.4879290    -0.0002140
  C        1.6980408    -0.1236240     0.0645318
  H        1.9984920    -0.6462440    -0.8867680
  H        2.1431120     0.8977760     0.0077280
  H        1.9907200    -0.6430360     0.9062190
  H       -1.1275310    -1.6767740    -0.8419270
  H       -1.1351590    -1.6740770     0.8371300
units angstrom
no_reorient  #important for SAPT in psi4, default
symmetry c1  #important for SAPT in psi4, default
}

set PROPERTIES_ORIGIN ["COM"]
properties('MP2/aug-cc-pvtz', properties = ['dipole'])
--------------------------------------------------------------------------

    Molecular point group: c1
  Charge       = 0
  Multiplicity = 1
  Basis Set: AUG-CC-PVTZ
    Blend: AUG-CC-PVTZ
  Basis Set: (AUG-CC-PVTZ AUX)
    Blend: AUG-CC-PVTZ-JKFIT

    Orbital Energies [Eh]
    ---------------------

    Doubly Occupied:

       1A    -92.209045     2A    -20.557376     3A    -20.551010
       4A    -15.608232     5A    -11.281808     6A     -9.174956
       7A     -6.860174     8A     -6.859275     9A     -6.859054
      10A     -1.458732    11A     -1.341428    12A     -1.219616
      13A     -1.046836    14A     -0.846056    15A     -0.723554
      16A     -0.710502    17A     -0.679916    18A     -0.651098
      19A     -0.612544    20A     -0.591322    21A     -0.537256
      22A     -0.501404    23A     -0.481018    24A     -0.475820
      25A     -0.459316

  @DF-RHF Final Energy:  -642.55222545365268

   => Energetics <=

    Nuclear Repulsion Energy =            277.0038855742365627
    One-Electron Energy =               -1434.5175238707611243
    Two-Electron Energy =                 514.9614128428718232
    Total Energy =                       -642.5522254536526816
  Basis Set: (AUG-CC-PVTZ AUX)
    Blend: AUG-CC-PVTZ-RI
    Molecular point group: c1

    Geometry (in Angstrom), charge = 0, multiplicity = 1:

       Center              X                  Y                   Z               Mass
    ------------   -----------------  -----------------  -----------------  -----------------
         S           -0.051105062529     0.109575709227    -0.010125236209    31.972071174400
         O           -0.440013062529     0.705402709227     1.267688763791    15.994914619570
         O           -0.477534462529     0.700640409227    -1.278214336209    15.994914619570
         N           -0.579533062529    -1.484778290773    -0.009938236209    14.003074004430
         C            1.706777737471    -0.120473290773     0.054807563791    12.000000000000
         H            2.007228937471    -0.643093290773    -0.896492236209     1.007825032230
         H            2.151848937471     0.900926709227    -0.001996236209     1.007825032230
         H            1.999456937471    -0.639885290773     0.896494763791     1.007825032230
         H           -1.118794062529    -1.673623290773    -0.851651236209     1.007825032230
         H           -1.126422062529    -1.670926290773     0.827405763791     1.007825032230

  Basis Set: AUG-CC-PVTZ
    Blend: AUG-CC-PVTZ
  Basis Set: (AUG-CC-PVTZ AUX)
    Blend: AUG-CC-PVTZ-JKFIT
	 Reference Energy          =    -642.5522254536526816 [Eh]
	 Singles Energy            =      -0.0000000000000000 [Eh]
	 Same-Spin Energy          =      -0.3002135369590989 [Eh]
	 Opposite-Spin Energy      =      -0.8917835907473940 [Eh]
	 Correlation Energy        =      -1.1919971277064929 [Eh]
	 Total Energy              =    -643.7442225813591676 [Eh]

	 ================> DF-SCS-MP2 Energies <==================
	-----------------------------------------------------------
	 SCS Same-Spin Scale       =       0.3333333333333333 [-]
	 SCS Opposite-Spin Scale   =       1.2000000000000000 [-]
	 SCS Same-Spin Energy      =      -0.1000711789863663 [Eh]
	 SCS Opposite-Spin Energy  =      -1.0701403088968728 [Eh]
	 SCS Correlation Energy    =      -1.1702114878832390 [Eh]
	 SCS Total Energy          =    -643.7224369415358751 [Eh]
	-----------------------------------------------------------

  Dipole Moment: [D]
     X:     1.6774      Y:    -3.0834      Z:    -0.0578     Total:     3.5106

*** Psi4 exiting successfully. Buy a developer a beer!
