                               Psi4 1.3.2 release

  ==> Input File <==

--------------------------------------------------------------------------
#psi4
#
memory 32 gb

molecule  {
0 1
  S       -0.0598420     0.1064250    -0.0004010
  O       -0.4487500     0.7022520     1.2774130
  O       -0.3634515     0.6981358    -1.3030710
  N       -0.5882700    -1.4879290    -0.0002140
  C        1.7043628    -0.0634647    -0.0779241
  H        1.9984920    -0.6462440    -0.8867680
  H        2.1431120     0.8977760     0.0077280
  H        1.9907200    -0.6430360     0.9062190
  H       -1.1275310    -1.6767740    -0.8419270
  H       -1.1351590    -1.6740770     0.8371300
units angstrom
no_reorient  #important for SAPT in psi4, default
symmetry c1  #important for SAPT in psi4, default
}

set PROPERTIES_ORIGIN ["COM"]
properties('MP2/aug-cc-pvtz', properties = ['dipole'])
--------------------------------------------------------------------------

    Molecular point group: c1
  Charge       = 0
  Multiplicity = 1
  Basis Set: AUG-CC-PVTZ
    Blend: AUG-CC-PVTZ
  Basis Set: (AUG-CC-PVTZ AUX)
    Blend: AUG-CC-PVTZ-JKFIT

    Orbital Energies [Eh]
    ---------------------

    Doubly Occupied:

       1A    -92.209676     2A    -20.559895     3A    -20.550776
       4A    -15.614972     5A    -11.275406     6A     -9.175417
       7A     -6.860629     8A     -6.859808     9A     -6.859473
      10A     -1.459180    11A     -1.344801    12A     -1.223952
      13A     -1.040394    14A     -0.847403    15A     -0.727422
      16A     -0.712111    17A     -0.679540    18A     -0.647643
      19A     -0.620419    20A     -0.580377    21A     -0.539321
      22A     -0.502907    23A     -0.481635    24A     -0.475858
      25A     -0.458208

  @DF-RHF Final Energy:  -642.54644750496971

   => Energetics <=

    Nuclear Repulsion Energy =            277.0616060935134897
    One-Electron Energy =               -1434.6016611631869182
    Two-Electron Energy =                 514.9936075647036660
    Total Energy =                       -642.5464475049697057
  Basis Set: (AUG-CC-PVTZ AUX)
    Blend: AUG-CC-PVTZ-RI
    Molecular point group: c1

    Geometry (in Angstrom), charge = 0, multiplicity = 1:

       Center              X                  Y                   Z               Mass
    ------------   -----------------  -----------------  -----------------  -----------------
         S           -0.072581586417     0.101868190103     0.013690465987    31.972071174400
         O           -0.461489586417     0.697695190103     1.291504465987    15.994914619570
         O           -0.376191086417     0.693578990103    -1.288979534013    15.994914619570
         N           -0.601009586417    -1.492485809897     0.013877465987    14.003074004430
         C            1.691623213583    -0.068021509897    -0.063832634013    12.000000000000
         H            1.985752413583    -0.650800809897    -0.872676534013     1.007825032230
         H            2.130372413583     0.893219190103     0.021819465987     1.007825032230
         H            1.977980413583    -0.647592809897     0.920310465987     1.007825032230
         H           -1.140270586417    -1.681330809897    -0.827835534013     1.007825032230
         H           -1.147898586417    -1.678633809897     0.851221465987     1.007825032230

  Basis Set: AUG-CC-PVTZ
    Blend: AUG-CC-PVTZ
  Basis Set: (AUG-CC-PVTZ AUX)
    Blend: AUG-CC-PVTZ-JKFIT
	 Reference Energy          =    -642.5464475049697057 [Eh]
	 Singles Energy            =      -0.0000000000000000 [Eh]
	 Same-Spin Energy          =      -0.3004695524853686 [Eh]
	 Opposite-Spin Energy      =      -0.8925058668118662 [Eh]
	 Correlation Energy        =      -1.1929754192972348 [Eh]
	 Total Energy              =    -643.7394229242669326 [Eh]

	 ================> DF-SCS-MP2 Energies <==================
	-----------------------------------------------------------
	 SCS Same-Spin Scale       =       0.3333333333333333 [-]
	 SCS Opposite-Spin Scale   =       1.2000000000000000 [-]
	 SCS Same-Spin Energy      =      -0.1001565174951228 [Eh]
	 SCS Opposite-Spin Energy  =      -1.0710070401742393 [Eh]
	 SCS Correlation Energy    =      -1.1711635576693622 [Eh]
	 SCS Total Energy          =    -643.7176110626390937 [Eh]
	-----------------------------------------------------------

  Dipole Moment: [D]
     X:     1.2961      Y:    -3.1374      Z:     0.0884     Total:     3.3958

*** Psi4 exiting successfully. Buy a developer a beer!
