                               Psi4 1.3.2 release

  ==> Input File <==

--------------------------------------------------------------------------
#psi4
#
memory 32 gb

molecule  {
0 1
  S       -0.0598420     0.1064250    -0.0004010
  O       -0.4487500     0.7022520     1.2774130
  O       -0.4685171     0.6310815    -1.3030789
  N       -0.6201544    -1.4749458    -0.0811308
  C        1.7021800    -0.0997450     0.0075480
  H        1.9984920    -0.6462440    -0.8867680
  H        2.1431120     0.8977760     0.0077280
  H        1.9907200    -0.6430360     0.9062190
  H       -1.1275310    -1.6767740    -0.8419270
  H       -1.1351590    -1.6740770     0.8371300
units angstrom
no_reorient  #important for SAPT in psi4, default
symmetry c1  #important for SAPT in psi4, default
}

set PROPERTIES_ORIGIN ["COM"]
properties('MP2/aug-cc-pvtz', properties = ['dipole'])
--------------------------------------------------------------------------

    Molecular point group: c1
  Charge       = 0
  Multiplicity = 1
  Basis Set: AUG-CC-PVTZ
    Blend: AUG-CC-PVTZ
  Basis Set: (AUG-CC-PVTZ AUX)
    Blend: AUG-CC-PVTZ-JKFIT

    Orbital Energies [Eh]
    ---------------------

    Doubly Occupied:

       1A    -92.210046     2A    -20.561203     3A    -20.548933
       4A    -15.601884     5A    -11.281706     6A     -9.175663
       7A     -6.860964     8A     -6.859933     9A     -6.859787
      10A     -1.459252    11A     -1.344811    12A     -1.218906
      13A     -1.047199    14A     -0.850364    15A     -0.733142
      16A     -0.704545    17A     -0.679127    18A     -0.649747
      19A     -0.608052    20A     -0.602695    21A     -0.533611
      22A     -0.503923    23A     -0.480213    24A     -0.478323
      25A     -0.455438

  @DF-RHF Final Energy:  -642.54640464139231

   => Energetics <=

    Nuclear Repulsion Energy =            277.2378380801536082
    One-Electron Energy =               -1434.9495567284579920
    Two-Electron Energy =                 515.1653140069121264
    Total Energy =                       -642.5464046413923143
  Basis Set: (AUG-CC-PVTZ AUX)
    Blend: AUG-CC-PVTZ-RI
    Molecular point group: c1

    Geometry (in Angstrom), charge = 0, multiplicity = 1:

       Center              X                  Y                   Z               Mass
    ------------   -----------------  -----------------  -----------------  -----------------
         S           -0.049917422199     0.115826395053     0.014822470804    31.972071174400
         O           -0.438825422199     0.711653395053     1.292636470804    15.994914619570
         O           -0.458592522199     0.640482895053    -1.287855429196    15.994914619570
         N           -0.610229822199    -1.465544404947    -0.065907329196    14.003074004430
         C            1.712104577801    -0.090343604947     0.022771470804    12.000000000000
         H            2.008416577801    -0.636842604947    -0.871544529196     1.007825032230
         H            2.153036577801     0.907177395053     0.022951470804     1.007825032230
         H            2.000644577801    -0.633634604947     0.921442470804     1.007825032230
         H           -1.117606422199    -1.667372604947    -0.826703529196     1.007825032230
         H           -1.125234422199    -1.664675604947     0.852353470804     1.007825032230

  Basis Set: AUG-CC-PVTZ
    Blend: AUG-CC-PVTZ
  Basis Set: (AUG-CC-PVTZ AUX)
    Blend: AUG-CC-PVTZ-JKFIT
	 Reference Energy          =    -642.5464046413923143 [Eh]
	 Singles Energy            =      -0.0000000000000000 [Eh]
	 Same-Spin Energy          =      -0.3001759078284492 [Eh]
	 Opposite-Spin Energy      =      -0.8916806454600781 [Eh]
	 Correlation Energy        =      -1.1918565532885272 [Eh]
	 Total Energy              =    -643.7382611946808311 [Eh]

	 ================> DF-SCS-MP2 Energies <==================
	-----------------------------------------------------------
	 SCS Same-Spin Scale       =       0.3333333333333333 [-]
	 SCS Opposite-Spin Scale   =       1.2000000000000000 [-]
	 SCS Same-Spin Energy      =      -0.1000586359428164 [Eh]
	 SCS Opposite-Spin Energy  =      -1.0700167745520937 [Eh]
	 SCS Correlation Energy    =      -1.1700754104949100 [Eh]
	 SCS Total Energy          =    -643.7164800518871743 [Eh]
	-----------------------------------------------------------

  Dipole Moment: [D]
     X:     1.7340      Y:    -2.9477      Z:     0.2602     Total:     3.4298

*** Psi4 exiting successfully. Buy a developer a beer!
