                               Psi4 1.3.2 release

  ==> Input File <==

--------------------------------------------------------------------------
#psi4
#
memory 32 gb

molecule  {
0 1
  S       -0.0598420     0.1064250    -0.0004010
  O       -0.4540274     0.6911698     1.2809105
  O       -0.4374810     0.6982890    -1.2834970
  N       -0.5938055    -1.4860254     0.0132240
  C        1.7021800    -0.0997450     0.0075480
  H        1.9984920    -0.6462440    -0.8867680
  H        2.1431120     0.8977760     0.0077280
  H        1.9907200    -0.6430360     0.9062190
  H       -1.1275310    -1.6767740    -0.8419270
  H       -1.1351590    -1.6740770     0.8371300
units angstrom
no_reorient  #important for SAPT in psi4, default
symmetry c1  #important for SAPT in psi4, default
}

set PROPERTIES_ORIGIN ["COM"]
properties('MP2/aug-cc-pvtz', properties = ['dipole'])
--------------------------------------------------------------------------

    Molecular point group: c1
  Charge       = 0
  Multiplicity = 1
  Basis Set: AUG-CC-PVTZ
    Blend: AUG-CC-PVTZ
  Basis Set: (AUG-CC-PVTZ AUX)
    Blend: AUG-CC-PVTZ-JKFIT

    Orbital Energies [Eh]
    ---------------------

    Doubly Occupied:

       1A    -92.209084     2A    -20.555543     3A    -20.553567
       4A    -15.609433     5A    -11.279021     6A     -9.174912
       7A     -6.860132     8A     -6.859141     9A     -6.859115
      10A     -1.458652    11A     -1.342886    12A     -1.220759
      13A     -1.044501    14A     -0.845993    15A     -0.725882
      16A     -0.709580    17A     -0.678561    18A     -0.648385
      19A     -0.605330    20A     -0.602211    21A     -0.537347
      22A     -0.502064    23A     -0.479470    24A     -0.477931
      25A     -0.459728

  @DF-RHF Final Energy:  -642.55710515050919

   => Energetics <=

    Nuclear Repulsion Energy =            277.0256980921071204
    One-Electron Energy =               -1434.5671504304800692
    Two-Electron Energy =                 514.9843471878637047
    Total Energy =                       -642.5571051505091873
  Basis Set: (AUG-CC-PVTZ AUX)
    Blend: AUG-CC-PVTZ-RI
    Molecular point group: c1

    Geometry (in Angstrom), charge = 0, multiplicity = 1:

       Center              X                  Y                   Z               Mass
    ------------   -----------------  -----------------  -----------------  -----------------
         S           -0.058137844342     0.108010196320    -0.002970553781    31.972071174400
         O           -0.452323244342     0.692754996320     1.278340946219    15.994914619570
         O           -0.435776844342     0.699874196320    -1.286066553781    15.994914619570
         N           -0.592101344342    -1.484440203680     0.010654446219    14.003074004430
         C            1.703884155658    -0.098159803680     0.004978446219    12.000000000000
         H            2.000196155658    -0.644658803680    -0.889337553781     1.007825032230
         H            2.144816155658     0.899361196320     0.005158446219     1.007825032230
         H            1.992424155658    -0.641450803680     0.903649446219     1.007825032230
         H           -1.125826844342    -1.675188803680    -0.844496553781     1.007825032230
         H           -1.133454844342    -1.672491803680     0.834560446219     1.007825032230

  Basis Set: AUG-CC-PVTZ
    Blend: AUG-CC-PVTZ
  Basis Set: (AUG-CC-PVTZ AUX)
    Blend: AUG-CC-PVTZ-JKFIT
	 Reference Energy          =    -642.5571051505091873 [Eh]
	 Singles Energy            =      -0.0000000000000000 [Eh]
	 Same-Spin Energy          =      -0.3001353966342571 [Eh]
	 Opposite-Spin Energy      =      -0.8915675032651641 [Eh]
	 Correlation Energy        =      -1.1917028998994212 [Eh]
	 Total Energy              =    -643.7488080504085701 [Eh]

	 ================> DF-SCS-MP2 Energies <==================
	-----------------------------------------------------------
	 SCS Same-Spin Scale       =       0.3333333333333333 [-]
	 SCS Opposite-Spin Scale   =       1.2000000000000000 [-]
	 SCS Same-Spin Energy      =      -0.1000451322114190 [Eh]
	 SCS Opposite-Spin Energy  =      -1.0698810039181970 [Eh]
	 SCS Correlation Energy    =      -1.1699261361296160 [Eh]
	 SCS Total Energy          =    -643.7270312866387485 [Eh]
	-----------------------------------------------------------

  Dipole Moment: [D]
     X:     1.5724      Y:    -3.0897      Z:    -0.0296     Total:     3.4669

*** Psi4 exiting successfully. Buy a developer a beer!
