                               Psi4 1.4a3.dev225

  ==> Input File <==

--------------------------------------------------------------------------
#psi4
#
memory 32 gb

molecule  {
0 1
  S        0.0496630    -0.1768790     0.0000010
  O        0.1614460    -0.8614300     1.2843790
  O        0.1614460    -0.8614400    -1.2843720
  N        1.2328540     0.9913630    -0.0000040
  C       -1.5173820     0.6822410    -0.0000030
  H       -1.5963900     1.2940100    -0.8996310
  H       -2.3012170    -0.0772020     0.0000010
  H       -1.5963900     1.2940180     0.8996200
  H        1.2922045     1.5078574    -0.8136152
  H        1.2952780     1.5346110     0.8557360
units angstrom
no_reorient  #important for SAPT in psi4, default
symmetry c1  #important for SAPT in psi4, default
}

set PROPERTIES_ORIGIN ["COM"]
properties('MP2/aug-cc-pvtz', properties = ['dipole'])
--------------------------------------------------------------------------

    Molecular point group: c1
  Charge       = 0
  Multiplicity = 1
  Basis Set: AUG-CC-PVTZ
    Blend: AUG-CC-PVTZ
  Basis Set: (AUG-CC-PVTZ AUX)
    Blend: AUG-CC-PVTZ-JKFIT

    Orbital Energies [Eh]
    ---------------------

    Doubly Occupied:

       1A    -92.210192     2A    -20.551983     3A    -20.551578
       4A    -15.608026     5A    -11.283384     6A     -9.175117
       7A     -6.860524     8A     -6.859547     9A     -6.859396
      10A     -1.458049    11A     -1.341659    12A     -1.230077
      13A     -1.042103    14A     -0.854085    15A     -0.743444
      16A     -0.722131    17A     -0.675143    18A     -0.649075
      19A     -0.612979    20A     -0.605383    21A     -0.514172
      22A     -0.501006    23A     -0.482662    24A     -0.476669
      25A     -0.462321

  @DF-RHF Final Energy:  -642.55387197529205

   => Energetics <=

    Nuclear Repulsion Energy =            277.3629365286394091
    One-Electron Energy =               -1435.1722043063846286
    Two-Electron Energy =                 515.2553958024531084
    Total Energy =                       -642.5538719752920542
  Basis Set: (AUG-CC-PVTZ AUX)
    Blend: AUG-CC-PVTZ-RI
    Molecular point group: c1

    Geometry (in Angstrom), charge = 0, multiplicity = 1:

       Center              X                  Y                   Z               Mass
    ------------   -----------------  -----------------  -----------------  -----------------
         S            0.019365752999    -0.118496509239    -0.000446267462    31.972071174400
         O            0.131148752999    -0.803047509239     1.283931732538    15.994914619570
         O            0.131148752999    -0.803057509239    -1.284819267462    15.994914619570
         N            1.202556752999     1.049745490761    -0.000451267462    14.003074004430
         C           -1.547679247001     0.740623490761    -0.000450267462    12.000000000000
         H           -1.626687247001     1.352392490761    -0.900078267462     1.007825032230
         H           -2.331514247001    -0.018819509239    -0.000446267462     1.007825032230
         H           -1.626687247001     1.352400490761     0.899172732538     1.007825032230
         H            1.261907252999     1.566239890761    -0.814062467462     1.007825032230
         H            1.264980752999     1.592993490761     0.855288732538     1.007825032230

  Basis Set: AUG-CC-PVTZ
    Blend: AUG-CC-PVTZ
  Basis Set: (AUG-CC-PVTZ AUX)
    Blend: AUG-CC-PVTZ-JKFIT
	 Reference Energy          =    -642.5538719752920542 [Eh]
	 Singles Energy            =      -0.0000000000000000 [Eh]
	 Same-Spin Energy          =      -0.2998246078857304 [Eh]
	 Opposite-Spin Energy      =      -0.8906866952133424 [Eh]
	 Correlation Energy        =      -1.1905113030990728 [Eh]
	 Total Energy              =    -643.7443832783911830 [Eh]

	 ================> DF-SCS-MP2 Energies <==================
	-----------------------------------------------------------
	 SCS Same-Spin Scale       =       0.3333333333333333 [-]
	 SCS Opposite-Spin Scale   =       1.2000000000000000 [-]
	 SCS Same-Spin Energy      =      -0.0999415359619101 [Eh]
	 SCS Opposite-Spin Energy  =      -1.0688240342560109 [Eh]
	 SCS Correlation Energy    =      -1.1687655702179209 [Eh]
	 SCS Total Energy          =    -643.7226375455099969 [Eh]
	-----------------------------------------------------------

  Dipole Moment: [D]
     X:    -1.4938      Y:     4.9946      Z:     0.0372     Total:     5.2134

*** Psi4 exiting successfully. Buy a developer a beer!
