                               Psi4 1.4a3.dev225

  ==> Input File <==

--------------------------------------------------------------------------
#psi4
#
memory 32 gb

molecule  {
0 1
  S        0.0496630    -0.1768790     0.0000010
  O        0.1614460    -0.8614300     1.2843790
  O        0.1614460    -0.8614400    -1.2843720
  N        1.2684334     1.0264929    -0.0000042
  C       -1.5173820     0.6822410    -0.0000030
  H       -1.5963900     1.2940100    -0.8996310
  H       -2.3012170    -0.0772020     0.0000010
  H       -1.5963900     1.2940180     0.8996200
  H        1.2952780     1.5346040    -0.8557480
  H        1.2952780     1.5346110     0.8557360
units angstrom
no_reorient  #important for SAPT in psi4, default
symmetry c1  #important for SAPT in psi4, default
}

set PROPERTIES_ORIGIN ["COM"]
properties('MP2/aug-cc-pvtz', properties = ['dipole'])
--------------------------------------------------------------------------

    Molecular point group: c1
  Charge       = 0
  Multiplicity = 1
  Basis Set: AUG-CC-PVTZ
    Blend: AUG-CC-PVTZ
  Basis Set: (AUG-CC-PVTZ AUX)
    Blend: AUG-CC-PVTZ-JKFIT

    Orbital Energies [Eh]
    ---------------------

    Doubly Occupied:

       1A    -92.211897     2A    -20.554555     3A    -20.554535
       4A    -15.609455     5A    -11.285745     6A     -9.176583
       7A     -6.861809     8A     -6.860996     9A     -6.860815
      10A     -1.456834    11A     -1.343386    12A     -1.216613
      13A     -1.043724    14A     -0.847139    15A     -0.740800
      16A     -0.715668    17A     -0.674545    18A     -0.651765
      19A     -0.612921    20A     -0.607238    21A     -0.512014
      22A     -0.502938    23A     -0.481214    24A     -0.479005
      25A     -0.460585

  @DF-RHF Final Energy:  -642.55154251376769

   => Energetics <=

    Nuclear Repulsion Energy =            275.6347638175836892
    One-Electron Energy =               -1431.7270596455930445
    Two-Electron Energy =                 513.5407533142416696
    Total Energy =                       -642.5515425137676857
  Basis Set: (AUG-CC-PVTZ AUX)
    Blend: AUG-CC-PVTZ-RI
    Molecular point group: c1

    Geometry (in Angstrom), charge = 0, multiplicity = 1:

       Center              X                  Y                   Z               Mass
    ------------   -----------------  -----------------  -----------------  -----------------
         S            0.014088943643    -0.123958194416     0.000000716313    31.972071174400
         O            0.125871943643    -0.808509194416     1.284378716313    15.994914619570
         O            0.125871943643    -0.808519194416    -1.284372283687    15.994914619570
         N            1.232859343643     1.079413705584    -0.000004483687    14.003074004430
         C           -1.552956056357     0.735161805584    -0.000003283687    12.000000000000
         H           -1.631964056357     1.346930805584    -0.899631283687     1.007825032230
         H           -2.336791056357    -0.024281194416     0.000000716313     1.007825032230
         H           -1.631964056357     1.346938805584     0.899619716313     1.007825032230
         H            1.259703943643     1.587524805584    -0.855748283687     1.007825032230
         H            1.259703943643     1.587531805584     0.855735716313     1.007825032230

  Basis Set: AUG-CC-PVTZ
    Blend: AUG-CC-PVTZ
  Basis Set: (AUG-CC-PVTZ AUX)
    Blend: AUG-CC-PVTZ-JKFIT
	 Reference Energy          =    -642.5515425137676857 [Eh]
	 Singles Energy            =      -0.0000000000000000 [Eh]
	 Same-Spin Energy          =      -0.3000797364550731 [Eh]
	 Opposite-Spin Energy      =      -0.8920676719012046 [Eh]
	 Correlation Energy        =      -1.1921474083562777 [Eh]
	 Total Energy              =    -643.7436899221239628 [Eh]

	 ================> DF-SCS-MP2 Energies <==================
	-----------------------------------------------------------
	 SCS Same-Spin Scale       =       0.3333333333333333 [-]
	 SCS Opposite-Spin Scale   =       1.2000000000000000 [-]
	 SCS Same-Spin Energy      =      -0.1000265788183577 [Eh]
	 SCS Opposite-Spin Energy  =      -1.0704812062814455 [Eh]
	 SCS Correlation Energy    =      -1.1705077850998031 [Eh]
	 SCS Total Energy          =    -643.7220502988675435 [Eh]
	-----------------------------------------------------------

  Dipole Moment: [D]
     X:    -1.7015      Y:     4.8396      Z:    -0.0000     Total:     5.1300

*** Psi4 exiting successfully. Buy a developer a beer!
