                               Psi4 1.3.2 release

  ==> Input File <==

--------------------------------------------------------------------------
#psi4
#
memory 32 gb

molecule  {
0 1
  S       -0.0598420     0.1064250    -0.0004010
  O       -0.4487500     0.7022520     1.2774130
  O       -0.4374810     0.6982890    -1.2834970
  N       -0.5323065    -1.5053994     0.0000554
  C        1.6939110    -0.1611136     0.0076075
  H        1.9984920    -0.6462440    -0.8867680
  H        2.1431120     0.8977760     0.0077280
  H        1.9907200    -0.6430360     0.9062190
  H       -1.1275310    -1.6767740    -0.8419270
  H       -1.1351590    -1.6740770     0.8371300
units angstrom
no_reorient  #important for SAPT in psi4, default
symmetry c1  #important for SAPT in psi4, default
}

set PROPERTIES_ORIGIN ["COM"]
properties('MP2/aug-cc-pvtz', properties = ['dipole'])
--------------------------------------------------------------------------

    Molecular point group: c1
  Charge       = 0
  Multiplicity = 1
  Basis Set: AUG-CC-PVTZ
    Blend: AUG-CC-PVTZ
  Basis Set: (AUG-CC-PVTZ AUX)
    Blend: AUG-CC-PVTZ-JKFIT

    Orbital Energies [Eh]
    ---------------------

    Doubly Occupied:

       1A    -92.208909     2A    -20.557512     3A    -20.557487
       4A    -15.615929     5A    -11.277102     6A     -9.175044
       7A     -6.860277     8A     -6.859245     9A     -6.859188
      10A     -1.460085    11A     -1.344598    12A     -1.218048
      13A     -1.042376    14A     -0.842857    15A     -0.711149
      16A     -0.707324    17A     -0.680023    18A     -0.651183
      19A     -0.610654    20A     -0.586444    21A     -0.540833
      22A     -0.503485    23A     -0.480312    24A     -0.479354
      25A     -0.462611

  @DF-RHF Final Energy:  -642.54874967152170

   => Energetics <=

    Nuclear Repulsion Energy =            276.9089824358009082
    One-Electron Energy =               -1434.3314010275121291
    Two-Electron Energy =                 514.8736689201895160
    Total Energy =                       -642.5487496715217048
  Basis Set: (AUG-CC-PVTZ AUX)
    Blend: AUG-CC-PVTZ-RI
    Molecular point group: c1

    Geometry (in Angstrom), charge = 0, multiplicity = 1:

       Center              X                  Y                   Z               Mass
    ------------   -----------------  -----------------  -----------------  -----------------
         S           -0.067046497909     0.116751502396    -0.000448251109    31.972071174400
         O           -0.455954497909     0.712578502396     1.277365748891    15.994914619570
         O           -0.444685497909     0.708615502396    -1.283544251109    15.994914619570
         N           -0.539510997909    -1.495072897604     0.000008148891    14.003074004430
         C            1.686706502091    -0.150787097604     0.007560248891    12.000000000000
         H            1.991287502091    -0.635917497604    -0.886815251109     1.007825032230
         H            2.135907502091     0.908102502396     0.007680748891     1.007825032230
         H            1.983515502091    -0.632709497604     0.906171748891     1.007825032230
         H           -1.134735497909    -1.666447497604    -0.841974251109     1.007825032230
         H           -1.142363497909    -1.663750497604     0.837082748891     1.007825032230

  Basis Set: AUG-CC-PVTZ
    Blend: AUG-CC-PVTZ
  Basis Set: (AUG-CC-PVTZ AUX)
    Blend: AUG-CC-PVTZ-JKFIT
	 Reference Energy          =    -642.5487496715217048 [Eh]
	 Singles Energy            =      -0.0000000000000000 [Eh]
	 Same-Spin Energy          =      -0.3008829340086039 [Eh]
	 Opposite-Spin Energy      =      -0.8934618854153646 [Eh]
	 Correlation Energy        =      -1.1943448194239685 [Eh]
	 Total Energy              =    -643.7430944909456230 [Eh]

	 ================> DF-SCS-MP2 Energies <==================
	-----------------------------------------------------------
	 SCS Same-Spin Scale       =       0.3333333333333333 [-]
	 SCS Opposite-Spin Scale   =       1.2000000000000000 [-]
	 SCS Same-Spin Energy      =      -0.1002943113362013 [Eh]
	 SCS Opposite-Spin Energy  =      -1.0721542624984375 [Eh]
	 SCS Correlation Energy    =      -1.1724485738346389 [Eh]
	 SCS Total Energy          =    -643.7211982453563905 [Eh]
	-----------------------------------------------------------

  Dipole Moment: [D]
     X:     1.4067      Y:    -3.0358      Z:     0.0110     Total:     3.3459

*** Psi4 exiting successfully. Buy a developer a beer!
