                               Psi4 1.4a3.dev225

  ==> Input File <==

--------------------------------------------------------------------------
#psi4
#
memory 32 gb

molecule  {
0 1
  S        0.0496630    -0.1768790     0.0000010
  O        0.1614460    -0.8614300     1.2843790
  O        0.1614460    -0.8614400    -1.2843720
  N        1.2328540     0.9913630    -0.0000040
  C       -1.4998447     0.6726263    -0.0000030
  H       -1.5963900     1.2940100    -0.8996310
  H       -2.3012170    -0.0772020     0.0000010
  H       -1.5963900     1.2940180     0.8996200
  H        1.2952780     1.5346040    -0.8557480
  H        1.2952780     1.5346110     0.8557360
units angstrom
no_reorient  #important for SAPT in psi4, default
symmetry c1  #important for SAPT in psi4, default
}

set PROPERTIES_ORIGIN ["COM"]
properties('MP2/aug-cc-pvtz', properties = ['dipole'])
--------------------------------------------------------------------------

    Molecular point group: c1
  Charge       = 0
  Multiplicity = 1
  Basis Set: AUG-CC-PVTZ
    Blend: AUG-CC-PVTZ
  Basis Set: (AUG-CC-PVTZ AUX)
    Blend: AUG-CC-PVTZ-JKFIT

    Orbital Energies [Eh]
    ---------------------

    Doubly Occupied:

       1A    -92.209991     2A    -20.551365     3A    -20.551346
       4A    -15.612410     5A    -11.283394     6A     -9.175065
       7A     -6.860477     8A     -6.859544     9A     -6.859339
      10A     -1.458074    11A     -1.341443    12A     -1.222224
      13A     -1.043445    14A     -0.850229    15A     -0.732837
      16A     -0.722328    17A     -0.675983    18A     -0.647218
      19A     -0.609583    20A     -0.602436    21A     -0.513915
      22A     -0.500141    23A     -0.481053    24A     -0.475971
      25A     -0.464709

  @DF-RHF Final Energy:  -642.55397657328399

   => Energetics <=

    Nuclear Repulsion Energy =            277.5197054364731457
    One-Electron Energy =               -1435.5383239220577707
    Two-Electron Energy =                 515.4646419123007490
    Total Energy =                       -642.5539765732839896
  Basis Set: (AUG-CC-PVTZ AUX)
    Blend: AUG-CC-PVTZ-RI
    Molecular point group: c1

    Geometry (in Angstrom), charge = 0, multiplicity = 1:

       Center              X                  Y                   Z               Mass
    ------------   -----------------  -----------------  -----------------  -----------------
         S            0.017118006310    -0.117565807223     0.000000686834    31.972071174400
         O            0.128901006310    -0.802116807223     1.284378686834    15.994914619570
         O            0.128901006310    -0.802126807223    -1.284372313166    15.994914619570
         N            1.200309006310     1.050676192777    -0.000004313166    14.003074004430
         C           -1.532389693690     0.731939492777    -0.000003313166    12.000000000000
         H           -1.628934993690     1.353323192777    -0.899631313166     1.007825032230
         H           -2.333761993690    -0.017888807223     0.000000686834     1.007825032230
         H           -1.628934993690     1.353331192777     0.899619686834     1.007825032230
         H            1.262733006310     1.593917192777    -0.855748313166     1.007825032230
         H            1.262733006310     1.593924192777     0.855735686834     1.007825032230

  Basis Set: AUG-CC-PVTZ
    Blend: AUG-CC-PVTZ
  Basis Set: (AUG-CC-PVTZ AUX)
    Blend: AUG-CC-PVTZ-JKFIT
	 Reference Energy          =    -642.5539765732839896 [Eh]
	 Singles Energy            =      -0.0000000000000000 [Eh]
	 Same-Spin Energy          =      -0.3002073206069768 [Eh]
	 Opposite-Spin Energy      =      -0.8913837699479750 [Eh]
	 Correlation Energy        =      -1.1915910905549518 [Eh]
	 Total Energy              =    -643.7455676638389832 [Eh]

	 ================> DF-SCS-MP2 Energies <==================
	-----------------------------------------------------------
	 SCS Same-Spin Scale       =       0.3333333333333333 [-]
	 SCS Opposite-Spin Scale   =       1.2000000000000000 [-]
	 SCS Same-Spin Energy      =      -0.1000691068689923 [Eh]
	 SCS Opposite-Spin Energy  =      -1.0696605239375698 [Eh]
	 SCS Correlation Energy    =      -1.1697296308065621 [Eh]
	 SCS Total Energy          =    -643.7237062040906039 [Eh]
	-----------------------------------------------------------

  Dipole Moment: [D]
     X:    -1.5087      Y:     5.0302      Z:    -0.0000     Total:     5.2516

*** Psi4 exiting successfully. Buy a developer a beer!
