                               Psi4 1.3.2 release

  ==> Input File <==

--------------------------------------------------------------------------
#psi4
#
memory 32 gb

molecule  {
0 1
  S       -0.0730976     0.1105459    -0.0262210
  O       -0.4487500     0.7022520     1.2774130
  O       -0.4374810     0.6982890    -1.2834970
  N       -0.5882700    -1.4879290    -0.0002140
  C        1.7021800    -0.0997450     0.0075480
  H        1.9984920    -0.6462440    -0.8867680
  H        2.1431120     0.8977760     0.0077280
  H        1.9907200    -0.6430360     0.9062190
  H       -1.1249378    -1.6600075    -0.8471628
  H       -1.1351590    -1.6740770     0.8371300
units angstrom
no_reorient  #important for SAPT in psi4, default
symmetry c1  #important for SAPT in psi4, default
}

set PROPERTIES_ORIGIN ["COM"]
properties('MP2/aug-cc-pvtz', properties = ['dipole'])
--------------------------------------------------------------------------

    Molecular point group: c1
  Charge       = 0
  Multiplicity = 1
  Basis Set: AUG-CC-PVTZ
    Blend: AUG-CC-PVTZ
  Basis Set: (AUG-CC-PVTZ AUX)
    Blend: AUG-CC-PVTZ-JKFIT

    Orbital Energies [Eh]
    ---------------------

    Doubly Occupied:

       1A    -92.208130     2A    -20.561339     3A    -20.549775
       4A    -15.611426     5A    -11.276750     6A     -9.174150
       7A     -6.859355     8A     -6.858511     9A     -6.858251
      10A     -1.464864    11A     -1.344408    12A     -1.222185
      13A     -1.038513    14A     -0.844770    15A     -0.726785
      16A     -0.709115    17A     -0.679893    18A     -0.647732
      19A     -0.604019    20A     -0.601386    21A     -0.540150
      22A     -0.505069    23A     -0.480682    24A     -0.476038
      25A     -0.459533

  @DF-RHF Final Energy:  -642.55633072924945

   => Energetics <=

    Nuclear Repulsion Energy =            277.1100520871141271
    One-Electron Energy =               -1434.7271001062640607
    Two-Electron Energy =                 515.0607172899004809
    Total Energy =                       -642.5563307292494528
  Basis Set: (AUG-CC-PVTZ AUX)
    Blend: AUG-CC-PVTZ-RI
    Molecular point group: c1

    Geometry (in Angstrom), charge = 0, multiplicity = 1:

       Center              X                  Y                   Z               Mass
    ------------   -----------------  -----------------  -----------------  -----------------
         S           -0.068664405097     0.108981190169    -0.017476187610    31.972071174400
         O           -0.444316805097     0.700687290169     1.286157812390    15.994914619570
         O           -0.433047805097     0.696724290169    -1.274752187610    15.994914619570
         N           -0.583836805097    -1.489493709831     0.008530812390    14.003074004430
         C            1.706613194903    -0.101309709831     0.016292812390    12.000000000000
         H            2.002925194903    -0.647808709831    -0.878023187610     1.007825032230
         H            2.147545194903     0.896211290169     0.016472812390     1.007825032230
         H            1.995153194903    -0.644600709831     0.914963812390     1.007825032230
         H           -1.120504605097    -1.661572209831    -0.838417987610     1.007825032230
         H           -1.130725805097    -1.675641709831     0.845874812390     1.007825032230

  Basis Set: AUG-CC-PVTZ
    Blend: AUG-CC-PVTZ
  Basis Set: (AUG-CC-PVTZ AUX)
    Blend: AUG-CC-PVTZ-JKFIT
	 Reference Energy          =    -642.5563307292494528 [Eh]
	 Singles Energy            =      -0.0000000000000000 [Eh]
	 Same-Spin Energy          =      -0.2999674422872552 [Eh]
	 Opposite-Spin Energy      =      -0.8914121198672098 [Eh]
	 Correlation Energy        =      -1.1913795621544649 [Eh]
	 Total Energy              =    -643.7477102914039051 [Eh]

	 ================> DF-SCS-MP2 Energies <==================
	-----------------------------------------------------------
	 SCS Same-Spin Scale       =       0.3333333333333333 [-]
	 SCS Opposite-Spin Scale   =       1.2000000000000000 [-]
	 SCS Same-Spin Energy      =      -0.0999891474290851 [Eh]
	 SCS Opposite-Spin Energy  =      -1.0696945438406518 [Eh]
	 SCS Correlation Energy    =      -1.1696836912697368 [Eh]
	 SCS Total Energy          =    -643.7260144205191637 [Eh]
	-----------------------------------------------------------

  Dipole Moment: [D]
     X:     1.4286      Y:    -3.0713      Z:    -0.2400     Total:     3.3958

*** Psi4 exiting successfully. Buy a developer a beer!
