                               Psi4 1.3.2 release

  ==> Input File <==

--------------------------------------------------------------------------
#psi4
#
memory 32 gb

molecule  {
0 1
  S       -0.0598420     0.1064250    -0.0004010
  O       -0.4487500     0.7022520     1.2774130
  O       -0.4479456     0.6760578    -1.2904179
  N       -0.5990635    -1.4840853    -0.0271972
  C        1.7021800    -0.0997450     0.0075480
  H        1.9984920    -0.6462440    -0.8867680
  H        2.1431120     0.8977760     0.0077280
  H        1.9907200    -0.6430360     0.9062190
  H       -1.1275310    -1.6767740    -0.8419270
  H       -1.1351590    -1.6740770     0.8371300
units angstrom
no_reorient  #important for SAPT in psi4, default
symmetry c1  #important for SAPT in psi4, default
}

set PROPERTIES_ORIGIN ["COM"]
properties('MP2/aug-cc-pvtz', properties = ['dipole'])
--------------------------------------------------------------------------

    Molecular point group: c1
  Charge       = 0
  Multiplicity = 1
  Basis Set: AUG-CC-PVTZ
    Blend: AUG-CC-PVTZ
  Basis Set: (AUG-CC-PVTZ AUX)
    Blend: AUG-CC-PVTZ-JKFIT

    Orbital Energies [Eh]
    ---------------------

    Doubly Occupied:

       1A    -92.209227     2A    -20.556664     3A    -20.552644
       4A    -15.607960     5A    -11.279527     6A     -9.175016
       7A     -6.860248     8A     -6.859254     9A     -6.859208
      10A     -1.458729    11A     -1.343234    12A     -1.220299
      13A     -1.044977    14A     -0.846425    15A     -0.727141
      16A     -0.709116    17A     -0.678650    18A     -0.648764
      19A     -0.605763    20A     -0.602419    21A     -0.536588
      22A     -0.502387    23A     -0.479517    24A     -0.478139
      25A     -0.459059

  @DF-RHF Final Energy:  -642.55634048383570

   => Energetics <=

    Nuclear Repulsion Energy =            277.0601295852281396
    One-Electron Energy =               -1434.6310280866011908
    Two-Electron Energy =                 515.0145580175372970
    Total Energy =                       -642.5563404838356973
  Basis Set: (AUG-CC-PVTZ AUX)
    Blend: AUG-CC-PVTZ-RI
    Molecular point group: c1

    Geometry (in Angstrom), charge = 0, multiplicity = 1:

       Center              X                  Y                   Z               Mass
    ------------   -----------------  -----------------  -----------------  -----------------
         S           -0.056489526165     0.109601284914     0.004741349986    31.972071174400
         O           -0.445397526165     0.705428284914     1.282555349986    15.994914619570
         O           -0.444593126165     0.679234084914    -1.285275550014    15.994914619570
         N           -0.595711026165    -1.480909015086    -0.022054850014    14.003074004430
         C            1.705532473835    -0.096568715086     0.012690349986    12.000000000000
         H            2.001844473835    -0.643067715086    -0.881625650014     1.007825032230
         H            2.146464473835     0.900952284914     0.012870349986     1.007825032230
         H            1.994072473835    -0.639859715086     0.911361349986     1.007825032230
         H           -1.124178526165    -1.673597715086    -0.836784650014     1.007825032230
         H           -1.131806526165    -1.670900715086     0.842272349986     1.007825032230

  Basis Set: AUG-CC-PVTZ
    Blend: AUG-CC-PVTZ
  Basis Set: (AUG-CC-PVTZ AUX)
    Blend: AUG-CC-PVTZ-JKFIT
	 Reference Energy          =    -642.5563404838356973 [Eh]
	 Singles Energy            =      -0.0000000000000000 [Eh]
	 Same-Spin Energy          =      -0.3001200191358737 [Eh]
	 Opposite-Spin Energy      =      -0.8915203254098172 [Eh]
	 Correlation Energy        =      -1.1916403445456909 [Eh]
	 Total Energy              =    -643.7479808283814009 [Eh]

	 ================> DF-SCS-MP2 Energies <==================
	-----------------------------------------------------------
	 SCS Same-Spin Scale       =       0.3333333333333333 [-]
	 SCS Opposite-Spin Scale   =       1.2000000000000000 [-]
	 SCS Same-Spin Energy      =      -0.1000400063786245 [Eh]
	 SCS Opposite-Spin Energy  =      -1.0698243904917806 [Eh]
	 SCS Correlation Energy    =      -1.1698643968704052 [Eh]
	 SCS Total Energy          =    -643.7262048807060637 [Eh]
	-----------------------------------------------------------

  Dipole Moment: [D]
     X:     1.6032      Y:    -3.0635      Z:     0.0946     Total:     3.4589

*** Psi4 exiting successfully. Buy a developer a beer!
