                               Psi4 1.3.2 release

  ==> Input File <==

--------------------------------------------------------------------------
#psi4
#
memory 32 gb

molecule  {
0 1
  S       -0.0598420     0.1064250    -0.0004010
  O       -0.3748985     0.7021652     1.2976363
  O       -0.4374810     0.6982890    -1.2834970
  N       -0.5882700    -1.4879290    -0.0002140
  C        1.7036232    -0.0631985     0.0929223
  H        1.9984920    -0.6462440    -0.8867680
  H        2.1431120     0.8977760     0.0077280
  H        1.9907200    -0.6430360     0.9062190
  H       -1.1275310    -1.6767740    -0.8419270
  H       -1.1351590    -1.6740770     0.8371300
units angstrom
no_reorient  #important for SAPT in psi4, default
symmetry c1  #important for SAPT in psi4, default
}

set PROPERTIES_ORIGIN ["COM"]
properties('MP2/aug-cc-pvtz', properties = ['dipole'])
--------------------------------------------------------------------------

    Molecular point group: c1
  Charge       = 0
  Multiplicity = 1
  Basis Set: AUG-CC-PVTZ
    Blend: AUG-CC-PVTZ
  Basis Set: (AUG-CC-PVTZ AUX)
    Blend: AUG-CC-PVTZ-JKFIT

    Orbital Energies [Eh]
    ---------------------

    Doubly Occupied:

       1A    -92.209676     2A    -20.559881     3A    -20.550792
       4A    -15.614972     5A    -11.275404     6A     -9.175417
       7A     -6.860629     8A     -6.859809     9A     -6.859474
      10A     -1.459178    11A     -1.344802    12A     -1.223952
      13A     -1.040398    14A     -0.847405    15A     -0.727422
      16A     -0.712115    17A     -0.679541    18A     -0.647657
      19A     -0.620415    20A     -0.580366    21A     -0.539319
      22A     -0.502905    23A     -0.481624    24A     -0.475873
      25A     -0.458214

  @DF-RHF Final Energy:  -642.54643739073208

   => Energetics <=

    Nuclear Repulsion Energy =            277.0615670649729623
    One-Electron Energy =               -1434.6015274678984497
    Two-Electron Energy =                 514.9935230121934637
    Total Energy =                       -642.5464373907320805
  Basis Set: (AUG-CC-PVTZ AUX)
    Blend: AUG-CC-PVTZ-RI
    Molecular point group: c1

    Geometry (in Angstrom), charge = 0, multiplicity = 1:

       Center              X                  Y                   Z               Mass
    ------------   -----------------  -----------------  -----------------  -----------------
         S           -0.072458199165     0.101823387170    -0.014589484326    31.972071174400
         O           -0.387514699165     0.697563587170     1.283447815674    15.994914619570
         O           -0.450097199165     0.693687387170    -1.297685484326    15.994914619570
         N           -0.600886199165    -1.492530612830    -0.014402484326    14.003074004430
         C            1.691007000835    -0.067800112830     0.078733815674    12.000000000000
         H            1.985875800835    -0.650845612830    -0.900956484326     1.007825032230
         H            2.130495800835     0.893174387170    -0.006460484326     1.007825032230
         H            1.978103800835    -0.647637612830     0.892030515674     1.007825032230
         H           -1.140147199165    -1.681375612830    -0.856115484326     1.007825032230
         H           -1.147775199165    -1.678678612830     0.822941515674     1.007825032230

  Basis Set: AUG-CC-PVTZ
    Blend: AUG-CC-PVTZ
  Basis Set: (AUG-CC-PVTZ AUX)
    Blend: AUG-CC-PVTZ-JKFIT
	 Reference Energy          =    -642.5464373907320805 [Eh]
	 Singles Energy            =      -0.0000000000000000 [Eh]
	 Same-Spin Energy          =      -0.3004692222539828 [Eh]
	 Opposite-Spin Energy      =      -0.8925056266252589 [Eh]
	 Correlation Energy        =      -1.1929748488792415 [Eh]
	 Total Energy              =    -643.7394122396112834 [Eh]

	 ================> DF-SCS-MP2 Energies <==================
	-----------------------------------------------------------
	 SCS Same-Spin Scale       =       0.3333333333333333 [-]
	 SCS Opposite-Spin Scale   =       1.2000000000000000 [-]
	 SCS Same-Spin Energy      =      -0.1001564074179943 [Eh]
	 SCS Opposite-Spin Energy  =      -1.0710067519503106 [Eh]
	 SCS Correlation Energy    =      -1.1711631593683047 [Eh]
	 SCS Total Energy          =    -643.7176005501004283 [Eh]
	-----------------------------------------------------------

  Dipole Moment: [D]
     X:     1.2968      Y:    -3.1377      Z:    -0.0671     Total:     3.3957

*** Psi4 exiting successfully. Buy a developer a beer!
