                               Psi4 1.3.2 release

  ==> Input File <==

--------------------------------------------------------------------------
#psi4
#
memory 32 gb

molecule  {
0 1
  S       -0.0598420     0.1064250    -0.0004010
  O       -0.4487500     0.7022520     1.2774130
  O       -0.4619374     0.6979795    -1.2761879
  N       -0.5882700    -1.4879290    -0.0002140
  C        1.7003785    -0.1117177     0.0360454
  H        1.9984920    -0.6462440    -0.8867680
  H        2.1431120     0.8977760     0.0077280
  H        1.9907200    -0.6430360     0.9062190
  H       -1.1275310    -1.6767740    -0.8419270
  H       -1.1351590    -1.6740770     0.8371300
units angstrom
no_reorient  #important for SAPT in psi4, default
symmetry c1  #important for SAPT in psi4, default
}

set PROPERTIES_ORIGIN ["COM"]
properties('MP2/aug-cc-pvtz', properties = ['dipole'])
--------------------------------------------------------------------------

    Molecular point group: c1
  Charge       = 0
  Multiplicity = 1
  Basis Set: AUG-CC-PVTZ
    Blend: AUG-CC-PVTZ
  Basis Set: (AUG-CC-PVTZ AUX)
    Blend: AUG-CC-PVTZ-JKFIT

    Orbital Energies [Eh]
    ---------------------

    Doubly Occupied:

       1A    -92.208948     2A    -20.555868     3A    -20.552718
       4A    -15.609551     5A    -11.280061     6A     -9.174840
       7A     -6.860054     8A     -6.859107     9A     -6.858997
      10A     -1.458613    11A     -1.341957    12A     -1.220421
      13A     -1.045404    14A     -0.845735    15A     -0.724156
      16A     -0.709765    17A     -0.678870    18A     -0.649419
      19A     -0.608553    20A     -0.597609    21A     -0.537694
      22A     -0.501526    23A     -0.480155    24A     -0.476924
      25A     -0.459942

  @DF-RHF Final Energy:  -642.55607203801435

   => Energetics <=

    Nuclear Repulsion Energy =            276.9939618932950793
    One-Electron Energy =               -1434.5062954365375845
    Two-Electron Energy =                 514.9562615052280989
    Total Energy =                       -642.5560720380143493
  Basis Set: (AUG-CC-PVTZ AUX)
    Blend: AUG-CC-PVTZ-RI
    Molecular point group: c1

    Geometry (in Angstrom), charge = 0, multiplicity = 1:

       Center              X                  Y                   Z               Mass
    ------------   -----------------  -----------------  -----------------  -----------------
         S           -0.055497216701     0.107989357587    -0.005231105789    31.972071174400
         O           -0.444405216701     0.703816357587     1.272582894211    15.994914619570
         O           -0.457592616701     0.699543857587    -1.281018005789    15.994914619570
         N           -0.583925216701    -1.486364642413    -0.005044105789    14.003074004430
         C            1.704723283299    -0.110153342413     0.031215294211    12.000000000000
         H            2.002836783299    -0.644679642413    -0.891598105789     1.007825032230
         H            2.147456783299     0.899340357587     0.002897894211     1.007825032230
         H            1.995064783299    -0.641471642413     0.901388894211     1.007825032230
         H           -1.123186216701    -1.675209642413    -0.846757105789     1.007825032230
         H           -1.130814216701    -1.672512642413     0.832299894211     1.007825032230

  Basis Set: AUG-CC-PVTZ
    Blend: AUG-CC-PVTZ
  Basis Set: (AUG-CC-PVTZ AUX)
    Blend: AUG-CC-PVTZ-JKFIT
	 Reference Energy          =    -642.5560720380143493 [Eh]
	 Singles Energy            =      -0.0000000000000000 [Eh]
	 Same-Spin Energy          =      -0.3001616745658202 [Eh]
	 Opposite-Spin Energy      =      -0.8916415562826076 [Eh]
	 Correlation Energy        =      -1.1918032308484277 [Eh]
	 Total Energy              =    -643.7478752688627992 [Eh]

	 ================> DF-SCS-MP2 Energies <==================
	-----------------------------------------------------------
	 SCS Same-Spin Scale       =       0.3333333333333333 [-]
	 SCS Opposite-Spin Scale   =       1.2000000000000000 [-]
	 SCS Same-Spin Energy      =      -0.1000538915219401 [Eh]
	 SCS Opposite-Spin Energy  =      -1.0699698675391289 [Eh]
	 SCS Correlation Energy    =      -1.1700237590610689 [Eh]
	 SCS Total Energy          =    -643.7260957970754589 [Eh]
	-----------------------------------------------------------

  Dipole Moment: [D]
     X:     1.6124      Y:    -3.1005      Z:    -0.0215     Total:     3.4948

*** Psi4 exiting successfully. Buy a developer a beer!
