                               Psi4 1.3.2 release

  ==> Input File <==

--------------------------------------------------------------------------
#psi4
#
memory 32 gb

molecule  {
0 1
  S       -0.0338176     0.0967277     0.0512313
  O       -0.4487500     0.7022520     1.2774130
  O       -0.4374810     0.6982890    -1.2834970
  N       -0.5882700    -1.4879290    -0.0002140
  C        1.7021800    -0.0997450     0.0075480
  H        1.9984920    -0.6462440    -0.8867680
  H        2.1431120     0.8977760     0.0077280
  H        1.9907200    -0.6430360     0.9062190
  H       -1.1322238    -1.7101294    -0.8306879
  H       -1.1351590    -1.6740770     0.8371300
units angstrom
no_reorient  #important for SAPT in psi4, default
symmetry c1  #important for SAPT in psi4, default
}

set PROPERTIES_ORIGIN ["COM"]
properties('MP2/aug-cc-pvtz', properties = ['dipole'])
--------------------------------------------------------------------------

    Molecular point group: c1
  Charge       = 0
  Multiplicity = 1
  Basis Set: AUG-CC-PVTZ
    Blend: AUG-CC-PVTZ
  Basis Set: (AUG-CC-PVTZ AUX)
    Blend: AUG-CC-PVTZ-JKFIT

    Orbital Energies [Eh]
    ---------------------

    Doubly Occupied:

       1A    -92.209395     2A    -20.563715     3A    -20.540582
       4A    -15.610011     5A    -11.281972     6A     -9.175714
       7A     -6.860886     8A     -6.860077     9A     -6.859626
      10A     -1.461473    11A     -1.326409    12A     -1.218465
      13A     -1.054958    14A     -0.848209    15A     -0.723453
      16A     -0.711608    17A     -0.679823    18A     -0.649797
      19A     -0.609729    20A     -0.599795    21A     -0.537519
      22A     -0.502510    23A     -0.480296    24A     -0.466921
      25A     -0.454097

  @DF-RHF Final Energy:  -642.55009077334546

   => Energetics <=

    Nuclear Repulsion Energy =            276.8222629094963168
    One-Electron Energy =               -1434.1706233411100584
    Two-Electron Energy =                 514.7982696582683957
    Total Energy =                       -642.5500907733454596
  Basis Set: (AUG-CC-PVTZ AUX)
    Blend: AUG-CC-PVTZ-RI
    Molecular point group: c1

    Geometry (in Angstrom), charge = 0, multiplicity = 1:

       Center              X                  Y                   Z               Mass
    ------------   -----------------  -----------------  -----------------  -----------------
         S           -0.042526153170     0.100344983173     0.033736041952    31.972071174400
         O           -0.457458553170     0.705869283173     1.259917741952    15.994914619570
         O           -0.446189553170     0.701906283173    -1.300992258048    15.994914619570
         N           -0.596978553170    -1.484311716827    -0.017709258048    14.003074004430
         C            1.693471446830    -0.096127716827    -0.009947258048    12.000000000000
         H            1.989783446830    -0.642626716827    -0.904263258048     1.007825032230
         H            2.134403446830     0.901393283173    -0.009767258048     1.007825032230
         H            1.982011446830    -0.639418716827     0.888723741952     1.007825032230
         H           -1.140932353170    -1.706512116827    -0.848183158048     1.007825032230
         H           -1.143867553170    -1.670459716827     0.819634741952     1.007825032230

  Basis Set: AUG-CC-PVTZ
    Blend: AUG-CC-PVTZ
  Basis Set: (AUG-CC-PVTZ AUX)
    Blend: AUG-CC-PVTZ-JKFIT
	 Reference Energy          =    -642.5500907733454596 [Eh]
	 Singles Energy            =      -0.0000000000000000 [Eh]
	 Same-Spin Energy          =      -0.3004848228665913 [Eh]
	 Opposite-Spin Energy      =      -0.8921690997852352 [Eh]
	 Correlation Energy        =      -1.1926539226518265 [Eh]
	 Total Energy              =    -643.7427446959973167 [Eh]

	 ================> DF-SCS-MP2 Energies <==================
	-----------------------------------------------------------
	 SCS Same-Spin Scale       =       0.3333333333333333 [-]
	 SCS Opposite-Spin Scale   =       1.2000000000000000 [-]
	 SCS Same-Spin Energy      =      -0.1001616076221971 [Eh]
	 SCS Opposite-Spin Energy  =      -1.0706029197422822 [Eh]
	 SCS Correlation Energy    =      -1.1707645273644793 [Eh]
	 SCS Total Energy          =    -643.7208553007098999 [Eh]
	-----------------------------------------------------------

  Dipole Moment: [D]
     X:     1.7681      Y:    -3.2194      Z:     0.5199     Total:     3.7095

*** Psi4 exiting successfully. Buy a developer a beer!
