                               Psi4 1.4a3.dev225

  ==> Input File <==

--------------------------------------------------------------------------
#psi4
#
memory 32 gb

molecule  {
0 1
  S        0.0496630    -0.1768790     0.0000010
  O        0.1599144    -0.8520507     1.2667812
  O        0.1614460    -0.8614400    -1.2843720
  N        1.2328540     0.9913630    -0.0000040
  C       -1.5173820     0.6822410    -0.0000030
  H       -1.5963900     1.2940100    -0.8996310
  H       -2.3012170    -0.0772020     0.0000010
  H       -1.5963900     1.2940180     0.8996200
  H        1.2952780     1.5346040    -0.8557480
  H        1.2952780     1.5346110     0.8557360
units angstrom
no_reorient  #important for SAPT in psi4, default
symmetry c1  #important for SAPT in psi4, default
}

set PROPERTIES_ORIGIN ["COM"]
properties('MP2/aug-cc-pvtz', properties = ['dipole'])
--------------------------------------------------------------------------

    Molecular point group: c1
  Charge       = 0
  Multiplicity = 1
  Basis Set: AUG-CC-PVTZ
    Blend: AUG-CC-PVTZ
  Basis Set: (AUG-CC-PVTZ AUX)
    Blend: AUG-CC-PVTZ-JKFIT

    Orbital Energies [Eh]
    ---------------------

    Doubly Occupied:

       1A    -92.207742     2A    -20.551851     3A    -20.549833
       4A    -15.611117     5A    -11.281632     6A     -9.173022
       7A     -6.858418     8A     -6.857510     9A     -6.857360
      10A     -1.463939    11A     -1.346031    12A     -1.221306
      13A     -1.040034    14A     -0.848697    15A     -0.731980
      16A     -0.721885    17A     -0.676645    18A     -0.648248
      19A     -0.612093    20A     -0.605978    21A     -0.515961
      22A     -0.502467    23A     -0.481207    24A     -0.477945
      25A     -0.461366

  @DF-RHF Final Energy:  -642.55613346447831

   => Energetics <=

    Nuclear Repulsion Energy =            277.9625232373500126
    One-Electron Energy =               -1436.4287860388099034
    Two-Electron Energy =                 515.9101293369815266
    Total Energy =                       -642.5561334644783074
  Basis Set: (AUG-CC-PVTZ AUX)
    Blend: AUG-CC-PVTZ-RI
    Molecular point group: c1

    Geometry (in Angstrom), charge = 0, multiplicity = 1:

       Center              X                  Y                   Z               Mass
    ------------   -----------------  -----------------  -----------------  -----------------
         S            0.019591009183    -0.120359344595     0.002963456965    31.972071174400
         O            0.129842409183    -0.795531044595     1.269743656965    15.994914619570
         O            0.131374009183    -0.804920344595    -1.281409543035    15.994914619570
         N            1.202782009183     1.047882655405     0.002958456965    14.003074004430
         C           -1.547453990817     0.738760655405     0.002959456965    12.000000000000
         H           -1.626461990817     1.350529655405    -0.896668543035     1.007825032230
         H           -2.331288990817    -0.020682344595     0.002963456965     1.007825032230
         H           -1.626461990817     1.350537655405     0.902582456965     1.007825032230
         H            1.265206009183     1.591123655405    -0.852785543035     1.007825032230
         H            1.265206009183     1.591130655405     0.858698456965     1.007825032230

  Basis Set: AUG-CC-PVTZ
    Blend: AUG-CC-PVTZ
  Basis Set: (AUG-CC-PVTZ AUX)
    Blend: AUG-CC-PVTZ-JKFIT
	 Reference Energy          =    -642.5561334644783074 [Eh]
	 Singles Energy            =      -0.0000000000000000 [Eh]
	 Same-Spin Energy          =      -0.2997089201117757 [Eh]
	 Opposite-Spin Energy      =      -0.8903529599162423 [Eh]
	 Correlation Energy        =      -1.1900618800280180 [Eh]
	 Total Energy              =    -643.7461953445063045 [Eh]

	 ================> DF-SCS-MP2 Energies <==================
	-----------------------------------------------------------
	 SCS Same-Spin Scale       =       0.3333333333333333 [-]
	 SCS Opposite-Spin Scale   =       1.2000000000000000 [-]
	 SCS Same-Spin Energy      =      -0.0999029733705919 [Eh]
	 SCS Opposite-Spin Energy  =      -1.0684235518994907 [Eh]
	 SCS Correlation Energy    =      -1.1683265252700825 [Eh]
	 SCS Total Energy          =    -643.7244599897484250 [Eh]
	-----------------------------------------------------------

  Dipole Moment: [D]
     X:    -1.4661      Y:     4.9566      Z:     0.0940     Total:     5.1698

*** Psi4 exiting successfully. Buy a developer a beer!
