                               Psi4 1.4a3.dev225

  ==> Input File <==

--------------------------------------------------------------------------
#psi4
#
memory 32 gb

molecule  {
0 1
  S        0.0496630    -0.1768790     0.0000010
  O        0.1614460    -0.8614300     1.2843790
  O        0.1614460    -0.8614400    -1.2843720
  N        1.1972746     0.9562331    -0.0000038
  C       -1.5173820     0.6822410    -0.0000030
  H       -1.5963900     1.2940100    -0.8996310
  H       -2.3012170    -0.0772020     0.0000010
  H       -1.5963900     1.2940180     0.8996200
  H        1.2952780     1.5346040    -0.8557480
  H        1.2952780     1.5346110     0.8557360
units angstrom
no_reorient  #important for SAPT in psi4, default
symmetry c1  #important for SAPT in psi4, default
}

set PROPERTIES_ORIGIN ["COM"]
properties('MP2/aug-cc-pvtz', properties = ['dipole'])
--------------------------------------------------------------------------

    Molecular point group: c1
  Charge       = 0
  Multiplicity = 1
  Basis Set: AUG-CC-PVTZ
    Blend: AUG-CC-PVTZ
  Basis Set: (AUG-CC-PVTZ AUX)
    Blend: AUG-CC-PVTZ-JKFIT

    Orbital Energies [Eh]
    ---------------------

    Doubly Occupied:

       1A    -92.206883     2A    -20.548191     3A    -20.548172
       4A    -15.615955     5A    -11.280038     6A     -9.172267
       7A     -6.857889     8A     -6.856666     9A     -6.856560
      10A     -1.458718    11A     -1.339107    12A     -1.228832
      13A     -1.038402    14A     -0.853971    15A     -0.725880
      16A     -0.725352    17A     -0.675193    18A     -0.642908
      19A     -0.611601    20A     -0.602192    21A     -0.515226
      22A     -0.497596    23A     -0.482048    24A     -0.473232
      25A     -0.461866

  @DF-RHF Final Energy:  -642.55248281776437

   => Energetics <=

    Nuclear Repulsion Energy =            278.5687029301839743
    One-Electron Energy =               -1437.6928844047813527
    Two-Electron Energy =                 516.5716986568330640
    Total Energy =                       -642.5524828177643712
  Basis Set: (AUG-CC-PVTZ AUX)
    Blend: AUG-CC-PVTZ-RI
    Molecular point group: c1

    Geometry (in Angstrom), charge = 0, multiplicity = 1:

       Center              X                  Y                   Z               Mass
    ------------   -----------------  -----------------  -----------------  -----------------
         S            0.024577353584    -0.113602292057     0.000000657355    31.972071174400
         O            0.136360353584    -0.798153292057     1.284378657355    15.994914619570
         O            0.136360353584    -0.798163292057    -1.284372342645    15.994914619570
         N            1.172188953584     1.019509807943    -0.000004142645    14.003074004430
         C           -1.542467646416     0.745517707943    -0.000003342645    12.000000000000
         H           -1.621475646416     1.357286707943    -0.899631342645     1.007825032230
         H           -2.326302646416    -0.013925292057     0.000000657355     1.007825032230
         H           -1.621475646416     1.357294707943     0.899619657355     1.007825032230
         H            1.270192353584     1.597880707943    -0.855748342645     1.007825032230
         H            1.270192353584     1.597887707943     0.855735657355     1.007825032230

  Basis Set: AUG-CC-PVTZ
    Blend: AUG-CC-PVTZ
  Basis Set: (AUG-CC-PVTZ AUX)
    Blend: AUG-CC-PVTZ-JKFIT
	 Reference Energy          =    -642.5524828177643712 [Eh]
	 Singles Energy            =      -0.0000000000000000 [Eh]
	 Same-Spin Energy          =      -0.3002996954242469 [Eh]
	 Opposite-Spin Energy      =      -0.8910037407459983 [Eh]
	 Correlation Energy        =      -1.1913034361702453 [Eh]
	 Total Energy              =    -643.7437862539346725 [Eh]

	 ================> DF-SCS-MP2 Energies <==================
	-----------------------------------------------------------
	 SCS Same-Spin Scale       =       0.3333333333333333 [-]
	 SCS Opposite-Spin Scale   =       1.2000000000000000 [-]
	 SCS Same-Spin Energy      =      -0.1000998984747490 [Eh]
	 SCS Opposite-Spin Energy  =      -1.0692044888951979 [Eh]
	 SCS Correlation Energy    =      -1.1693043873699469 [Eh]
	 SCS Total Energy          =    -643.7217872051343193 [Eh]
	-----------------------------------------------------------

  Dipole Moment: [D]
     X:    -1.2473      Y:     5.2023      Z:    -0.0000     Total:     5.3497

*** Psi4 exiting successfully. Buy a developer a beer!
