                               Psi4 1.3.2 release

  ==> Input File <==

--------------------------------------------------------------------------
#psi4
#
memory 32 gb

molecule  {
0 1
  S       -0.0598420     0.1064250    -0.0004010
  O       -0.4487500     0.7022520     1.2774130
  O       -0.4374810     0.6982890    -1.2834970
  N       -0.5882700    -1.4879290    -0.0002140
  C        1.7021800    -0.0997450     0.0075480
  H        1.9984920    -0.6462440    -0.8867680
  H        2.1431120     0.8977760     0.0077280
  H        1.9907200    -0.6430360     0.9062190
  H       -1.1275310    -1.6767740    -0.8419270
  H       -1.1351590    -1.6740770     0.8371300
units angstrom
no_reorient  #important for SAPT in psi4, default
symmetry c1  #important for SAPT in psi4, default
}

set PROPERTIES_ORIGIN ["COM"]
properties('MP2/aug-cc-pvtz', properties = ['dipole'])
--------------------------------------------------------------------------

    Molecular point group: c1
  Charge       = 0
  Multiplicity = 1
  Basis Set: AUG-CC-PVTZ
    Blend: AUG-CC-PVTZ
  Basis Set: (AUG-CC-PVTZ AUX)
    Blend: AUG-CC-PVTZ-JKFIT

    Orbital Energies [Eh]
    ---------------------

    Doubly Occupied:

       1A    -92.208964     2A    -20.554470     3A    -20.554445
       4A    -15.610887     5A    -11.278531     6A     -9.174828
       7A     -6.860040     8A     -6.859050     9A     -6.859038
      10A     -1.458596    11A     -1.342554    12A     -1.221257
      13A     -1.044057    14A     -0.845775    15A     -0.724866
      16A     -0.709638    17A     -0.678483    18A     -0.647953
      19A     -0.604972    20A     -0.601928    21A     -0.538103
      22A     -0.501768    23A     -0.479466    24A     -0.477677
      25A     -0.460295

  @DF-RHF Final Energy:  -642.55724493581670

   => Energetics <=

    Nuclear Repulsion Energy =            276.9950879442818064
    One-Electron Energy =               -1434.5093862314552098
    Two-Electron Energy =                 514.9570533513567625
    Total Energy =                       -642.5572449358166978
  Basis Set: (AUG-CC-PVTZ AUX)
    Blend: AUG-CC-PVTZ-RI
    Molecular point group: c1

    Geometry (in Angstrom), charge = 0, multiplicity = 1:

       Center              X                  Y                   Z               Mass
    ------------   -----------------  -----------------  -----------------  -----------------
         S           -0.059842250565     0.106424974295    -0.000401027588    31.972071174400
         O           -0.448750250565     0.702251974295     1.277412972412    15.994914619570
         O           -0.437481250565     0.698288974295    -1.283497027588    15.994914619570
         N           -0.588270250565    -1.487929025705    -0.000214027588    14.003074004430
         C            1.702179749435    -0.099745025705     0.007547972412    12.000000000000
         H            1.998491749435    -0.646244025705    -0.886768027588     1.007825032230
         H            2.143111749435     0.897775974295     0.007727972412     1.007825032230
         H            1.990719749435    -0.643036025705     0.906218972412     1.007825032230
         H           -1.127531250565    -1.676774025705    -0.841927027588     1.007825032230
         H           -1.135159250565    -1.674077025705     0.837129972412     1.007825032230

  Basis Set: AUG-CC-PVTZ
    Blend: AUG-CC-PVTZ
  Basis Set: (AUG-CC-PVTZ AUX)
    Blend: AUG-CC-PVTZ-JKFIT
	 Reference Energy          =    -642.5572449358166978 [Eh]
	 Singles Energy            =      -0.0000000000000000 [Eh]
	 Same-Spin Energy          =      -0.3001617819359764 [Eh]
	 Opposite-Spin Energy      =      -0.8916478873248483 [Eh]
	 Correlation Energy        =      -1.1918096692608247 [Eh]
	 Total Energy              =    -643.7490546050775038 [Eh]

	 ================> DF-SCS-MP2 Energies <==================
	-----------------------------------------------------------
	 SCS Same-Spin Scale       =       0.3333333333333333 [-]
	 SCS Opposite-Spin Scale   =       1.2000000000000000 [-]
	 SCS Same-Spin Energy      =      -0.1000539273119921 [Eh]
	 SCS Opposite-Spin Energy  =      -1.0699774647898179 [Eh]
	 SCS Correlation Energy    =      -1.1700313921018100 [Eh]
	 SCS Total Energy          =    -643.7272763279185028 [Eh]
	-----------------------------------------------------------

  Dipole Moment: [D]
     X:     1.5416      Y:    -3.1146      Z:     0.0117     Total:     3.4753

*** Psi4 exiting successfully. Buy a developer a beer!
