                               Psi4 1.3.2 release

  ==> Input File <==

--------------------------------------------------------------------------
#psi4
#
memory 32 gb

molecule  {
0 1
  S       -0.0598420     0.1064250    -0.0004010
  O       -0.4487500     0.7022520     1.2774130
  O       -0.4374810     0.6982890    -1.2834970
  N       -0.5882700    -1.4879290    -0.0002140
  C        1.9008228    -0.1229877     0.0084441
  H        1.9984920    -0.6462440    -0.8867680
  H        2.1431120     0.8977760     0.0077280
  H        1.9907200    -0.6430360     0.9062190
  H       -1.1275310    -1.6767740    -0.8419270
  H       -1.1351590    -1.6740770     0.8371300
units angstrom
no_reorient  #important for SAPT in psi4, default
symmetry c1  #important for SAPT in psi4, default
}

set PROPERTIES_ORIGIN ["COM"]
properties('MP2/aug-cc-pvtz', properties = ['dipole'])
--------------------------------------------------------------------------

    Molecular point group: c1
  Charge       = 0
  Multiplicity = 1
  Basis Set: AUG-CC-PVTZ
    Blend: AUG-CC-PVTZ
  Basis Set: (AUG-CC-PVTZ AUX)
    Blend: AUG-CC-PVTZ-JKFIT

    Orbital Energies [Eh]
    ---------------------

    Doubly Occupied:

       1A    -92.202212     2A    -20.554198     3A    -20.554173
       4A    -15.610038     5A    -11.284057     6A     -9.167852
       7A     -6.852839     8A     -6.851926     9A     -6.851602
      10A     -1.452873    11A     -1.340305    12A     -1.218684
      13A     -1.028222    14A     -0.846228    15A     -0.723154
      16A     -0.702104    17A     -0.661926    18A     -0.656619
      19A     -0.633094    20A     -0.618925    21A     -0.536368
      22A     -0.502097    23A     -0.478384    24A     -0.466683
      25A     -0.434214

  @DF-RHF Final Energy:  -642.53442445780036

   => Energetics <=

    Nuclear Repulsion Energy =            272.7319758292665028
    One-Electron Energy =               -1426.0752476102941273
    Two-Electron Energy =                 510.8088473232273259
    Total Energy =                       -642.5344244578002417
  Basis Set: (AUG-CC-PVTZ AUX)
    Blend: AUG-CC-PVTZ-RI
    Molecular point group: c1

    Geometry (in Angstrom), charge = 0, multiplicity = 1:

       Center              X                  Y                   Z               Mass
    ------------   -----------------  -----------------  -----------------  -----------------
         S           -0.084932889923     0.109360767605    -0.000514214282    31.972071174400
         O           -0.473840889923     0.705187767605     1.277299785718    15.994914619570
         O           -0.462571889923     0.701224767605    -1.283610214282    15.994914619570
         N           -0.613360889923    -1.484993232395    -0.000327214282    14.003074004430
         C            1.875731910077    -0.120051932395     0.008330885718    12.000000000000
         H            1.973401110077    -0.643308232395    -0.886881214282     1.007825032230
         H            2.118021110077     0.900711767605     0.007614785718     1.007825032230
         H            1.965629110077    -0.640100232395     0.906105785718     1.007825032230
         H           -1.152621889923    -1.673838232395    -0.842040214282     1.007825032230
         H           -1.160249889923    -1.671141232395     0.837016785718     1.007825032230

  Basis Set: AUG-CC-PVTZ
    Blend: AUG-CC-PVTZ
  Basis Set: (AUG-CC-PVTZ AUX)
    Blend: AUG-CC-PVTZ-JKFIT
	 Reference Energy          =    -642.5344244578003554 [Eh]
	 Singles Energy            =      -0.0000000000000000 [Eh]
	 Same-Spin Energy          =      -0.3004323975123214 [Eh]
	 Opposite-Spin Energy      =      -0.8938296365076321 [Eh]
	 Correlation Energy        =      -1.1942620340199537 [Eh]
	 Total Energy              =    -643.7286864918203264 [Eh]

	 ================> DF-SCS-MP2 Energies <==================
	-----------------------------------------------------------
	 SCS Same-Spin Scale       =       0.3333333333333333 [-]
	 SCS Opposite-Spin Scale   =       1.2000000000000000 [-]
	 SCS Same-Spin Energy      =      -0.1001441325041071 [Eh]
	 SCS Opposite-Spin Energy  =      -1.0725955638091584 [Eh]
	 SCS Correlation Energy    =      -1.1727396963132657 [Eh]
	 SCS Total Energy          =    -643.7071641541135705 [Eh]
	-----------------------------------------------------------

  Dipole Moment: [D]
     X:     1.3130      Y:    -3.0749      Z:     0.0106     Total:     3.3435

*** Psi4 exiting successfully. Buy a developer a beer!
