                               Psi4 1.3.2 release

  ==> Input File <==

--------------------------------------------------------------------------
#psi4
#
memory 32 gb

molecule  {
0 1
  S       -0.0598420     0.1064250    -0.0004010
  O       -0.4609604     0.7021076     1.2737003
  O       -0.4374810     0.6982890    -1.2834970
  N       -0.5882700    -1.4879290    -0.0002140
  C        1.7014696    -0.1057838    -0.0066895
  H        1.9984920    -0.6462440    -0.8867680
  H        2.1431120     0.8977760     0.0077280
  H        1.9907200    -0.6430360     0.9062190
  H       -1.1275310    -1.6767740    -0.8419270
  H       -1.1351590    -1.6740770     0.8371300
units angstrom
no_reorient  #important for SAPT in psi4, default
symmetry c1  #important for SAPT in psi4, default
}

set PROPERTIES_ORIGIN ["COM"]
properties('MP2/aug-cc-pvtz', properties = ['dipole'])
--------------------------------------------------------------------------

    Molecular point group: c1
  Charge       = 0
  Multiplicity = 1
  Basis Set: AUG-CC-PVTZ
    Blend: AUG-CC-PVTZ
  Basis Set: (AUG-CC-PVTZ AUX)
    Blend: AUG-CC-PVTZ-JKFIT

    Orbital Energies [Eh]
    ---------------------

    Doubly Occupied:

       1A    -92.208942     2A    -20.555162     3A    -20.553572
       4A    -15.610217     5A    -11.279268     6A     -9.174821
       7A     -6.860034     8A     -6.859062     9A     -6.859007
      10A     -1.458592    11A     -1.342247    12A     -1.220835
      13A     -1.044720    14A     -0.845714    15A     -0.724500
      16A     -0.709631    17A     -0.678605    18A     -0.648627
      19A     -0.606164    20A     -0.600569    21A     -0.537900
      22A     -0.501634    23A     -0.479751    24A     -0.477376
      25A     -0.460159

  @DF-RHF Final Energy:  -642.55698392848035

   => Energetics <=

    Nuclear Repulsion Energy =            276.9931699566317889
    One-Electron Energy =               -1434.5060917761168184
    Two-Electron Energy =                 514.9559378910046235
    Total Energy =                       -642.5569839284803493
  Basis Set: (AUG-CC-PVTZ AUX)
    Blend: AUG-CC-PVTZ-RI
    Molecular point group: c1

    Geometry (in Angstrom), charge = 0, multiplicity = 1:

       Center              X                  Y                   Z               Mass
    ------------   -----------------  -----------------  -----------------  -----------------
         S           -0.057696773619     0.107212048389     0.002022386986    31.972071174400
         O           -0.458815173619     0.702894648389     1.276123686986    15.994914619570
         O           -0.435335773619     0.699076048389    -1.281073613014    15.994914619570
         N           -0.586124773619    -1.487141951611     0.002209386986    14.003074004430
         C            1.703614826381    -0.104996751611    -0.004266113014    12.000000000000
         H            2.000637226381    -0.645456951611    -0.884344613014     1.007825032230
         H            2.145257226381     0.898563048389     0.010151386986     1.007825032230
         H            1.992865226381    -0.642248951611     0.908642386986     1.007825032230
         H           -1.125385773619    -1.675986951611    -0.839503613014     1.007825032230
         H           -1.133013773619    -1.673289951611     0.839553386986     1.007825032230

  Basis Set: AUG-CC-PVTZ
    Blend: AUG-CC-PVTZ
  Basis Set: (AUG-CC-PVTZ AUX)
    Blend: AUG-CC-PVTZ-JKFIT
	 Reference Energy          =    -642.5569839284803493 [Eh]
	 Singles Energy            =      -0.0000000000000000 [Eh]
	 Same-Spin Energy          =      -0.3001553177054703 [Eh]
	 Opposite-Spin Energy      =      -0.8916265632570308 [Eh]
	 Correlation Energy        =      -1.1917818809625012 [Eh]
	 Total Energy              =    -643.7487658094428298 [Eh]

	 ================> DF-SCS-MP2 Energies <==================
	-----------------------------------------------------------
	 SCS Same-Spin Scale       =       0.3333333333333333 [-]
	 SCS Opposite-Spin Scale   =       1.2000000000000000 [-]
	 SCS Same-Spin Energy      =      -0.1000517725684901 [Eh]
	 SCS Opposite-Spin Energy  =      -1.0699518759084370 [Eh]
	 SCS Correlation Energy    =      -1.1700036484769272 [Eh]
	 SCS Total Energy          =    -643.7269875769572991 [Eh]
	-----------------------------------------------------------

  Dipole Moment: [D]
     X:     1.5775      Y:    -3.1079      Z:     0.0281     Total:     3.4855

*** Psi4 exiting successfully. Buy a developer a beer!
