                               Psi4 1.3.2 release

  ==> Input File <==

--------------------------------------------------------------------------
#psi4
#
memory 32 gb

molecule  {
0 1
  S       -0.0598420     0.1064250    -0.0004010
  O       -0.4487500     0.7022520     1.2774130
  O       -0.4374810     0.6982890    -1.2834970
  N       -0.6160145    -1.4784639    -0.0003488
  C        1.7055100    -0.0689618     0.0075146
  H        1.9984920    -0.6462440    -0.8867680
  H        2.1431120     0.8977760     0.0077280
  H        1.9907200    -0.6430360     0.9062190
  H       -1.1275310    -1.6767740    -0.8419270
  H       -1.1351590    -1.6740770     0.8371300
units angstrom
no_reorient  #important for SAPT in psi4, default
symmetry c1  #important for SAPT in psi4, default
}

set PROPERTIES_ORIGIN ["COM"]
properties('MP2/aug-cc-pvtz', properties = ['dipole'])
--------------------------------------------------------------------------

    Molecular point group: c1
  Charge       = 0
  Multiplicity = 1
  Basis Set: AUG-CC-PVTZ
    Blend: AUG-CC-PVTZ
  Basis Set: (AUG-CC-PVTZ AUX)
    Blend: AUG-CC-PVTZ-JKFIT

    Orbital Energies [Eh]
    ---------------------

    Doubly Occupied:

       1A    -92.209162     2A    -20.552992     3A    -20.552967
       4A    -15.608809     5A    -11.279597     6A     -9.174869
       7A     -6.860091     8A     -6.859119     9A     -6.859082
      10A     -1.457922    11A     -1.341576    12A     -1.222960
      13A     -1.044963    14A     -0.847589    15A     -0.732433
      16A     -0.710441    17A     -0.678783    18A     -0.646442
      19A     -0.613946    20A     -0.596606    21A     -0.535977
      22A     -0.500818    23A     -0.479282    24A     -0.476288
      25A     -0.459224

  @DF-RHF Final Energy:  -642.55688615234078

   => Energetics <=

    Nuclear Repulsion Energy =            277.0478698218886962
    One-Electron Energy =               -1434.6056422298315738
    Two-Electron Energy =                 515.0008862556020404
    Total Energy =                       -642.5568861523407804
  Basis Set: (AUG-CC-PVTZ AUX)
    Blend: AUG-CC-PVTZ-RI
    Molecular point group: c1

    Geometry (in Angstrom), charge = 0, multiplicity = 1:

       Center              X                  Y                   Z               Mass
    ------------   -----------------  -----------------  -----------------  -----------------
         S           -0.056173479552     0.101141634965    -0.000376940055    31.972071174400
         O           -0.445081479552     0.696968634965     1.277437059945    15.994914619570
         O           -0.433812479552     0.693005634965    -1.283472940055    15.994914619570
         N           -0.612345979552    -1.483747265035    -0.000324740055    14.003074004430
         C            1.709178520448    -0.074245165035     0.007538659945    12.000000000000
         H            2.002160520448    -0.651527365035    -0.886743940055     1.007825032230
         H            2.146780520448     0.892492634965     0.007752059945     1.007825032230
         H            1.994388520448    -0.648319365035     0.906243059945     1.007825032230
         H           -1.123862479552    -1.682057365035    -0.841902940055     1.007825032230
         H           -1.131490479552    -1.679360365035     0.837154059945     1.007825032230

  Basis Set: AUG-CC-PVTZ
    Blend: AUG-CC-PVTZ
  Basis Set: (AUG-CC-PVTZ AUX)
    Blend: AUG-CC-PVTZ-JKFIT
	 Reference Energy          =    -642.5568861523407804 [Eh]
	 Singles Energy            =      -0.0000000000000000 [Eh]
	 Same-Spin Energy          =      -0.2999285605010883 [Eh]
	 Opposite-Spin Energy      =      -0.8910614146266069 [Eh]
	 Correlation Energy        =      -1.1909899751276951 [Eh]
	 Total Energy              =    -643.7478761274684302 [Eh]

	 ================> DF-SCS-MP2 Energies <==================
	-----------------------------------------------------------
	 SCS Same-Spin Scale       =       0.3333333333333333 [-]
	 SCS Opposite-Spin Scale   =       1.2000000000000000 [-]
	 SCS Same-Spin Energy      =      -0.0999761868336961 [Eh]
	 SCS Opposite-Spin Energy  =      -1.0692736975519284 [Eh]
	 SCS Correlation Energy    =      -1.1692498843856245 [Eh]
	 SCS Total Energy          =    -643.7261360367264160 [Eh]
	-----------------------------------------------------------

  Dipole Moment: [D]
     X:     1.6060      Y:    -3.1630      Z:     0.0120     Total:     3.5474

*** Psi4 exiting successfully. Buy a developer a beer!
