                               Psi4 1.3.2 release

  ==> Input File <==

--------------------------------------------------------------------------
#psi4
#
memory 32 gb

molecule  {
0 1
  S       -0.0620799     0.0759233    -0.0542445
  O       -0.4487500     0.7022520     1.2774130
  O       -0.4374810     0.6982890    -1.2834970
  N       -0.5882700    -1.4879290    -0.0002140
  C        1.7021800    -0.0997450     0.0075480
  H        1.9619454    -0.6477912    -0.8971234
  H        2.1431120     0.8977760     0.0077280
  H        1.9907200    -0.6430360     0.9062190
  H       -1.1275310    -1.6767740    -0.8419270
  H       -1.1351590    -1.6740770     0.8371300
units angstrom
no_reorient  #important for SAPT in psi4, default
symmetry c1  #important for SAPT in psi4, default
}

set PROPERTIES_ORIGIN ["COM"]
properties('MP2/aug-cc-pvtz', properties = ['dipole'])
--------------------------------------------------------------------------

    Molecular point group: c1
  Charge       = 0
  Multiplicity = 1
  Basis Set: AUG-CC-PVTZ
    Blend: AUG-CC-PVTZ
  Basis Set: (AUG-CC-PVTZ AUX)
    Blend: AUG-CC-PVTZ-JKFIT

    Orbital Energies [Eh]
    ---------------------

    Doubly Occupied:

       1A    -92.207487     2A    -20.563013     3A    -20.538958
       4A    -15.616670     5A    -11.278817     6A     -9.174026
       7A     -6.859251     8A     -6.858318     9A     -6.857954
      10A     -1.462198    11A     -1.325198    12A     -1.231950
      13A     -1.044728    14A     -0.849554    15A     -0.733508
      16A     -0.711147    17A     -0.678939    18A     -0.646750
      19A     -0.607222    20A     -0.598815    21A     -0.541404
      22A     -0.501508    23A     -0.478704    24A     -0.465561
      25A     -0.455659

  @DF-RHF Final Energy:  -642.55034362885078

   => Energetics <=

    Nuclear Repulsion Energy =            277.1013038282948742
    One-Electron Energy =               -1434.7286138369026958
    Two-Electron Energy =                 515.0769663797569820
    Total Energy =                       -642.5503436288507828
  Basis Set: (AUG-CC-PVTZ AUX)
    Blend: AUG-CC-PVTZ-RI
    Molecular point group: c1

    Geometry (in Angstrom), charge = 0, multiplicity = 1:

       Center              X                  Y                   Z               Mass
    ------------   -----------------  -----------------  -----------------  -----------------
         S           -0.060939327413     0.086204534099    -0.036014528532    31.972071174400
         O           -0.447609427413     0.712533234099     1.295642971468    15.994914619570
         O           -0.436340427413     0.708570234099    -1.265267028532    15.994914619570
         N           -0.587129427413    -1.477647765901     0.018015971468    14.003074004430
         C            1.703320572587    -0.089463765901     0.025777971468    12.000000000000
         H            1.963085972587    -0.637509965901    -0.878893428532     1.007825032230
         H            2.144252572587     0.908057234099     0.025957971468     1.007825032230
         H            1.991860572587    -0.632754765901     0.924448971468     1.007825032230
         H           -1.126390427413    -1.666492765901    -0.823697028532     1.007825032230
         H           -1.134018427413    -1.663795765901     0.855359971468     1.007825032230

  Basis Set: AUG-CC-PVTZ
    Blend: AUG-CC-PVTZ
  Basis Set: (AUG-CC-PVTZ AUX)
    Blend: AUG-CC-PVTZ-JKFIT
	 Reference Energy          =    -642.5503436288507828 [Eh]
	 Singles Energy            =      -0.0000000000000000 [Eh]
	 Same-Spin Energy          =      -0.3003968970192615 [Eh]
	 Opposite-Spin Energy      =      -0.8918967166658710 [Eh]
	 Correlation Energy        =      -1.1922936136851325 [Eh]
	 Total Energy              =    -643.7426372425359204 [Eh]

	 ================> DF-SCS-MP2 Energies <==================
	-----------------------------------------------------------
	 SCS Same-Spin Scale       =       0.3333333333333333 [-]
	 SCS Opposite-Spin Scale   =       1.2000000000000000 [-]
	 SCS Same-Spin Energy      =      -0.1001322990064205 [Eh]
	 SCS Opposite-Spin Energy  =      -1.0702760599990451 [Eh]
	 SCS Correlation Energy    =      -1.1704083590054655 [Eh]
	 SCS Total Energy          =    -643.7207519878562607 [Eh]
	-----------------------------------------------------------

  Dipole Moment: [D]
     X:     1.5043      Y:    -3.4157      Z:    -0.5197     Total:     3.7683

*** Psi4 exiting successfully. Buy a developer a beer!
