                               Psi4 1.3.2 release

  ==> Input File <==

--------------------------------------------------------------------------
#psi4
#
memory 32 gb

molecule  {
0 1
  S       -0.0598420     0.1064250    -0.0004010
  O       -0.4273484     0.7461186     1.2624525
  O       -0.4374810     0.6982890    -1.2834970
  N       -0.5657298    -1.4943280    -0.0539559
  C        1.7021800    -0.0997450     0.0075480
  H        1.9984920    -0.6462440    -0.8867680
  H        2.1431120     0.8977760     0.0077280
  H        1.9907200    -0.6430360     0.9062190
  H       -1.1275310    -1.6767740    -0.8419270
  H       -1.1351590    -1.6740770     0.8371300
units angstrom
no_reorient  #important for SAPT in psi4, default
symmetry c1  #important for SAPT in psi4, default
}

set PROPERTIES_ORIGIN ["COM"]
properties('MP2/aug-cc-pvtz', properties = ['dipole'])
--------------------------------------------------------------------------

    Molecular point group: c1
  Charge       = 0
  Multiplicity = 1
  Basis Set: AUG-CC-PVTZ
    Blend: AUG-CC-PVTZ
  Basis Set: (AUG-CC-PVTZ AUX)
    Blend: AUG-CC-PVTZ-JKFIT

    Orbital Energies [Eh]
    ---------------------

    Doubly Occupied:

       1A    -92.208693     2A    -20.557950     3A    -20.550195
       4A    -15.616520     5A    -11.276716     6A     -9.174684
       7A     -6.859891     8A     -6.858903     9A     -6.858856
      10A     -1.458552    11A     -1.341365    12A     -1.223584
      13A     -1.042588    14A     -0.846862    15A     -0.723798
      16A     -0.705453    17A     -0.678246    18A     -0.645634
      19A     -0.604233    20A     -0.600127    21A     -0.541016
      22A     -0.500837    23A     -0.479876    24A     -0.476339
      25A     -0.461552

  @DF-RHF Final Energy:  -642.55208615800848

   => Energetics <=

    Nuclear Repulsion Energy =            276.9086673128862799
    One-Electron Energy =               -1434.3365686472973266
    Two-Electron Energy =                 514.8758151764025115
    Total Energy =                       -642.5520861580084784
  Basis Set: (AUG-CC-PVTZ AUX)
    Blend: AUG-CC-PVTZ-RI
    Molecular point group: c1

    Geometry (in Angstrom), charge = 0, multiplicity = 1:

       Center              X                  Y                   Z               Mass
    ------------   -----------------  -----------------  -----------------  -----------------
         S           -0.066767729111     0.099982759129     0.010038982132    31.972071174400
         O           -0.434274129111     0.739676359129     1.272892482132    15.994914619570
         O           -0.444406729111     0.691846759129    -1.273057017868    15.994914619570
         N           -0.572655529111    -1.500770240871    -0.043515917868    14.003074004430
         C            1.695254270889    -0.106187240871     0.017987982132    12.000000000000
         H            1.991566270889    -0.652686240871    -0.876328017868     1.007825032230
         H            2.136186270889     0.891333759129     0.018167982132     1.007825032230
         H            1.983794270889    -0.649478240871     0.916658982132     1.007825032230
         H           -1.134456729111    -1.683216240871    -0.831487017868     1.007825032230
         H           -1.142084729111    -1.680519240871     0.847569982132     1.007825032230

  Basis Set: AUG-CC-PVTZ
    Blend: AUG-CC-PVTZ
  Basis Set: (AUG-CC-PVTZ AUX)
    Blend: AUG-CC-PVTZ-JKFIT
	 Reference Energy          =    -642.5520861580084784 [Eh]
	 Singles Energy            =      -0.0000000000000000 [Eh]
	 Same-Spin Energy          =      -0.3003725134057031 [Eh]
	 Opposite-Spin Energy      =      -0.8922908743863076 [Eh]
	 Correlation Energy        =      -1.1926633877920108 [Eh]
	 Total Energy              =    -643.7447495458004596 [Eh]

	 ================> DF-SCS-MP2 Energies <==================
	-----------------------------------------------------------
	 SCS Same-Spin Scale       =       0.3333333333333333 [-]
	 SCS Opposite-Spin Scale   =       1.2000000000000000 [-]
	 SCS Same-Spin Energy      =      -0.1001241711352344 [Eh]
	 SCS Opposite-Spin Energy  =      -1.0707490492635692 [Eh]
	 SCS Correlation Energy    =      -1.1708732203988035 [Eh]
	 SCS Total Energy          =    -643.7229593784072676 [Eh]
	-----------------------------------------------------------

  Dipole Moment: [D]
     X:     1.4241      Y:    -3.2044      Z:     0.1748     Total:     3.5110

*** Psi4 exiting successfully. Buy a developer a beer!
