                               Psi4 1.4a3.dev225

  ==> Input File <==

--------------------------------------------------------------------------
#psi4
#
memory 32 gb

molecule  {
0 1
  S        0.0496630    -0.1768790     0.0000010
  O        0.1614460    -0.8614300     1.2843790
  O        0.1614460    -0.8614400    -1.2843720
  N        1.2328540     0.9913630    -0.0000040
  C       -1.5173820     0.6822410    -0.0000030
  H       -1.5963900     1.2940100    -0.8996310
  H       -2.3012170    -0.0772020     0.0000010
  H       -1.5963900     1.2940180     0.8996200
  H        1.2965074     1.5453026    -0.8726011
  H        1.2952780     1.5346110     0.8557360
units angstrom
no_reorient  #important for SAPT in psi4, default
symmetry c1  #important for SAPT in psi4, default
}

set PROPERTIES_ORIGIN ["COM"]
properties('MP2/aug-cc-pvtz', properties = ['dipole'])
--------------------------------------------------------------------------

    Molecular point group: c1
  Charge       = 0
  Multiplicity = 1
  Basis Set: AUG-CC-PVTZ
    Blend: AUG-CC-PVTZ
  Basis Set: (AUG-CC-PVTZ AUX)
    Blend: AUG-CC-PVTZ-JKFIT

    Orbital Energies [Eh]
    ---------------------

    Doubly Occupied:

       1A    -92.209651     2A    -20.551529     3A    -20.551355
       4A    -15.614226     5A    -11.282886     6A     -9.174571
       7A     -6.859975     8A     -6.858995     9A     -6.858849
      10A     -1.457314    11A     -1.341259    12A     -1.219249
      13A     -1.040831    14A     -0.849108    15A     -0.729075
      16A     -0.719822    17A     -0.674559    18A     -0.647043
      19A     -0.612300    20A     -0.604726    21A     -0.513559
      22A     -0.500248    23A     -0.481075    24A     -0.476153
      25A     -0.461450

  @DF-RHF Final Energy:  -642.55342061906651

   => Energetics <=

    Nuclear Repulsion Energy =            276.9546523757001637
    One-Electron Energy =               -1434.4365284942202834
    Two-Electron Energy =                 514.9284554994536620
    Total Energy =                       -642.5534206190665145
  Basis Set: (AUG-CC-PVTZ AUX)
    Blend: AUG-CC-PVTZ-RI
    Molecular point group: c1

    Geometry (in Angstrom), charge = 0, multiplicity = 1:

       Center              X                  Y                   Z               Mass
    ------------   -----------------  -----------------  -----------------  -----------------
         S            0.019320106860    -0.118893736412     0.000179468341    31.972071174400
         O            0.131103106860    -0.803444736412     1.284557468341    15.994914619570
         O            0.131103106860    -0.803454736412    -1.284193531659    15.994914619570
         N            1.202511106860     1.049348263588     0.000174468341    14.003074004430
         C           -1.547724893140     0.740226263588     0.000175468341    12.000000000000
         H           -1.626732893140     1.351995263588    -0.899452531659     1.007825032230
         H           -2.331559893140    -0.019216736412     0.000179468341     1.007825032230
         H           -1.626732893140     1.352003263588     0.899798468341     1.007825032230
         H            1.266164506860     1.603287863588    -0.872422631659     1.007825032230
         H            1.264935106860     1.592596263588     0.855914468341     1.007825032230

  Basis Set: AUG-CC-PVTZ
    Blend: AUG-CC-PVTZ
  Basis Set: (AUG-CC-PVTZ AUX)
    Blend: AUG-CC-PVTZ-JKFIT
	 Reference Energy          =    -642.5534206190665145 [Eh]
	 Singles Energy            =      -0.0000000000000000 [Eh]
	 Same-Spin Energy          =      -0.3002398410323296 [Eh]
	 Opposite-Spin Energy      =      -0.8917044394808173 [Eh]
	 Correlation Energy        =      -1.1919442805131468 [Eh]
	 Total Energy              =    -643.7453648995796129 [Eh]

	 ================> DF-SCS-MP2 Energies <==================
	-----------------------------------------------------------
	 SCS Same-Spin Scale       =       0.3333333333333333 [-]
	 SCS Opposite-Spin Scale   =       1.2000000000000000 [-]
	 SCS Same-Spin Energy      =      -0.1000799470107765 [Eh]
	 SCS Opposite-Spin Energy  =      -1.0700453273769808 [Eh]
	 SCS Correlation Energy    =      -1.1701252743877573 [Eh]
	 SCS Total Energy          =    -643.7235458934542294 [Eh]
	-----------------------------------------------------------

  Dipole Moment: [D]
     X:    -1.4738      Y:     5.0254      Z:    -0.0149     Total:     5.2371

*** Psi4 exiting successfully. Buy a developer a beer!
