                               Psi4 1.4a3.dev225

  ==> Input File <==

--------------------------------------------------------------------------
#psi4
#
memory 32 gb

molecule  {
0 1
  S        0.0496630    -0.1768790     0.0000010
  O        0.1629776    -0.8708093     1.3019768
  O        0.1614460    -0.8614400    -1.2843720
  N        1.2328540     0.9913630    -0.0000040
  C       -1.5173820     0.6822410    -0.0000030
  H       -1.5963900     1.2940100    -0.8996310
  H       -2.3012170    -0.0772020     0.0000010
  H       -1.5963900     1.2940180     0.8996200
  H        1.2952780     1.5346040    -0.8557480
  H        1.2952780     1.5346110     0.8557360
units angstrom
no_reorient  #important for SAPT in psi4, default
symmetry c1  #important for SAPT in psi4, default
}

set PROPERTIES_ORIGIN ["COM"]
properties('MP2/aug-cc-pvtz', properties = ['dipole'])
--------------------------------------------------------------------------

    Molecular point group: c1
  Charge       = 0
  Multiplicity = 1
  Basis Set: AUG-CC-PVTZ
    Blend: AUG-CC-PVTZ
  Basis Set: (AUG-CC-PVTZ AUX)
    Blend: AUG-CC-PVTZ-JKFIT

    Orbital Energies [Eh]
    ---------------------

    Doubly Occupied:

       1A    -92.211618     2A    -20.553180     3A    -20.551244
       4A    -15.613908     5A    -11.284375     6A     -9.176282
       7A     -6.861686     8A     -6.860715     9A     -6.860419
      10A     -1.452130    11A     -1.336068    12A     -1.222828
      13A     -1.042312    14A     -0.852073    15A     -0.733703
      16A     -0.719929    17A     -0.673083    18A     -0.647273
      19A     -0.612972    20A     -0.603666    21A     -0.511754
      22A     -0.498761    23A     -0.481602    24A     -0.474422
      25A     -0.461834

  @DF-RHF Final Energy:  -642.55190705404686

   => Energetics <=

    Nuclear Repulsion Energy =            276.1917692600288206
    One-Electron Energy =               -1432.8916800734077697
    Two-Electron Energy =                 514.1480037593320276
    Total Energy =                       -642.5519070540468647
  Basis Set: (AUG-CC-PVTZ AUX)
    Blend: AUG-CC-PVTZ-RI
    Molecular point group: c1

    Geometry (in Angstrom), charge = 0, multiplicity = 1:

       Center              X                  Y                   Z               Mass
    ------------   -----------------  -----------------  -----------------  -----------------
         S            0.019075288044    -0.117201141879    -0.002962083296    31.972071174400
         O            0.132389888044    -0.811131441879     1.299013716704    15.994914619570
         O            0.130858288044    -0.801762141879    -1.287335083296    15.994914619570
         N            1.202266288044     1.051040858121    -0.002967083296    14.003074004430
         C           -1.547969711956     0.741918858121    -0.002966083296    12.000000000000
         H           -1.626977711956     1.353687858121    -0.902594083296     1.007825032230
         H           -2.331804711956    -0.017524141879    -0.002962083296     1.007825032230
         H           -1.626977711956     1.353695858121     0.896656916704     1.007825032230
         H            1.264690288044     1.594281858121    -0.858711083296     1.007825032230
         H            1.264690288044     1.594288858121     0.852772916704     1.007825032230

  Basis Set: AUG-CC-PVTZ
    Blend: AUG-CC-PVTZ
  Basis Set: (AUG-CC-PVTZ AUX)
    Blend: AUG-CC-PVTZ-JKFIT
	 Reference Energy          =    -642.5519070540468647 [Eh]
	 Singles Energy            =      -0.0000000000000000 [Eh]
	 Same-Spin Energy          =      -0.3005041284891583 [Eh]
	 Opposite-Spin Energy      =      -0.8924103203876222 [Eh]
	 Correlation Energy        =      -1.1929144488767804 [Eh]
	 Total Energy              =    -643.7448215029236280 [Eh]

	 ================> DF-SCS-MP2 Energies <==================
	-----------------------------------------------------------
	 SCS Same-Spin Scale       =       0.3333333333333333 [-]
	 SCS Opposite-Spin Scale   =       1.2000000000000000 [-]
	 SCS Same-Spin Energy      =      -0.1001680428297194 [Eh]
	 SCS Opposite-Spin Energy  =      -1.0708923844651466 [Eh]
	 SCS Correlation Energy    =      -1.1710604272948659 [Eh]
	 SCS Total Energy          =    -643.7229674813416977 [Eh]
	-----------------------------------------------------------

  Dipole Moment: [D]
     X:    -1.4922      Y:     5.0765      Z:    -0.0939     Total:     5.2921

*** Psi4 exiting successfully. Buy a developer a beer!
