                               Psi4 1.3.2 release

  ==> Input File <==

--------------------------------------------------------------------------
#psi4
#
memory 32 gb

molecule  {
0 1
  S       -0.0598420     0.1064250    -0.0004010
  O       -0.4487500     0.7022520     1.2774130
  O       -0.4374810     0.6982890    -1.2834970
  N       -0.5882700    -1.4879290    -0.0002140
  C        1.7021800    -0.0997450     0.0075480
  H        1.9984920    -0.6462440    -0.8867680
  H        2.1431120     0.8977760     0.0077280
  H        1.9907200    -0.6430360     0.9062190
  H       -1.2335467    -1.7138999    -1.0074031
  H       -1.1351590    -1.6740770     0.8371300
units angstrom
no_reorient  #important for SAPT in psi4, default
symmetry c1  #important for SAPT in psi4, default
}

set PROPERTIES_ORIGIN ["COM"]
properties('MP2/aug-cc-pvtz', properties = ['dipole'])
--------------------------------------------------------------------------

    Molecular point group: c1
  Charge       = 0
  Multiplicity = 1
  Basis Set: AUG-CC-PVTZ
    Blend: AUG-CC-PVTZ
  Basis Set: (AUG-CC-PVTZ AUX)
    Blend: AUG-CC-PVTZ-JKFIT

    Orbital Energies [Eh]
    ---------------------

    Doubly Occupied:

       1A    -92.207358     2A    -20.553532     3A    -20.552283
       4A    -15.624602     5A    -11.277891     6A     -9.173211
       7A     -6.858415     8A     -6.857438     9A     -6.857403
      10A     -1.456399    11A     -1.341036    12A     -1.198927
      13A     -1.040762    14A     -0.837478    15A     -0.710696
      16A     -0.683942    17A     -0.676814    18A     -0.637108
      19A     -0.603478    20A     -0.599418    21A     -0.533737
      22A     -0.498593    23A     -0.477009    24A     -0.474791
      25A     -0.457246

  @DF-RHF Final Energy:  -642.52880578491477

   => Energetics <=

    Nuclear Repulsion Energy =            275.9913203259081342
    One-Electron Energy =               -1432.6611225655258295
    Two-Electron Energy =                 514.1409964547028721
    Total Energy =                       -642.5288057849147663
  Basis Set: (AUG-CC-PVTZ AUX)
    Blend: AUG-CC-PVTZ-RI
    Molecular point group: c1

    Geometry (in Angstrom), charge = 0, multiplicity = 1:

       Center              X                  Y                   Z               Mass
    ------------   -----------------  -----------------  -----------------  -----------------
         S           -0.058717611979     0.106818814261     0.001354380406    31.972071174400
         O           -0.447625611979     0.702645814261     1.279168380406    15.994914619570
         O           -0.436356611979     0.698682814261    -1.281741619594    15.994914619570
         N           -0.587145611979    -1.487535185739     0.001541380406    14.003074004430
         C            1.703304388021    -0.099351185739     0.009303380406    12.000000000000
         H            1.999616388021    -0.645850185739    -0.885012619594     1.007825032230
         H            2.144236388021     0.898169814261     0.009483380406     1.007825032230
         H            1.991844388021    -0.642642185739     0.907974380406     1.007825032230
         H           -1.232422311979    -1.713506085739    -1.005647719594     1.007825032230
         H           -1.134034611979    -1.673683185739     0.838885380406     1.007825032230

  Basis Set: AUG-CC-PVTZ
    Blend: AUG-CC-PVTZ
  Basis Set: (AUG-CC-PVTZ AUX)
    Blend: AUG-CC-PVTZ-JKFIT
	 Reference Energy          =    -642.5288057849147663 [Eh]
	 Singles Energy            =      -0.0000000000000000 [Eh]
	 Same-Spin Energy          =      -0.3014047586754856 [Eh]
	 Opposite-Spin Energy      =      -0.8952826981814954 [Eh]
	 Correlation Energy        =      -1.1966874568569810 [Eh]
	 Total Energy              =    -643.7254932417718010 [Eh]

	 ================> DF-SCS-MP2 Energies <==================
	-----------------------------------------------------------
	 SCS Same-Spin Scale       =       0.3333333333333333 [-]
	 SCS Opposite-Spin Scale   =       1.2000000000000000 [-]
	 SCS Same-Spin Energy      =      -0.1004682528918285 [Eh]
	 SCS Opposite-Spin Energy  =      -1.0743392378177945 [Eh]
	 SCS Correlation Energy    =      -1.1748074907096231 [Eh]
	 SCS Total Energy          =    -643.7036132756244342 [Eh]
	-----------------------------------------------------------

  Dipole Moment: [D]
     X:     1.4507      Y:    -3.1677      Z:    -0.1459     Total:     3.4872

*** Psi4 exiting successfully. Buy a developer a beer!
