                               Psi4 1.3.2 release

  ==> Input File <==

--------------------------------------------------------------------------
#psi4
#
memory 32 gb

molecule  {
0 1
  S       -0.0598420     0.1064250    -0.0004010
  O       -0.4487500     0.7022520     1.2774130
  O       -0.4129095     0.6984183    -1.2904153
  N       -0.5882700    -1.4879290    -0.0002140
  C        1.7034448    -0.0877095    -0.0209519
  H        1.9984920    -0.6462440    -0.8867680
  H        2.1431120     0.8977760     0.0077280
  H        1.9907200    -0.6430360     0.9062190
  H       -1.1275310    -1.6767740    -0.8419270
  H       -1.1351590    -1.6740770     0.8371300
units angstrom
no_reorient  #important for SAPT in psi4, default
symmetry c1  #important for SAPT in psi4, default
}

set PROPERTIES_ORIGIN ["COM"]
properties('MP2/aug-cc-pvtz', properties = ['dipole'])
--------------------------------------------------------------------------

    Molecular point group: c1
  Charge       = 0
  Multiplicity = 1
  Basis Set: AUG-CC-PVTZ
    Blend: AUG-CC-PVTZ
  Basis Set: (AUG-CC-PVTZ AUX)
    Blend: AUG-CC-PVTZ-JKFIT

    Orbital Energies [Eh]
    ---------------------

    Doubly Occupied:

       1A    -92.209092     2A    -20.556246     3A    -20.553126
       4A    -15.612236     5A    -11.277233     6A     -9.174921
       7A     -6.860133     8A     -6.859197     9A     -6.859082
      10A     -1.458684    11A     -1.343223    12A     -1.222125
      13A     -1.042781    14A     -0.846104    15A     -0.725655
      16A     -0.710033    17A     -0.678569    18A     -0.647083
      19A     -0.610138    20A     -0.595958    21A     -0.538507
      22A     -0.502105    23A     -0.479781    24A     -0.477350
      25A     -0.460249

  @DF-RHF Final Energy:  -642.55591659987078

   => Energetics <=

    Nuclear Repulsion Energy =            277.0069468373858967
    One-Electron Energy =               -1434.5265044229038267
    Two-Electron Energy =                 514.9636409856472028
    Total Energy =                       -642.5559165998707840
  Basis Set: (AUG-CC-PVTZ AUX)
    Blend: AUG-CC-PVTZ-RI
    Molecular point group: c1

    Geometry (in Angstrom), charge = 0, multiplicity = 1:

       Center              X                  Y                   Z               Mass
    ------------   -----------------  -----------------  -----------------  -----------------
         S           -0.064138871936     0.104882997231     0.004363571201    31.972071174400
         O           -0.453046871936     0.700709997231     1.282177571201    15.994914619570
         O           -0.417206371936     0.696876297231    -1.285650728799    15.994914619570
         N           -0.592566871936    -1.489471002769     0.004550571201    14.003074004430
         C            1.699147928064    -0.089251502769    -0.016187328799    12.000000000000
         H            1.994195128064    -0.647786002769    -0.882003428799     1.007825032230
         H            2.138815128064     0.896233997231     0.012492571201     1.007825032230
         H            1.986423128064    -0.644578002769     0.910983571201     1.007825032230
         H           -1.131827871936    -1.678316002769    -0.837162428799     1.007825032230
         H           -1.139455871936    -1.675619002769     0.841894571201     1.007825032230

  Basis Set: AUG-CC-PVTZ
    Blend: AUG-CC-PVTZ
  Basis Set: (AUG-CC-PVTZ AUX)
    Blend: AUG-CC-PVTZ-JKFIT
	 Reference Energy          =    -642.5559165998707840 [Eh]
	 Singles Energy            =      -0.0000000000000000 [Eh]
	 Same-Spin Energy          =      -0.3002133494604495 [Eh]
	 Opposite-Spin Energy      =      -0.8917970549194960 [Eh]
	 Correlation Energy        =      -1.1920104043799455 [Eh]
	 Total Energy              =    -643.7479270042507551 [Eh]

	 ================> DF-SCS-MP2 Energies <==================
	-----------------------------------------------------------
	 SCS Same-Spin Scale       =       0.3333333333333333 [-]
	 SCS Opposite-Spin Scale   =       1.2000000000000000 [-]
	 SCS Same-Spin Energy      =      -0.1000711164868165 [Eh]
	 SCS Opposite-Spin Energy  =      -1.0701564659033951 [Eh]
	 SCS Correlation Energy    =      -1.1702275823902115 [Eh]
	 SCS Total Energy          =    -643.7261441822610095 [Eh]
	-----------------------------------------------------------

  Dipole Moment: [D]
     X:     1.4651      Y:    -3.1256      Z:     0.0413     Total:     3.4522

*** Psi4 exiting successfully. Buy a developer a beer!
