                               Psi4 1.3.2 release

  ==> Input File <==

--------------------------------------------------------------------------
#psi4
#
memory 32 gb

molecule  {
0 1
  S       -0.0210567     0.0911542     0.0770278
  O       -0.4487500     0.7022520     1.2774130
  O       -0.4374810     0.6982890    -1.2834970
  N       -0.5882700    -1.4879290    -0.0002140
  C        1.7021800    -0.0997450     0.0075480
  H        1.9984920    -0.6462440    -0.8867680
  H        2.1431120     0.8977760     0.0077280
  H        1.9907200    -0.6430360     0.9062190
  H       -1.1343220    -1.7267081    -0.8246880
  H       -1.1351590    -1.6740770     0.8371300
units angstrom
no_reorient  #important for SAPT in psi4, default
symmetry c1  #important for SAPT in psi4, default
}

set PROPERTIES_ORIGIN ["COM"]
properties('MP2/aug-cc-pvtz', properties = ['dipole'])
--------------------------------------------------------------------------

    Molecular point group: c1
  Charge       = 0
  Multiplicity = 1
  Basis Set: AUG-CC-PVTZ
    Blend: AUG-CC-PVTZ
  Basis Set: (AUG-CC-PVTZ AUX)
    Blend: AUG-CC-PVTZ-JKFIT

    Orbital Energies [Eh]
    ---------------------

    Doubly Occupied:

       1A    -92.209040     2A    -20.568225     3A    -20.533688
       4A    -15.609671     5A    -11.283638     6A     -9.175917
       7A     -6.861050     8A     -6.860313     9A     -6.859680
      10A     -1.468198    11A     -1.314708    12A     -1.216413
      13A     -1.060259    14A     -0.849585    15A     -0.724544
      16A     -0.712071    17A     -0.682216    18A     -0.651151
      19A     -0.612256    20A     -0.599123    21A     -0.538419
      22A     -0.505642    23A     -0.477964    24A     -0.459452
      25A     -0.448243

  @DF-RHF Final Energy:  -642.54247538613527

   => Energetics <=

    Nuclear Repulsion Energy =            276.7586826997879257
    One-Electron Energy =               -1434.0393824756040431
    Two-Electron Energy =                 514.7382243896809086
    Total Energy =                       -642.5424753861352656
  Basis Set: (AUG-CC-PVTZ AUX)
    Blend: AUG-CC-PVTZ-RI
    Molecular point group: c1

    Geometry (in Angstrom), charge = 0, multiplicity = 1:

       Center              X                  Y                   Z               Mass
    ------------   -----------------  -----------------  -----------------  -----------------
         S           -0.034037466541     0.096823023774     0.050787504768    31.972071174400
         O           -0.461730766541     0.707920823774     1.251172704768    15.994914619570
         O           -0.450461766541     0.703957823774    -1.309737295232    15.994914619570
         N           -0.601250766541    -1.482260176226    -0.026454295232    14.003074004430
         C            1.689199233459    -0.094076176226    -0.018692295232    12.000000000000
         H            1.985511233459    -0.640575176226    -0.913008295232     1.007825032230
         H            2.130131233459     0.903444823774    -0.018512295232     1.007825032230
         H            1.977739233459    -0.637367176226     0.879978704768     1.007825032230
         H           -1.147302766541    -1.721039276226    -0.850928295232     1.007825032230
         H           -1.148139766541    -1.668408176226     0.810889704768     1.007825032230

  Basis Set: AUG-CC-PVTZ
    Blend: AUG-CC-PVTZ
  Basis Set: (AUG-CC-PVTZ AUX)
    Blend: AUG-CC-PVTZ-JKFIT
	 Reference Energy          =    -642.5424753861352656 [Eh]
	 Singles Energy            =      -0.0000000000000000 [Eh]
	 Same-Spin Energy          =      -0.3006118848187663 [Eh]
	 Opposite-Spin Energy      =      -0.8924573905238267 [Eh]
	 Correlation Energy        =      -1.1930692753425931 [Eh]
	 Total Energy              =    -643.7355446614778884 [Eh]

	 ================> DF-SCS-MP2 Energies <==================
	-----------------------------------------------------------
	 SCS Same-Spin Scale       =       0.3333333333333333 [-]
	 SCS Opposite-Spin Scale   =       1.2000000000000000 [-]
	 SCS Same-Spin Energy      =      -0.1002039616062554 [Eh]
	 SCS Opposite-Spin Energy  =      -1.0709488686285920 [Eh]
	 SCS Correlation Energy    =      -1.1711528302348473 [Eh]
	 SCS Total Energy          =    -643.7136282163701253 [Eh]
	-----------------------------------------------------------

  Dipole Moment: [D]
     X:     1.8815      Y:    -3.2807      Z:     0.7764     Total:     3.8608

*** Psi4 exiting successfully. Buy a developer a beer!
