                               Psi4 1.3.2 release

  ==> Input File <==

--------------------------------------------------------------------------
#psi4
#
memory 32 gb

molecule  {
0 1
  S       -0.0598420     0.1064250    -0.0004010
  O       -0.4726367     0.7393963     1.2518034
  O       -0.4615930     0.7355141    -1.2582136
  N       -0.5882700    -1.4879290    -0.0002140
  C        1.7021800    -0.0997450     0.0075480
  H        1.9984920    -0.6462440    -0.8867680
  H        2.1431120     0.8977760     0.0077280
  H        1.9907200    -0.6430360     0.9062190
  H       -1.1275310    -1.6767740    -0.8419270
  H       -1.1351590    -1.6740770     0.8371300
units angstrom
no_reorient  #important for SAPT in psi4, default
symmetry c1  #important for SAPT in psi4, default
}

set PROPERTIES_ORIGIN ["COM"]
properties('MP2/aug-cc-pvtz', properties = ['dipole'])
--------------------------------------------------------------------------

    Molecular point group: c1
  Charge       = 0
  Multiplicity = 1
  Basis Set: AUG-CC-PVTZ
    Blend: AUG-CC-PVTZ
  Basis Set: (AUG-CC-PVTZ AUX)
    Blend: AUG-CC-PVTZ-JKFIT

    Orbital Energies [Eh]
    ---------------------

    Doubly Occupied:

       1A    -92.208092     2A    -20.550957     3A    -20.550931
       4A    -15.613107     5A    -11.281373     6A     -9.174122
       7A     -6.859292     8A     -6.858382     9A     -6.858288
      10A     -1.457237    11A     -1.336507    12A     -1.224103
      13A     -1.046795    14A     -0.846654    15A     -0.726336
      16A     -0.709190    17A     -0.678076    18A     -0.646937
      19A     -0.607227    20A     -0.600987    21A     -0.539190
      22A     -0.497313    23A     -0.480398    24A     -0.472380
      25A     -0.461696

  @DF-RHF Final Energy:  -642.55713490317737

   => Energetics <=

    Nuclear Repulsion Energy =            276.8640790553689612
    One-Electron Energy =               -1434.2712893739990250
    Two-Electron Energy =                 514.8500754154525794
    Total Energy =                       -642.5571349031773707
  Basis Set: (AUG-CC-PVTZ AUX)
    Blend: AUG-CC-PVTZ-RI
    Molecular point group: c1

    Geometry (in Angstrom), charge = 0, multiplicity = 1:

       Center              X                  Y                   Z               Mass
    ------------   -----------------  -----------------  -----------------  -----------------
         S           -0.051761177099     0.093904122999    -0.000346108472    31.972071174400
         O           -0.464555877099     0.726875422999     1.251858291528    15.994914619570
         O           -0.453512177099     0.722993222999    -1.258158708472    15.994914619570
         N           -0.580189177099    -1.500449877001    -0.000159108472    14.003074004430
         C            1.710260822901    -0.112265877001     0.007602891528    12.000000000000
         H            2.006572822901    -0.658764877001    -0.886713108472     1.007825032230
         H            2.151192822901     0.885255122999     0.007782891528     1.007825032230
         H            1.998800822901    -0.655556877001     0.906273891528     1.007825032230
         H           -1.119450177099    -1.689294877001    -0.841872108472     1.007825032230
         H           -1.127078177099    -1.686597877001     0.837184891528     1.007825032230

  Basis Set: AUG-CC-PVTZ
    Blend: AUG-CC-PVTZ
  Basis Set: (AUG-CC-PVTZ AUX)
    Blend: AUG-CC-PVTZ-JKFIT
	 Reference Energy          =    -642.5571349031773707 [Eh]
	 Singles Energy            =      -0.0000000000000000 [Eh]
	 Same-Spin Energy          =      -0.2999630175821450 [Eh]
	 Opposite-Spin Energy      =      -0.8912019396174371 [Eh]
	 Correlation Energy        =      -1.1911649571995822 [Eh]
	 Total Energy              =    -643.7482998603769602 [Eh]

	 ================> DF-SCS-MP2 Energies <==================
	-----------------------------------------------------------
	 SCS Same-Spin Scale       =       0.3333333333333333 [-]
	 SCS Opposite-Spin Scale   =       1.2000000000000000 [-]
	 SCS Same-Spin Energy      =      -0.0999876725273817 [Eh]
	 SCS Opposite-Spin Energy  =      -1.0694423275409244 [Eh]
	 SCS Correlation Energy    =      -1.1694300000683060 [Eh]
	 SCS Total Energy          =    -643.7265649032457304 [Eh]
	-----------------------------------------------------------

  Dipole Moment: [D]
     X:     1.6750      Y:    -3.2995      Z:     0.0126     Total:     3.7003

*** Psi4 exiting successfully. Buy a developer a beer!
