                               Psi4 1.3.2 release

  ==> Input File <==

--------------------------------------------------------------------------
#psi4
#
memory 32 gb

molecule  {
0 1
  S       -0.0598420     0.1064250    -0.0004010
  O       -0.3996217     0.7023757     1.2912880
  O       -0.4374810     0.6982890    -1.2834970
  N       -0.5882700    -1.4879290    -0.0002140
  C        1.7036792    -0.0754373     0.0644811
  H        1.9984920    -0.6462440    -0.8867680
  H        2.1431120     0.8977760     0.0077280
  H        1.9907200    -0.6430360     0.9062190
  H       -1.1275310    -1.6767740    -0.8419270
  H       -1.1351590    -1.6740770     0.8371300
units angstrom
no_reorient  #important for SAPT in psi4, default
symmetry c1  #important for SAPT in psi4, default
}

set PROPERTIES_ORIGIN ["COM"]
properties('MP2/aug-cc-pvtz', properties = ['dipole'])
--------------------------------------------------------------------------

    Molecular point group: c1
  Charge       = 0
  Multiplicity = 1
  Basis Set: AUG-CC-PVTZ
    Blend: AUG-CC-PVTZ
  Basis Set: (AUG-CC-PVTZ AUX)
    Blend: AUG-CC-PVTZ-JKFIT

    Orbital Energies [Eh]
    ---------------------

    Doubly Occupied:

       1A    -92.209330     2A    -20.558043     3A    -20.551915
       4A    -15.613598     5A    -11.276184     6A     -9.175118
       7A     -6.860330     8A     -6.859453     9A     -6.859226
      10A     -1.458876    11A     -1.343970    12A     -1.223023
      13A     -1.041567    14A     -0.846665    15A     -0.726509
      16A     -0.710878    17A     -0.678962    18A     -0.646979
      19A     -0.615571    20A     -0.588384    21A     -0.538916
      22A     -0.502498    23A     -0.480658    24A     -0.476537
      25A     -0.459626

  @DF-RHF Final Energy:  -642.55225273824078

   => Energetics <=

    Nuclear Repulsion Energy =            277.0292020184873536
    One-Electron Energy =               -1434.5572783697900832
    Two-Electron Energy =                 514.9758236130620617
    Total Energy =                       -642.5522527382407816
  Basis Set: (AUG-CC-PVTZ AUX)
    Blend: AUG-CC-PVTZ-RI
    Molecular point group: c1

    Geometry (in Angstrom), charge = 0, multiplicity = 1:

       Center              X                  Y                   Z               Mass
    ------------   -----------------  -----------------  -----------------  -----------------
         S           -0.068302868238     0.103333834310    -0.009928265300    31.972071174400
         O           -0.408082568238     0.699284534310     1.281760734700    15.994914619570
         O           -0.445941868238     0.695197834310    -1.293024265300    15.994914619570
         N           -0.596730868238    -1.491020165690    -0.009741265300    14.003074004430
         C            1.695218331762    -0.078528465690     0.054953834700    12.000000000000
         H            1.990031131762    -0.649335165690    -0.896295265300     1.007825032230
         H            2.134651131762     0.894684834310    -0.001799265300     1.007825032230
         H            1.982259131762    -0.646127165690     0.896691734700     1.007825032230
         H           -1.135991868238    -1.679865165690    -0.851454265300     1.007825032230
         H           -1.143619868238    -1.677168165690     0.827602734700     1.007825032230

  Basis Set: AUG-CC-PVTZ
    Blend: AUG-CC-PVTZ
  Basis Set: (AUG-CC-PVTZ AUX)
    Blend: AUG-CC-PVTZ-JKFIT
	 Reference Energy          =    -642.5522527382407816 [Eh]
	 Singles Energy            =      -0.0000000000000000 [Eh]
	 Same-Spin Energy          =      -0.3003157852308057 [Eh]
	 Opposite-Spin Energy      =      -0.8920841161653856 [Eh]
	 Correlation Energy        =      -1.1923999013961915 [Eh]
	 Total Energy              =    -643.7446526396370245 [Eh]

	 ================> DF-SCS-MP2 Energies <==================
	-----------------------------------------------------------
	 SCS Same-Spin Scale       =       0.3333333333333333 [-]
	 SCS Opposite-Spin Scale   =       1.2000000000000000 [-]
	 SCS Same-Spin Energy      =      -0.1001052617436019 [Eh]
	 SCS Opposite-Spin Energy  =      -1.0705009393984628 [Eh]
	 SCS Correlation Energy    =      -1.1706062011420646 [Eh]
	 SCS Total Energy          =    -643.7228589393828315 [Eh]
	-----------------------------------------------------------

  Dipole Moment: [D]
     X:     1.3838      Y:    -3.1334      Z:    -0.0449     Total:     3.4256

*** Psi4 exiting successfully. Buy a developer a beer!
