                               Psi4 1.3.2 release

  ==> Input File <==

--------------------------------------------------------------------------
#psi4
#
memory 32 gb

molecule  {
0 1
  S       -0.0598420     0.1064250    -0.0004010
  O       -0.4487500     0.7022520     1.2774130
  O       -0.4374810     0.6982890    -1.2834970
  N       -0.5253485    -1.2980846    -0.0002363
  C        1.7021800    -0.0997450     0.0075480
  H        1.9984920    -0.6462440    -0.8867680
  H        2.1431120     0.8977760     0.0077280
  H        1.9907200    -0.6430360     0.9062190
  H       -1.1275310    -1.6767740    -0.8419270
  H       -1.1351590    -1.6740770     0.8371300
units angstrom
no_reorient  #important for SAPT in psi4, default
symmetry c1  #important for SAPT in psi4, default
}

set PROPERTIES_ORIGIN ["COM"]
properties('MP2/aug-cc-pvtz', properties = ['dipole'])
--------------------------------------------------------------------------

    Molecular point group: c1
  Charge       = 0
  Multiplicity = 1
  Basis Set: AUG-CC-PVTZ
    Blend: AUG-CC-PVTZ
  Basis Set: (AUG-CC-PVTZ AUX)
    Blend: AUG-CC-PVTZ-JKFIT

    Orbital Energies [Eh]
    ---------------------

    Doubly Occupied:

       1A    -92.193003     2A    -20.538817     3A    -20.538792
       4A    -15.619798     5A    -11.266496     6A     -9.162194
       7A     -6.848568     8A     -6.846183     9A     -6.845977
      10A     -1.467328    11A     -1.331772    12A     -1.254997
      13A     -1.033332    14A     -0.858457    15A     -0.720460
      16A     -0.712288    17A     -0.685358    18A     -0.626922
      19A     -0.602636    20A     -0.589168    21A     -0.538946
      22A     -0.487489    23A     -0.473783    24A     -0.462753
      25A     -0.462115

  @DF-RHF Final Energy:  -642.51746988057255

   => Energetics <=

    Nuclear Repulsion Energy =            283.4631273438318431
    One-Electron Energy =               -1447.6259311997673649
    Two-Electron Energy =                 521.6453339753630871
    Total Energy =                       -642.5174698805725484
  Basis Set: (AUG-CC-PVTZ AUX)
    Blend: AUG-CC-PVTZ-RI
    Molecular point group: c1

    Geometry (in Angstrom), charge = 0, multiplicity = 1:

       Center              X                  Y                   Z               Mass
    ------------   -----------------  -----------------  -----------------  -----------------
         S           -0.069116528464     0.078442969367    -0.000397740692    31.972071174400
         O           -0.458024528464     0.674269969367     1.277416259308    15.994914619570
         O           -0.446755528464     0.670306969367    -1.283493740692    15.994914619570
         N           -0.534623028464    -1.326066630633    -0.000233040692    14.003074004430
         C            1.692905471536    -0.127727030633     0.007551259308    12.000000000000
         H            1.989217471536    -0.674226030633    -0.886764740692     1.007825032230
         H            2.133837471536     0.869793969367     0.007731259308     1.007825032230
         H            1.981445471536    -0.671018030633     0.906222259308     1.007825032230
         H           -1.136805528464    -1.704756030633    -0.841923740692     1.007825032230
         H           -1.144433528464    -1.702059030633     0.837133259308     1.007825032230

  Basis Set: AUG-CC-PVTZ
    Blend: AUG-CC-PVTZ
  Basis Set: (AUG-CC-PVTZ AUX)
    Blend: AUG-CC-PVTZ-JKFIT
	 Reference Energy          =    -642.5174698805725484 [Eh]
	 Singles Energy            =      -0.0000000000000000 [Eh]
	 Same-Spin Energy          =      -0.3016570955845332 [Eh]
	 Opposite-Spin Energy      =      -0.8913290557947793 [Eh]
	 Correlation Energy        =      -1.1929861513793125 [Eh]
	 Total Energy              =    -643.7104560319518214 [Eh]

	 ================> DF-SCS-MP2 Energies <==================
	-----------------------------------------------------------
	 SCS Same-Spin Scale       =       0.3333333333333333 [-]
	 SCS Opposite-Spin Scale   =       1.2000000000000000 [-]
	 SCS Same-Spin Energy      =      -0.1005523651948444 [Eh]
	 SCS Opposite-Spin Energy  =      -1.0695948669537352 [Eh]
	 SCS Correlation Energy    =      -1.1701472321485795 [Eh]
	 SCS Total Energy          =    -643.6876171127211137 [Eh]
	-----------------------------------------------------------

  Dipole Moment: [D]
     X:     1.0315      Y:    -4.2747      Z:     0.0113     Total:     4.3974

*** Psi4 exiting successfully. Buy a developer a beer!
