                               Psi4 1.3.2 release

  ==> Input File <==

--------------------------------------------------------------------------
#psi4
#
memory 32 gb

molecule  {
0 1
  S       -0.0598420     0.1064250    -0.0004010
  O       -0.4487500     0.7022520     1.2774130
  O       -0.4374810     0.6982890    -1.2834970
  N       -0.5882700    -1.4879290    -0.0002140
  C        1.6028586    -0.0881236     0.0070999
  H        1.9984920    -0.6462440    -0.8867680
  H        2.1431120     0.8977760     0.0077280
  H        1.9907200    -0.6430360     0.9062190
  H       -1.1275310    -1.6767740    -0.8419270
  H       -1.1351590    -1.6740770     0.8371300
units angstrom
no_reorient  #important for SAPT in psi4, default
symmetry c1  #important for SAPT in psi4, default
}

set PROPERTIES_ORIGIN ["COM"]
properties('MP2/aug-cc-pvtz', properties = ['dipole'])
--------------------------------------------------------------------------

    Molecular point group: c1
  Charge       = 0
  Multiplicity = 1
  Basis Set: AUG-CC-PVTZ
    Blend: AUG-CC-PVTZ
  Basis Set: (AUG-CC-PVTZ AUX)
    Blend: AUG-CC-PVTZ-JKFIT

    Orbital Energies [Eh]
    ---------------------

    Doubly Occupied:

       1A    -92.208661     2A    -20.553123     3A    -20.553098
       4A    -15.610001     5A    -11.280513     6A     -9.175711
       7A     -6.860885     8A     -6.860258     9A     -6.859832
      10A     -1.461437    11A     -1.342537    12A     -1.221727
      13A     -1.058675    14A     -0.843548    15A     -0.724797
      16A     -0.715293    17A     -0.686478    18A     -0.647442
      19A     -0.588651    20A     -0.588336    21A     -0.537519
      22A     -0.499458    23A     -0.492514    24A     -0.475122
      25A     -0.460233

  @DF-RHF Final Energy:  -642.54703171141614

   => Energetics <=

    Nuclear Repulsion Energy =            279.3667504670481208
    One-Electron Energy =               -1439.2158625041845426
    Two-Electron Energy =                 517.3020803257202260
    Total Energy =                       -642.5470317114161389
  Basis Set: (AUG-CC-PVTZ AUX)
    Blend: AUG-CC-PVTZ-RI
    Molecular point group: c1

    Geometry (in Angstrom), charge = 0, multiplicity = 1:

       Center              X                  Y                   Z               Mass
    ------------   -----------------  -----------------  -----------------  -----------------
         S           -0.047296930887     0.104957071324    -0.000344427925    31.972071174400
         O           -0.436204930887     0.700784071324     1.277469572075    15.994914619570
         O           -0.424935930887     0.696821071324    -1.283440427925    15.994914619570
         N           -0.575724930887    -1.489396928676    -0.000157427925    14.003074004430
         C            1.615403669113    -0.089591528676     0.007156472075    12.000000000000
         H            2.011037069113    -0.647711928676    -0.886711427925     1.007825032230
         H            2.155657069113     0.896308071324     0.007784572075     1.007825032230
         H            2.003265069113    -0.644503928676     0.906275572075     1.007825032230
         H           -1.114985930887    -1.678241928676    -0.841870427925     1.007825032230
         H           -1.122613930887    -1.675544928676     0.837186572075     1.007825032230

  Basis Set: AUG-CC-PVTZ
    Blend: AUG-CC-PVTZ
  Basis Set: (AUG-CC-PVTZ AUX)
    Blend: AUG-CC-PVTZ-JKFIT
	 Reference Energy          =    -642.5470317114161389 [Eh]
	 Singles Energy            =      -0.0000000000000000 [Eh]
	 Same-Spin Energy          =      -0.3009900510452731 [Eh]
	 Opposite-Spin Energy      =      -0.8922202658229206 [Eh]
	 Correlation Energy        =      -1.1932103168681936 [Eh]
	 Total Energy              =    -643.7402420282843423 [Eh]

	 ================> DF-SCS-MP2 Energies <==================
	-----------------------------------------------------------
	 SCS Same-Spin Scale       =       0.3333333333333333 [-]
	 SCS Opposite-Spin Scale   =       1.2000000000000000 [-]
	 SCS Same-Spin Energy      =      -0.1003300170150910 [Eh]
	 SCS Opposite-Spin Energy  =      -1.0706643189875047 [Eh]
	 SCS Correlation Energy    =      -1.1709943360025958 [Eh]
	 SCS Total Energy          =    -643.7180260474187889 [Eh]
	-----------------------------------------------------------

  Dipole Moment: [D]
     X:     1.7134      Y:    -3.1316      Z:     0.0125     Total:     3.5697

*** Psi4 exiting successfully. Buy a developer a beer!
