                               Psi4 1.3.2 release

  ==> Input File <==

--------------------------------------------------------------------------
#psi4
#
memory 32 gb

molecule  {
0 1
  S       -0.0612295     0.0912032    -0.0273281
  O       -0.4487500     0.7022520     1.2774130
  O       -0.4374810     0.6982890    -1.2834970
  N       -0.5882700    -1.4879290    -0.0002140
  C        1.7021800    -0.0997450     0.0075480
  H        1.9802611    -0.6471010    -0.8920827
  H        2.1431120     0.8977760     0.0077280
  H        1.9907200    -0.6430360     0.9062190
  H       -1.1275310    -1.6767740    -0.8419270
  H       -1.1351590    -1.6740770     0.8371300
units angstrom
no_reorient  #important for SAPT in psi4, default
symmetry c1  #important for SAPT in psi4, default
}

set PROPERTIES_ORIGIN ["COM"]
properties('MP2/aug-cc-pvtz', properties = ['dipole'])
--------------------------------------------------------------------------

    Molecular point group: c1
  Charge       = 0
  Multiplicity = 1
  Basis Set: AUG-CC-PVTZ
    Blend: AUG-CC-PVTZ
  Basis Set: (AUG-CC-PVTZ AUX)
    Blend: AUG-CC-PVTZ-JKFIT

    Orbital Energies [Eh]
    ---------------------

    Doubly Occupied:

       1A    -92.208444     2A    -20.558751     3A    -20.546707
       4A    -15.613840     5A    -11.278610     6A     -9.174513
       7A     -6.859736     8A     -6.858788     9A     -6.858582
      10A     -1.458028    11A     -1.335470    12A     -1.227118
      13A     -1.044320    14A     -0.847571    15A     -0.729123
      16A     -0.710022    17A     -0.677893    18A     -0.647224
      19A     -0.605933    20A     -0.600422    21A     -0.539280
      22A     -0.500365    23A     -0.479411    24A     -0.472447
      25A     -0.459952

  @DF-RHF Final Energy:  -642.55535328995484

   => Energetics <=

    Nuclear Repulsion Energy =            277.0397128561653517
    One-Electron Energy =               -1434.6050367855314107
    Two-Electron Energy =                 515.0099706394112218
    Total Energy =                       -642.5553532899548372
  Basis Set: (AUG-CC-PVTZ AUX)
    Blend: AUG-CC-PVTZ-RI
    Molecular point group: c1

    Geometry (in Angstrom), charge = 0, multiplicity = 1:

       Center              X                  Y                   Z               Mass
    ------------   -----------------  -----------------  -----------------  -----------------
         S           -0.060569412681     0.096334912622    -0.018209874278    31.972071174400
         O           -0.448089912681     0.707383712622     1.286531225722    15.994914619570
         O           -0.436820912681     0.703420712622    -1.274378774278    15.994914619570
         N           -0.587609912681    -1.482797287378     0.008904225722    14.003074004430
         C            1.702840087319    -0.094613287378     0.016666225722    12.000000000000
         H            1.980921187319    -0.641969287378    -0.882964474278     1.007825032230
         H            2.143772087319     0.902907712622     0.016846225722     1.007825032230
         H            1.991380087319    -0.637904287378     0.915337225722     1.007825032230
         H           -1.126870912681    -1.671642287378    -0.832808774278     1.007825032230
         H           -1.134498912681    -1.668945287378     0.846248225722     1.007825032230

  Basis Set: AUG-CC-PVTZ
    Blend: AUG-CC-PVTZ
  Basis Set: (AUG-CC-PVTZ AUX)
    Blend: AUG-CC-PVTZ-JKFIT
	 Reference Energy          =    -642.5553532899548372 [Eh]
	 Singles Energy            =      -0.0000000000000000 [Eh]
	 Same-Spin Energy          =      -0.3002914636602410 [Eh]
	 Opposite-Spin Energy      =      -0.8917610502172399 [Eh]
	 Correlation Energy        =      -1.1920525138774809 [Eh]
	 Total Energy              =    -643.7474058038322937 [Eh]

	 ================> DF-SCS-MP2 Energies <==================
	-----------------------------------------------------------
	 SCS Same-Spin Scale       =       0.3333333333333333 [-]
	 SCS Opposite-Spin Scale   =       1.2000000000000000 [-]
	 SCS Same-Spin Energy      =      -0.1000971545534136 [Eh]
	 SCS Opposite-Spin Energy  =      -1.0701132602606880 [Eh]
	 SCS Correlation Energy    =      -1.1702104148141017 [Eh]
	 SCS Total Energy          =    -643.7255637047688879 [Eh]
	-----------------------------------------------------------

  Dipole Moment: [D]
     X:     1.5194      Y:    -3.2648      Z:    -0.2532     Total:     3.6099

*** Psi4 exiting successfully. Buy a developer a beer!
