                               Psi4 1.3.2 release

  ==> Input File <==

--------------------------------------------------------------------------
#psi4
#
memory 32 gb

molecule  {
0 1
  S       -0.0598420     0.1064250    -0.0004010
  O       -0.4242413     0.7024046     1.2845462
  O       -0.4374810     0.6982890    -1.2834970
  N       -0.5882700    -1.4879290    -0.0002140
  C        1.7031981    -0.0876207     0.0360201
  H        1.9984920    -0.6462440    -0.8867680
  H        2.1431120     0.8977760     0.0077280
  H        1.9907200    -0.6430360     0.9062190
  H       -1.1275310    -1.6767740    -0.8419270
  H       -1.1351590    -1.6740770     0.8371300
units angstrom
no_reorient  #important for SAPT in psi4, default
symmetry c1  #important for SAPT in psi4, default
}

set PROPERTIES_ORIGIN ["COM"]
properties('MP2/aug-cc-pvtz', properties = ['dipole'])
--------------------------------------------------------------------------

    Molecular point group: c1
  Charge       = 0
  Multiplicity = 1
  Basis Set: AUG-CC-PVTZ
    Blend: AUG-CC-PVTZ
  Basis Set: (AUG-CC-PVTZ AUX)
    Blend: AUG-CC-PVTZ-JKFIT

    Orbital Energies [Eh]
    ---------------------

    Doubly Occupied:

       1A    -92.209092     2A    -20.556231     3A    -20.553141
       4A    -15.612236     5A    -11.277233     6A     -9.174921
       7A     -6.860133     8A     -6.859198     9A     -6.859082
      10A     -1.458683    11A     -1.343223    12A     -1.222125
      13A     -1.042783    14A     -0.846105    15A     -0.725655
      16A     -0.710034    17A     -0.678570    18A     -0.647088
      19A     -0.610139    20A     -0.595952    21A     -0.538507
      22A     -0.502104    23A     -0.479769    24A     -0.477364
      25A     -0.460250

  @DF-RHF Final Energy:  -642.55591293767998

   => Energetics <=

    Nuclear Repulsion Energy =            277.0069384562531241
    One-Electron Energy =               -1434.5264686183907088
    Two-Electron Energy =                 514.9636172244574936
    Total Energy =                       -642.5559129376799774
  Basis Set: (AUG-CC-PVTZ AUX)
    Blend: AUG-CC-PVTZ-RI
    Molecular point group: c1

    Geometry (in Angstrom), charge = 0, multiplicity = 1:

       Center              X                  Y                   Z               Mass
    ------------   -----------------  -----------------  -----------------  -----------------
         S           -0.064097138152     0.104867858079    -0.005198295569    31.972071174400
         O           -0.428496438152     0.700847458079     1.279748904431    15.994914619570
         O           -0.441736138152     0.696731858079    -1.288294295569    15.994914619570
         N           -0.592525138152    -1.489486141921    -0.005011295569    14.003074004430
         C            1.698942961848    -0.089177841921     0.031222804431    12.000000000000
         H            1.994236861848    -0.647801141921    -0.891565295569     1.007825032230
         H            2.138856861848     0.896218858079     0.002930704431     1.007825032230
         H            1.986464861848    -0.644593141921     0.901421704431     1.007825032230
         H           -1.131786138152    -1.678331141921    -0.846724295569     1.007825032230
         H           -1.139414138152    -1.675634141921     0.832332704431     1.007825032230

  Basis Set: AUG-CC-PVTZ
    Blend: AUG-CC-PVTZ
  Basis Set: (AUG-CC-PVTZ AUX)
    Blend: AUG-CC-PVTZ-JKFIT
	 Reference Energy          =    -642.5559129376799774 [Eh]
	 Singles Energy            =      -0.0000000000000000 [Eh]
	 Same-Spin Energy          =      -0.3002132431081224 [Eh]
	 Opposite-Spin Energy      =      -0.8917969824780527 [Eh]
	 Correlation Energy        =      -1.1920102255861751 [Eh]
	 Total Energy              =    -643.7479231632661367 [Eh]

	 ================> DF-SCS-MP2 Energies <==================
	-----------------------------------------------------------
	 SCS Same-Spin Scale       =       0.3333333333333333 [-]
	 SCS Opposite-Spin Scale   =       1.2000000000000000 [-]
	 SCS Same-Spin Energy      =      -0.1000710810360408 [Eh]
	 SCS Opposite-Spin Energy  =      -1.0701563789736632 [Eh]
	 SCS Correlation Energy    =      -1.1702274600097040 [Eh]
	 SCS Total Energy          =    -643.7261403976897327 [Eh]
	-----------------------------------------------------------

  Dipole Moment: [D]
     X:     1.4654      Y:    -3.1257      Z:    -0.0186     Total:     3.4522

*** Psi4 exiting successfully. Buy a developer a beer!
