                               Psi4 1.3.2 release

  ==> Input File <==

--------------------------------------------------------------------------
#psi4
#
memory 32 gb

molecule  {
0 1
  S       -0.0606029     0.0988217    -0.0138654
  O       -0.4487500     0.7022520     1.2774130
  O       -0.4374810     0.6982890    -1.2834970
  N       -0.5882700    -1.4879290    -0.0002140
  C        1.7021800    -0.0997450     0.0075480
  H        1.9893875    -0.6466933    -0.8894595
  H        2.1431120     0.8977760     0.0077280
  H        1.9907200    -0.6430360     0.9062190
  H       -1.1275310    -1.6767740    -0.8419270
  H       -1.1351590    -1.6740770     0.8371300
units angstrom
no_reorient  #important for SAPT in psi4, default
symmetry c1  #important for SAPT in psi4, default
}

set PROPERTIES_ORIGIN ["COM"]
properties('MP2/aug-cc-pvtz', properties = ['dipole'])
--------------------------------------------------------------------------

    Molecular point group: c1
  Charge       = 0
  Multiplicity = 1
  Basis Set: AUG-CC-PVTZ
    Blend: AUG-CC-PVTZ
  Basis Set: (AUG-CC-PVTZ AUX)
    Blend: AUG-CC-PVTZ-JKFIT

    Orbital Energies [Eh]
    ---------------------

    Doubly Occupied:

       1A    -92.208761     2A    -20.556604     3A    -20.550588
       4A    -15.612379     5A    -11.278554     6A     -9.174692
       7A     -6.859911     8A     -6.858944     9A     -6.858833
      10A     -1.457615    11A     -1.339543    12A     -1.224287
      13A     -1.044170    14A     -0.846647    15A     -0.726967
      16A     -0.709737    17A     -0.677967    18A     -0.647546
      19A     -0.605387    20A     -0.601238    21A     -0.538543
      22A     -0.500721    23A     -0.479461    24A     -0.475401
      25A     -0.460612

  @DF-RHF Final Energy:  -642.55670375715727

   => Energetics <=

    Nuclear Repulsion Energy =            277.0150665114437629
    One-Electron Energy =               -1434.5533279384283105
    Two-Electron Energy =                 514.9815576698272253
    Total Energy =                       -642.5567037571572655
  Basis Set: (AUG-CC-PVTZ AUX)
    Blend: AUG-CC-PVTZ-RI
    Molecular point group: c1

    Geometry (in Angstrom), charge = 0, multiplicity = 1:

       Center              X                  Y                   Z               Mass
    ------------   -----------------  -----------------  -----------------  -----------------
         S           -0.060250499552     0.101385206454    -0.009305652608    31.972071174400
         O           -0.448397599552     0.704815506454     1.281972747392    15.994914619570
         O           -0.437128599552     0.700852506454    -1.278937252608    15.994914619570
         N           -0.587917599552    -1.485365493546     0.004345747392    14.003074004430
         C            1.702532400448    -0.097181493546     0.012107747392    12.000000000000
         H            1.989739900448    -0.644129793546    -0.884899752608     1.007825032230
         H            2.143464400448     0.900339506454     0.012287747392     1.007825032230
         H            1.991072400448    -0.640472493546     0.910778747392     1.007825032230
         H           -1.127178599552    -1.674210493546    -0.837367252608     1.007825032230
         H           -1.134806599552    -1.671513493546     0.841689747392     1.007825032230

  Basis Set: AUG-CC-PVTZ
    Blend: AUG-CC-PVTZ
  Basis Set: (AUG-CC-PVTZ AUX)
    Blend: AUG-CC-PVTZ-JKFIT
	 Reference Energy          =    -642.5567037571572655 [Eh]
	 Singles Energy            =      -0.0000000000000000 [Eh]
	 Same-Spin Energy          =      -0.3002298177953116 [Eh]
	 Opposite-Spin Energy      =      -0.8917021417212063 [Eh]
	 Correlation Energy        =      -1.1919319595165179 [Eh]
	 Total Energy              =    -643.7486357166737889 [Eh]

	 ================> DF-SCS-MP2 Energies <==================
	-----------------------------------------------------------
	 SCS Same-Spin Scale       =       0.3333333333333333 [-]
	 SCS Opposite-Spin Scale   =       1.2000000000000000 [-]
	 SCS Same-Spin Energy      =      -0.1000766059317705 [Eh]
	 SCS Opposite-Spin Energy  =      -1.0700425700654475 [Eh]
	 SCS Correlation Energy    =      -1.1701191759972180 [Eh]
	 SCS Total Energy          =    -643.7268229331544944 [Eh]
	-----------------------------------------------------------

  Dipole Moment: [D]
     X:     1.5296      Y:    -3.1896      Z:    -0.1205     Total:     3.5394

*** Psi4 exiting successfully. Buy a developer a beer!
