                               Psi4 1.3.2 release

  ==> Input File <==

--------------------------------------------------------------------------
#psi4
#
memory 32 gb

molecule  {
0 1
  S       -0.0598420     0.1064250    -0.0004010
  O       -0.4487500     0.7022520     1.2774130
  O       -0.4374810     0.6982890    -1.2834970
  N       -0.6197307    -1.5828512    -0.0002029
  C        1.7021800    -0.0997450     0.0075480
  H        1.9984920    -0.6462440    -0.8867680
  H        2.1431120     0.8977760     0.0077280
  H        1.9907200    -0.6430360     0.9062190
  H       -1.1275310    -1.6767740    -0.8419270
  H       -1.1351590    -1.6740770     0.8371300
units angstrom
no_reorient  #important for SAPT in psi4, default
symmetry c1  #important for SAPT in psi4, default
}

set PROPERTIES_ORIGIN ["COM"]
properties('MP2/aug-cc-pvtz', properties = ['dipole'])
--------------------------------------------------------------------------

    Molecular point group: c1
  Charge       = 0
  Multiplicity = 1
  Basis Set: AUG-CC-PVTZ
    Blend: AUG-CC-PVTZ
  Basis Set: (AUG-CC-PVTZ AUX)
    Blend: AUG-CC-PVTZ-JKFIT

    Orbital Energies [Eh]
    ---------------------

    Doubly Occupied:

       1A    -92.212097     2A    -20.560611     3A    -20.560586
       4A    -15.608235     5A    -11.282533     6A     -9.177756
       7A     -6.862675     8A     -6.861909     9A     -6.861851
      10A     -1.458274    11A     -1.346731    12A     -1.210484
      13A     -1.047702    14A     -0.840910    15A     -0.735338
      16A     -0.700860    17A     -0.677879    18A     -0.655197
      19A     -0.605751    20A     -0.604144    21A     -0.533526
      22A     -0.506774    23A     -0.484216    24A     -0.483129
      25A     -0.454629

  @DF-RHF Final Energy:  -642.54851988915618

   => Energetics <=

    Nuclear Repulsion Energy =            274.1771256319733538
    One-Electron Energy =               -1428.7836910722874109
    Two-Electron Energy =                 512.0580455511579885
    Total Energy =                       -642.5485198891561822
  Basis Set: (AUG-CC-PVTZ AUX)
    Blend: AUG-CC-PVTZ-RI
    Molecular point group: c1

    Geometry (in Angstrom), charge = 0, multiplicity = 1:

       Center              X                  Y                   Z               Mass
    ------------   -----------------  -----------------  -----------------  -----------------
         S           -0.055205118986     0.120415976758    -0.000402663666    31.972071174400
         O           -0.444113118986     0.716242976758     1.277411336334    15.994914619570
         O           -0.432844118986     0.712279976758    -1.283498663666    15.994914619570
         N           -0.615093818986    -1.568860223242    -0.000204563666    14.003074004430
         C            1.706816881014    -0.085754023242     0.007546336334    12.000000000000
         H            2.003128881014    -0.632253023242    -0.886769663666     1.007825032230
         H            2.147748881014     0.911766976758     0.007726336334     1.007825032230
         H            1.995356881014    -0.629045023242     0.906217336334     1.007825032230
         H           -1.122894118986    -1.662783023242    -0.841928663666     1.007825032230
         H           -1.130522118986    -1.660086023242     0.837128336334     1.007825032230

  Basis Set: AUG-CC-PVTZ
    Blend: AUG-CC-PVTZ
  Basis Set: (AUG-CC-PVTZ AUX)
    Blend: AUG-CC-PVTZ-JKFIT
	 Reference Energy          =    -642.5485198891561822 [Eh]
	 Singles Energy            =      -0.0000000000000000 [Eh]
	 Same-Spin Energy          =      -0.3003038876585549 [Eh]
	 Opposite-Spin Energy      =      -0.8935515192059473 [Eh]
	 Correlation Energy        =      -1.1938554068645022 [Eh]
	 Total Energy              =    -643.7423752960206684 [Eh]

	 ================> DF-SCS-MP2 Energies <==================
	-----------------------------------------------------------
	 SCS Same-Spin Scale       =       0.3333333333333333 [-]
	 SCS Opposite-Spin Scale   =       1.2000000000000000 [-]
	 SCS Same-Spin Energy      =      -0.1001012958861850 [Eh]
	 SCS Opposite-Spin Energy  =      -1.0722618230471368 [Eh]
	 SCS Correlation Energy    =      -1.1723631189333217 [Eh]
	 SCS Total Energy          =    -643.7208830080894586 [Eh]
	-----------------------------------------------------------

  Dipole Moment: [D]
     X:     1.7359      Y:    -2.5990      Z:     0.0117     Total:     3.1254

*** Psi4 exiting successfully. Buy a developer a beer!
