                               Psi4 1.4a3.dev225

  ==> Input File <==

--------------------------------------------------------------------------
#psi4
#
memory 32 gb

molecule  {
0 1
  S        0.0496630    -0.1768790     0.0000010
  O        0.1652750    -0.8848783     1.3283735
  O        0.1614460    -0.8614400    -1.2843720
  N        1.2328540     0.9913630    -0.0000040
  C       -1.5173820     0.6822410    -0.0000030
  H       -1.5963900     1.2940100    -0.8996310
  H       -2.3012170    -0.0772020     0.0000010
  H       -1.5963900     1.2940180     0.8996200
  H        1.2952780     1.5346040    -0.8557480
  H        1.2952780     1.5346110     0.8557360
units angstrom
no_reorient  #important for SAPT in psi4, default
symmetry c1  #important for SAPT in psi4, default
}

set PROPERTIES_ORIGIN ["COM"]
properties('MP2/aug-cc-pvtz', properties = ['dipole'])
--------------------------------------------------------------------------

    Molecular point group: c1
  Charge       = 0
  Multiplicity = 1
  Basis Set: AUG-CC-PVTZ
    Blend: AUG-CC-PVTZ
  Basis Set: (AUG-CC-PVTZ AUX)
    Blend: AUG-CC-PVTZ-JKFIT

    Orbital Energies [Eh]
    ---------------------

    Doubly Occupied:

       1A    -92.213889     2A    -20.555527     3A    -20.550879
       4A    -15.615881     5A    -11.286304     6A     -9.178334
       7A     -6.863716     8A     -6.862764     9A     -6.862262
      10A     -1.445822    11A     -1.327139    12A     -1.223747
      13A     -1.043976    14A     -0.854566    15A     -0.735051
      16A     -0.718836    17A     -0.671083    18A     -0.646917
      19A     -0.613749    20A     -0.601534    21A     -0.509186
      22A     -0.496925    23A     -0.481160    24A     -0.471316
      25A     -0.461633

  @DF-RHF Final Energy:  -642.54685383510139

   => Energetics <=

    Nuclear Repulsion Energy =            274.9134914251312694
    One-Electron Energy =               -1430.3363038699933441
    Two-Electron Energy =                 512.8759586097606871
    Total Energy =                       -642.5468538351013876
  Basis Set: (AUG-CC-PVTZ AUX)
    Blend: AUG-CC-PVTZ-RI
    Molecular point group: c1

    Geometry (in Angstrom), charge = 0, multiplicity = 1:

       Center              X                  Y                   Z               Mass
    ------------   -----------------  -----------------  -----------------  -----------------
         S            0.018688497190    -0.114832481423    -0.007406238492    31.972071174400
         O            0.134300497190    -0.822831781423     1.320966261508    15.994914619570
         O            0.130471497190    -0.799393481423    -1.291779238492    15.994914619570
         N            1.201879497190     1.053409518577    -0.007411238492    14.003074004430
         C           -1.548356502810     0.744287518577    -0.007410238492    12.000000000000
         H           -1.627364502810     1.356056518577    -0.907038238492     1.007825032230
         H           -2.332191502810    -0.015155481423    -0.007406238492     1.007825032230
         H           -1.627364502810     1.356064518577     0.892212761508     1.007825032230
         H            1.264303497190     1.596650518577    -0.863155238492     1.007825032230
         H            1.264303497190     1.596657518577     0.848328761508     1.007825032230

  Basis Set: AUG-CC-PVTZ
    Blend: AUG-CC-PVTZ
  Basis Set: (AUG-CC-PVTZ AUX)
    Blend: AUG-CC-PVTZ-JKFIT
	 Reference Energy          =    -642.5468538351013876 [Eh]
	 Singles Energy            =      -0.0000000000000000 [Eh]
	 Same-Spin Energy          =      -0.3010296517609298 [Eh]
	 Opposite-Spin Energy      =      -0.8938608055424946 [Eh]
	 Correlation Energy        =      -1.1948904573034245 [Eh]
	 Total Energy              =    -643.7417442924048601 [Eh]

	 ================> DF-SCS-MP2 Energies <==================
	-----------------------------------------------------------
	 SCS Same-Spin Scale       =       0.3333333333333333 [-]
	 SCS Opposite-Spin Scale   =       1.2000000000000000 [-]
	 SCS Same-Spin Energy      =      -0.1003432172536433 [Eh]
	 SCS Opposite-Spin Energy  =      -1.0726329666509935 [Eh]
	 SCS Correlation Energy    =      -1.1729761839046366 [Eh]
	 SCS Total Energy          =    -643.7198300190060536 [Eh]
	-----------------------------------------------------------

  Dipole Moment: [D]
     X:    -1.5116      Y:     5.1655      Z:    -0.2349     Total:     5.3873

*** Psi4 exiting successfully. Buy a developer a beer!
