                               Psi4 1.3.2 release

  ==> Input File <==

--------------------------------------------------------------------------
#psi4
#
memory 32 gb

molecule  {
0 1
  S       -0.0598420     0.1064250    -0.0004010
  O       -0.4487500     0.7022520     1.2774130
  O       -0.4374810     0.6982890    -1.2834970
  N       -0.6021629    -1.4832570    -0.0002814
  C        1.7039121    -0.0843607     0.0075316
  H        1.9984920    -0.6462440    -0.8867680
  H        2.1431120     0.8977760     0.0077280
  H        1.9907200    -0.6430360     0.9062190
  H       -1.1275310    -1.6767740    -0.8419270
  H       -1.1351590    -1.6740770     0.8371300
units angstrom
no_reorient  #important for SAPT in psi4, default
symmetry c1  #important for SAPT in psi4, default
}

set PROPERTIES_ORIGIN ["COM"]
properties('MP2/aug-cc-pvtz', properties = ['dipole'])
--------------------------------------------------------------------------

    Molecular point group: c1
  Charge       = 0
  Multiplicity = 1
  Basis Set: AUG-CC-PVTZ
    Blend: AUG-CC-PVTZ
  Basis Set: (AUG-CC-PVTZ AUX)
    Blend: AUG-CC-PVTZ-JKFIT

    Orbital Energies [Eh]
    ---------------------

    Doubly Occupied:

       1A    -92.209049     2A    -20.553727     3A    -20.553702
       4A    -15.609809     5A    -11.279036     6A     -9.174837
       7A     -6.860052     8A     -6.859074     9A     -6.859048
      10A     -1.458253    11A     -1.342061    12A     -1.222103
      13A     -1.044502    14A     -0.846650    15A     -0.728616
      16A     -0.710070    17A     -0.678505    18A     -0.647183
      19A     -0.609563    20A     -0.599328    21A     -0.537077
      22A     -0.501301    23A     -0.479384    24A     -0.476989
      25A     -0.459752

  @DF-RHF Final Energy:  -642.55746263942012

   => Energetics <=

    Nuclear Repulsion Energy =            277.0207006342968157
    One-Electron Energy =               -1434.5569803758746730
    Two-Electron Energy =                 514.9788171021576773
    Total Energy =                       -642.5574626394201232
  Basis Set: (AUG-CC-PVTZ AUX)
    Blend: AUG-CC-PVTZ-RI
    Molecular point group: c1

    Geometry (in Angstrom), charge = 0, multiplicity = 1:

       Center              X                  Y                   Z               Mass
    ------------   -----------------  -----------------  -----------------  -----------------
         S           -0.058013296788     0.103793151427    -0.000389021714    31.972071174400
         O           -0.446921296788     0.699620151427     1.277424978286    15.994914619570
         O           -0.435652296788     0.695657151427    -1.283485021714    15.994914619570
         N           -0.600334196788    -1.485888848573    -0.000269421714    14.003074004430
         C            1.705740803212    -0.086992548573     0.007543578286    12.000000000000
         H            2.000320703212    -0.648875848573    -0.886756021714     1.007825032230
         H            2.144940703212     0.895144151427     0.007739978286     1.007825032230
         H            1.992548703212    -0.645667848573     0.906230978286     1.007825032230
         H           -1.125702296788    -1.679405848573    -0.841915021714     1.007825032230
         H           -1.133330296788    -1.676708848573     0.837141978286     1.007825032230

  Basis Set: AUG-CC-PVTZ
    Blend: AUG-CC-PVTZ
  Basis Set: (AUG-CC-PVTZ AUX)
    Blend: AUG-CC-PVTZ-JKFIT
	 Reference Energy          =    -642.5574626394201232 [Eh]
	 Singles Energy            =      -0.0000000000000000 [Eh]
	 Same-Spin Energy          =      -0.3000348123649659 [Eh]
	 Opposite-Spin Energy      =      -0.8913279607619354 [Eh]
	 Correlation Energy        =      -1.1913627731269014 [Eh]
	 Total Energy              =    -643.7488254125470348 [Eh]

	 ================> DF-SCS-MP2 Energies <==================
	-----------------------------------------------------------
	 SCS Same-Spin Scale       =       0.3333333333333333 [-]
	 SCS Opposite-Spin Scale   =       1.2000000000000000 [-]
	 SCS Same-Spin Energy      =      -0.1000116041216553 [Eh]
	 SCS Opposite-Spin Energy  =      -1.0695935529143226 [Eh]
	 SCS Correlation Energy    =      -1.1696051570359778 [Eh]
	 SCS Total Energy          =    -643.7270677964561401 [Eh]
	-----------------------------------------------------------

  Dipole Moment: [D]
     X:     1.5741      Y:    -3.1381      Z:     0.0119     Total:     3.5107

*** Psi4 exiting successfully. Buy a developer a beer!
