                               Psi4 1.3.2 release

  ==> Input File <==

--------------------------------------------------------------------------
#psi4
#
memory 32 gb

molecule  {
0 1
  S       -0.0598420     0.1064250    -0.0004010
  O       -0.4487500     0.7022520     1.2774130
  O       -0.4374810     0.6982890    -1.2834970
  N       -0.6511915    -1.6777734    -0.0001917
  C        1.7021800    -0.0997450     0.0075480
  H        1.9984920    -0.6462440    -0.8867680
  H        2.1431120     0.8977760     0.0077280
  H        1.9907200    -0.6430360     0.9062190
  H       -1.1275310    -1.6767740    -0.8419270
  H       -1.1351590    -1.6740770     0.8371300
units angstrom
no_reorient  #important for SAPT in psi4, default
symmetry c1  #important for SAPT in psi4, default
}

set PROPERTIES_ORIGIN ["COM"]
properties('MP2/aug-cc-pvtz', properties = ['dipole'])
--------------------------------------------------------------------------

    Molecular point group: c1
  Charge       = 0
  Multiplicity = 1
  Basis Set: AUG-CC-PVTZ
    Blend: AUG-CC-PVTZ
  Basis Set: (AUG-CC-PVTZ AUX)
    Blend: AUG-CC-PVTZ-JKFIT

    Orbital Energies [Eh]
    ---------------------

    Doubly Occupied:

       1A    -92.213144     2A    -20.565884     3A    -20.565859
       4A    -15.607911     5A    -11.285478     6A     -9.179092
       7A     -6.863826     8A     -6.863084     9A     -6.863027
      10A     -1.458936    11A     -1.350270    12A     -1.202746
      13A     -1.050355    14A     -0.837942    15A     -0.744630
      16A     -0.692985    17A     -0.677998    18A     -0.660289
      19A     -0.608545    20A     -0.602964    21A     -0.526678
      22A     -0.510583    23A     -0.488556    24A     -0.487674
      25A     -0.447588

  @DF-RHF Final Energy:  -642.53019943515369

   => Energetics <=

    Nuclear Repulsion Energy =            271.5555177532317543
    One-Electron Energy =               -1423.4593473254426499
    Two-Electron Energy =                 509.3736301370573187
    Total Energy =                       -642.5301994351536905
  Basis Set: (AUG-CC-PVTZ AUX)
    Blend: AUG-CC-PVTZ-RI
    Molecular point group: c1

    Geometry (in Angstrom), charge = 0, multiplicity = 1:

       Center              X                  Y                   Z               Mass
    ------------   -----------------  -----------------  -----------------  -----------------
         S           -0.050567972667     0.134406979222    -0.000404314483    31.972071174400
         O           -0.439475972667     0.730233979222     1.277409685517    15.994914619570
         O           -0.428206972667     0.726270979222    -1.283500314483    15.994914619570
         N           -0.641917472667    -1.649791420778    -0.000195014483    14.003074004430
         C            1.711454027333    -0.071763020778     0.007544685517    12.000000000000
         H            2.007766027333    -0.618262020778    -0.886771314483     1.007825032230
         H            2.152386027333     0.925757979222     0.007724685517     1.007825032230
         H            1.999994027333    -0.615054020778     0.906215685517     1.007825032230
         H           -1.118256972667    -1.648792020778    -0.841930314483     1.007825032230
         H           -1.125884972667    -1.646095020778     0.837126685517     1.007825032230

  Basis Set: AUG-CC-PVTZ
    Blend: AUG-CC-PVTZ
  Basis Set: (AUG-CC-PVTZ AUX)
    Blend: AUG-CC-PVTZ-JKFIT
	 Reference Energy          =    -642.5301994351536905 [Eh]
	 Singles Energy            =      -0.0000000000000000 [Eh]
	 Same-Spin Energy          =      -0.3009221227032850 [Eh]
	 Opposite-Spin Energy      =      -0.8964759098334767 [Eh]
	 Correlation Energy        =      -1.1973980325367617 [Eh]
	 Total Energy              =    -643.7275974676904298 [Eh]

	 ================> DF-SCS-MP2 Energies <==================
	-----------------------------------------------------------
	 SCS Same-Spin Scale       =       0.3333333333333333 [-]
	 SCS Opposite-Spin Scale   =       1.2000000000000000 [-]
	 SCS Same-Spin Energy      =      -0.1003073742344283 [Eh]
	 SCS Opposite-Spin Energy  =      -1.0757710918001719 [Eh]
	 SCS Correlation Energy    =      -1.1760784660346002 [Eh]
	 SCS Total Energy          =    -643.7062779011882867 [Eh]
	-----------------------------------------------------------

  Dipole Moment: [D]
     X:     1.9059      Y:    -2.1104      Z:     0.0117     Total:     2.8437

*** Psi4 exiting successfully. Buy a developer a beer!
