                               Psi4 1.3.2 release

  ==> Input File <==

--------------------------------------------------------------------------
#psi4
#
memory 32 gb

molecule  {
0 1
  S       -0.0598420     0.1064250    -0.0004010
  O       -0.4487500     0.7022520     1.2774130
  O       -0.4269013     0.7203400    -1.2761852
  N       -0.5773156    -1.4912870     0.0267691
  C        1.7021800    -0.0997450     0.0075480
  H        1.9984920    -0.6462440    -0.8867680
  H        2.1431120     0.8977760     0.0077280
  H        1.9907200    -0.6430360     0.9062190
  H       -1.1275310    -1.6767740    -0.8419270
  H       -1.1351590    -1.6740770     0.8371300
units angstrom
no_reorient  #important for SAPT in psi4, default
symmetry c1  #important for SAPT in psi4, default
}

set PROPERTIES_ORIGIN ["COM"]
properties('MP2/aug-cc-pvtz', properties = ['dipole'])
--------------------------------------------------------------------------

    Molecular point group: c1
  Charge       = 0
  Multiplicity = 1
  Basis Set: AUG-CC-PVTZ
    Blend: AUG-CC-PVTZ
  Basis Set: (AUG-CC-PVTZ AUX)
    Blend: AUG-CC-PVTZ-JKFIT

    Orbital Energies [Eh]
    ---------------------

    Doubly Occupied:

       1A    -92.208789     2A    -20.556215     3A    -20.552314
       4A    -15.613738     5A    -11.277594     6A     -9.174720
       7A     -6.859924     8A     -6.858942     9A     -6.858916
      10A     -1.458539    11A     -1.341934    12A     -1.222360
      13A     -1.043262    14A     -0.845952    15A     -0.723771
      16A     -0.708354    17A     -0.678352    18A     -0.646915
      19A     -0.604492    20A     -0.601133    21A     -0.539588
      22A     -0.501252    23A     -0.479589    24A     -0.477062
      25A     -0.461128

  @DF-RHF Final Energy:  -642.55575059657235

   => Energetics <=

    Nuclear Repulsion Energy =            276.9448595297607199
    One-Electron Energy =               -1434.4115466675928019
    Two-Electron Energy =                 514.9109365412598436
    Total Energy =                       -642.5557505965723522
  Basis Set: (AUG-CC-PVTZ AUX)
    Blend: AUG-CC-PVTZ-RI
    Molecular point group: c1

    Geometry (in Angstrom), charge = 0, multiplicity = 1:

       Center              X                  Y                   Z               Mass
    ------------   -----------------  -----------------  -----------------  -----------------
         S           -0.063238068993     0.103207412725    -0.005609202446    31.972071174400
         O           -0.452146068993     0.699034412725     1.272204797554    15.994914619570
         O           -0.430297368993     0.717122412725    -1.281393402446    15.994914619570
         N           -0.580711668993    -1.494504587275     0.021560897554    14.003074004430
         C            1.698783931007    -0.102962587275     0.002339797554    12.000000000000
         H            1.995095931007    -0.649461587275    -0.891976202446     1.007825032230
         H            2.139715931007     0.894558412725     0.002519797554     1.007825032230
         H            1.987323931007    -0.646253587275     0.901010797554     1.007825032230
         H           -1.130927068993    -1.679991587275    -0.847135202446     1.007825032230
         H           -1.138555068993    -1.677294587275     0.831921797554     1.007825032230

  Basis Set: AUG-CC-PVTZ
    Blend: AUG-CC-PVTZ
  Basis Set: (AUG-CC-PVTZ AUX)
    Blend: AUG-CC-PVTZ-JKFIT
	 Reference Energy          =    -642.5557505965723522 [Eh]
	 Singles Energy            =      -0.0000000000000000 [Eh]
	 Same-Spin Energy          =      -0.3002467955477083 [Eh]
	 Opposite-Spin Energy      =      -0.8919067892851488 [Eh]
	 Correlation Energy        =      -1.1921535848328570 [Eh]
	 Total Energy              =    -643.7479041814052607 [Eh]

	 ================> DF-SCS-MP2 Energies <==================
	-----------------------------------------------------------
	 SCS Same-Spin Scale       =       0.3333333333333333 [-]
	 SCS Opposite-Spin Scale   =       1.2000000000000000 [-]
	 SCS Same-Spin Energy      =      -0.1000822651825694 [Eh]
	 SCS Opposite-Spin Energy  =      -1.0702881471421786 [Eh]
	 SCS Correlation Energy    =      -1.1703704123247480 [Eh]
	 SCS Total Energy          =    -643.7261210088970529 [Eh]
	-----------------------------------------------------------

  Dipole Moment: [D]
     X:     1.4824      Y:    -3.1617      Z:    -0.0708     Total:     3.4927

*** Psi4 exiting successfully. Buy a developer a beer!
