                               Psi4 1.3.2 release

  ==> Input File <==

--------------------------------------------------------------------------
#psi4
#
memory 32 gb

molecule  {
0 1
  S       -0.0598420     0.1064250    -0.0004010
  O       -0.4547672     0.7116079     1.2711554
  O       -0.4435533     0.7076647    -1.2773215
  N       -0.5882700    -1.4879290    -0.0002140
  C        1.7021800    -0.0997450     0.0075480
  H        1.9984920    -0.6462440    -0.8867680
  H        2.1431120     0.8977760     0.0077280
  H        1.9907200    -0.6430360     0.9062190
  H       -1.1275310    -1.6767740    -0.8419270
  H       -1.1351590    -1.6740770     0.8371300
units angstrom
no_reorient  #important for SAPT in psi4, default
symmetry c1  #important for SAPT in psi4, default
}

set PROPERTIES_ORIGIN ["COM"]
properties('MP2/aug-cc-pvtz', properties = ['dipole'])
--------------------------------------------------------------------------

    Molecular point group: c1
  Charge       = 0
  Multiplicity = 1
  Basis Set: AUG-CC-PVTZ
    Blend: AUG-CC-PVTZ
  Basis Set: (AUG-CC-PVTZ AUX)
    Blend: AUG-CC-PVTZ-JKFIT

    Orbital Energies [Eh]
    ---------------------

    Doubly Occupied:

       1A    -92.208759     2A    -20.553619     3A    -20.553594
       4A    -15.611445     5A    -11.279248     6A     -9.174661
       7A     -6.859863     8A     -6.858884     9A     -6.858870
      10A     -1.458251    11A     -1.341097    12A     -1.221974
      13A     -1.044748    14A     -0.845987    15A     -0.725233
      16A     -0.709532    17A     -0.678395    18A     -0.647682
      19A     -0.605545    20A     -0.601737    21A     -0.538378
      22A     -0.500702    23A     -0.479721    24A     -0.476437
      25A     -0.460652

  @DF-RHF Final Energy:  -642.55740620960239

   => Energetics <=

    Nuclear Repulsion Energy =            276.9582816670717307
    One-Electron Energy =               -1434.4413442460970600
    Two-Electron Energy =                 514.9256563694228817
    Total Energy =                       -642.5574062096023908
  Basis Set: (AUG-CC-PVTZ AUX)
    Blend: AUG-CC-PVTZ-RI
    Molecular point group: c1

    Geometry (in Angstrom), charge = 0, multiplicity = 1:

       Center              X                  Y                   Z               Mass
    ------------   -----------------  -----------------  -----------------  -----------------
         S           -0.057806859239     0.103271317305    -0.000387205211    31.972071174400
         O           -0.452732059239     0.708454217305     1.271169194789    15.994914619570
         O           -0.441518159239     0.704511017305    -1.277307705211    15.994914619570
         N           -0.586234859239    -1.491082682695    -0.000200205211    14.003074004430
         C            1.704215140761    -0.102898682695     0.007561794789    12.000000000000
         H            2.000527140761    -0.649397682695    -0.886754205211     1.007825032230
         H            2.145147140761     0.894622317305     0.007741794789     1.007825032230
         H            1.992755140761    -0.646189682695     0.906232794789     1.007825032230
         H           -1.125495859239    -1.679927682695    -0.841913205211     1.007825032230
         H           -1.133123859239    -1.677230682695     0.837143794789     1.007825032230

  Basis Set: AUG-CC-PVTZ
    Blend: AUG-CC-PVTZ
  Basis Set: (AUG-CC-PVTZ AUX)
    Blend: AUG-CC-PVTZ-JKFIT
	 Reference Energy          =    -642.5574062096023908 [Eh]
	 Singles Energy            =      -0.0000000000000000 [Eh]
	 Same-Spin Energy          =      -0.3001036923713848 [Eh]
	 Opposite-Spin Energy      =      -0.8915176472906973 [Eh]
	 Correlation Energy        =      -1.1916213396620821 [Eh]
	 Total Energy              =    -643.7490275492644969 [Eh]

	 ================> DF-SCS-MP2 Energies <==================
	-----------------------------------------------------------
	 SCS Same-Spin Scale       =       0.3333333333333333 [-]
	 SCS Opposite-Spin Scale   =       1.2000000000000000 [-]
	 SCS Same-Spin Energy      =      -0.1000345641237949 [Eh]
	 SCS Opposite-Spin Energy  =      -1.0698211767488366 [Eh]
	 SCS Correlation Energy    =      -1.1698557408726316 [Eh]
	 SCS Total Energy          =    -643.7272619504750537 [Eh]
	-----------------------------------------------------------

  Dipole Moment: [D]
     X:     1.5752      Y:    -3.1610      Z:     0.0119     Total:     3.5318

*** Psi4 exiting successfully. Buy a developer a beer!
