                               Psi4 1.3.2 release

  ==> Input File <==

--------------------------------------------------------------------------
#psi4
#
memory 32 gb

molecule  {
0 1
  S       -0.0598420     0.1064250    -0.0004010
  O       -0.4243895     0.6643818     1.3014658
  O       -0.4129089     0.6603428    -1.3072171
  N       -0.5882700    -1.4879290    -0.0002140
  C        1.7021800    -0.0997450     0.0075480
  H        1.9984920    -0.6462440    -0.8867680
  H        2.1431120     0.8977760     0.0077280
  H        1.9907200    -0.6430360     0.9062190
  H       -1.1275310    -1.6767740    -0.8419270
  H       -1.1351590    -1.6740770     0.8371300
units angstrom
no_reorient  #important for SAPT in psi4, default
symmetry c1  #important for SAPT in psi4, default
}

set PROPERTIES_ORIGIN ["COM"]
properties('MP2/aug-cc-pvtz', properties = ['dipole'])
--------------------------------------------------------------------------

    Molecular point group: c1
  Charge       = 0
  Multiplicity = 1
  Basis Set: AUG-CC-PVTZ
    Blend: AUG-CC-PVTZ
  Basis Set: (AUG-CC-PVTZ AUX)
    Blend: AUG-CC-PVTZ-JKFIT

    Orbital Energies [Eh]
    ---------------------

    Doubly Occupied:

       1A    -92.209697     2A    -20.557696     3A    -20.557672
       4A    -15.608633     5A    -11.275615     6A     -9.175429
       7A     -6.860680     8A     -6.859691     9A     -6.859584
      10A     -1.459999    11A     -1.348032    12A     -1.218353
      13A     -1.041249    14A     -0.844978    15A     -0.723405
      16A     -0.710015    17A     -0.678744    18A     -0.649126
      19A     -0.602628    20A     -0.602441    21A     -0.536954
      22A     -0.505715    23A     -0.482107    24A     -0.478295
      25A     -0.458825

  @DF-RHF Final Energy:  -642.55539057974397

   => Energetics <=

    Nuclear Repulsion Energy =            277.1685765075912968
    One-Electron Energy =               -1434.8368064069577485
    Two-Electron Energy =                 515.1128393196224806
    Total Energy =                       -642.5553905797439711
  Basis Set: (AUG-CC-PVTZ AUX)
    Blend: AUG-CC-PVTZ-RI
    Molecular point group: c1

    Geometry (in Angstrom), charge = 0, multiplicity = 1:

       Center              X                  Y                   Z               Mass
    ------------   -----------------  -----------------  -----------------  -----------------
         S           -0.068080555676     0.119189442882    -0.000457041045    31.972071174400
         O           -0.432628055676     0.677146242882     1.301409758955    15.994914619570
         O           -0.421147455676     0.673107242882    -1.307273141045    15.994914619570
         N           -0.596508555676    -1.475164557118    -0.000270041045    14.003074004430
         C            1.693941444324    -0.086980557118     0.007491958955    12.000000000000
         H            1.990253444324    -0.633479557118    -0.886824041045     1.007825032230
         H            2.134873444324     0.910540442882     0.007671958955     1.007825032230
         H            1.982481444324    -0.630271557118     0.906162958955     1.007825032230
         H           -1.135769555676    -1.664009557118    -0.841983041045     1.007825032230
         H           -1.143397555676    -1.661312557118     0.837073958955     1.007825032230

  Basis Set: AUG-CC-PVTZ
    Blend: AUG-CC-PVTZ
  Basis Set: (AUG-CC-PVTZ AUX)
    Blend: AUG-CC-PVTZ-JKFIT
	 Reference Energy          =    -642.5553905797439711 [Eh]
	 Singles Energy            =      -0.0000000000000000 [Eh]
	 Same-Spin Energy          =      -0.3004475063320095 [Eh]
	 Opposite-Spin Energy      =      -0.8922917509416647 [Eh]
	 Correlation Energy        =      -1.1927392572736741 [Eh]
	 Total Energy              =    -643.7481298370177001 [Eh]

	 ================> DF-SCS-MP2 Energies <==================
	-----------------------------------------------------------
	 SCS Same-Spin Scale       =       0.3333333333333333 [-]
	 SCS Opposite-Spin Scale   =       1.2000000000000000 [-]
	 SCS Same-Spin Energy      =      -0.1001491687773365 [Eh]
	 SCS Opposite-Spin Energy  =      -1.0707501011299976 [Eh]
	 SCS Correlation Energy    =      -1.1708992699073342 [Eh]
	 SCS Total Energy          =    -643.7262898496512662 [Eh]
	-----------------------------------------------------------

  Dipole Moment: [D]
     X:     1.4060      Y:    -2.9281      Z:     0.0108     Total:     3.2482

*** Psi4 exiting successfully. Buy a developer a beer!
