                               Psi4 1.3.2 release

  ==> Input File <==

--------------------------------------------------------------------------
#psi4
#
memory 32 gb

molecule  {
0 1
  S       -0.0623929     0.0605898    -0.0811422
  O       -0.4487500     0.7022520     1.2774130
  O       -0.4374810     0.6982890    -1.2834970
  N       -0.5882700    -1.4879290    -0.0002140
  C        1.7021800    -0.0997450     0.0075480
  H        1.9435507    -0.6483145    -0.9018885
  H        2.1431120     0.8977760     0.0077280
  H        1.9907200    -0.6430360     0.9062190
  H       -1.1275310    -1.6767740    -0.8419270
  H       -1.1351590    -1.6740770     0.8371300
units angstrom
no_reorient  #important for SAPT in psi4, default
symmetry c1  #important for SAPT in psi4, default
}

set PROPERTIES_ORIGIN ["COM"]
properties('MP2/aug-cc-pvtz', properties = ['dipole'])
--------------------------------------------------------------------------

    Molecular point group: c1
  Charge       = 0
  Multiplicity = 1
  Basis Set: AUG-CC-PVTZ
    Blend: AUG-CC-PVTZ
  Basis Set: (AUG-CC-PVTZ AUX)
    Blend: AUG-CC-PVTZ-JKFIT

    Orbital Energies [Eh]
    ---------------------

    Doubly Occupied:

       1A    -92.206138     2A    -20.567215     3A    -20.531272
       4A    -15.619377     5A    -11.279149     6A     -9.173382
       7A     -6.858610     8A     -6.857648     9A     -6.857170
      10A     -1.469420    11A     -1.314077    12A     -1.235069
      13A     -1.045277    14A     -0.851690    15A     -0.737910
      16A     -0.712945    17A     -0.681311    18A     -0.646422
      19A     -0.608582    20A     -0.597806    21A     -0.543961
      22A     -0.504400    23A     -0.476907    24A     -0.457658
      25A     -0.448614

  @DF-RHF Final Energy:  -642.54243676172086

   => Energetics <=

    Nuclear Repulsion Energy =            277.1763178033300505
    One-Electron Energy =               -1434.8734861512457428
    Two-Electron Energy =                 515.1547315861948846
    Total Energy =                       -642.5424367617208645
  Basis Set: (AUG-CC-PVTZ AUX)
    Blend: AUG-CC-PVTZ-RI
    Molecular point group: c1

    Geometry (in Angstrom), charge = 0, multiplicity = 1:

       Center              X                  Y                   Z               Mass
    ------------   -----------------  -----------------  -----------------  -----------------
         S           -0.060951857249     0.076036823263    -0.053809699591    31.972071174400
         O           -0.447308957249     0.717699023263     1.304745500409    15.994914619570
         O           -0.436039957249     0.713736023263    -1.256164499591    15.994914619570
         N           -0.586828957249    -1.472481976737     0.027118500409    14.003074004430
         C            1.703621042751    -0.084297976737     0.034880500409    12.000000000000
         H            1.944991742751    -0.632867476737    -0.874555999591     1.007825032230
         H            2.144553042751     0.913223023263     0.035060500409     1.007825032230
         H            1.992161042751    -0.627588976737     0.933551500409     1.007825032230
         H           -1.126089957249    -1.661326976737    -0.814594499591     1.007825032230
         H           -1.133717957249    -1.658629976737     0.864462500409     1.007825032230

  Basis Set: AUG-CC-PVTZ
    Blend: AUG-CC-PVTZ
  Basis Set: (AUG-CC-PVTZ AUX)
    Blend: AUG-CC-PVTZ-JKFIT
	 Reference Energy          =    -642.5424367617208645 [Eh]
	 Singles Energy            =      -0.0000000000000000 [Eh]
	 Same-Spin Energy          =      -0.3004824043187941 [Eh]
	 Opposite-Spin Energy      =      -0.8920651530384207 [Eh]
	 Correlation Energy        =      -1.1925475573572148 [Eh]
	 Total Energy              =    -643.7349843190780803 [Eh]

	 ================> DF-SCS-MP2 Energies <==================
	-----------------------------------------------------------
	 SCS Same-Spin Scale       =       0.3333333333333333 [-]
	 SCS Opposite-Spin Scale   =       1.2000000000000000 [-]
	 SCS Same-Spin Energy      =      -0.1001608014395980 [Eh]
	 SCS Opposite-Spin Energy  =      -1.0704781836461048 [Eh]
	 SCS Correlation Energy    =      -1.1706389850857029 [Eh]
	 SCS Total Energy          =    -643.7130757468065667 [Eh]
	-----------------------------------------------------------

  Dipole Moment: [D]
     X:     1.4962      Y:    -3.5671      Z:    -0.7878     Total:     3.9476

*** Psi4 exiting successfully. Buy a developer a beer!
