                               Psi4 1.3.2 release

  ==> Input File <==

--------------------------------------------------------------------------
#psi4
#
memory 32 gb

molecule  {
0 1
  S       -0.0598420     0.1064250    -0.0004010
  O       -0.4487500     0.7022520     1.2774130
  O       -0.4374810     0.6982890    -1.2834970
  N       -0.5882700    -1.4879290    -0.0002140
  C        1.7021800    -0.0997450     0.0075480
  H        1.9984920    -0.6462440    -0.8867680
  H        2.1431120     0.8977760     0.0077280
  H        1.9907200    -0.6430360     0.9062190
  H       -1.0215153    -1.6396481    -0.6764509
  H       -1.1351590    -1.6740770     0.8371300
units angstrom
no_reorient  #important for SAPT in psi4, default
symmetry c1  #important for SAPT in psi4, default
}

set PROPERTIES_ORIGIN ["COM"]
properties('MP2/aug-cc-pvtz', properties = ['dipole'])
--------------------------------------------------------------------------

    Molecular point group: c1
  Charge       = 0
  Multiplicity = 1
  Basis Set: AUG-CC-PVTZ
    Blend: AUG-CC-PVTZ
  Basis Set: (AUG-CC-PVTZ AUX)
    Blend: AUG-CC-PVTZ-JKFIT

    Orbital Energies [Eh]
    ---------------------

    Doubly Occupied:

       1A    -92.210879     2A    -20.556794     3A    -20.555782
       4A    -15.591304     5A    -11.279377     6A     -9.176741
       7A     -6.861970     8A     -6.860968     9A     -6.860949
      10A     -1.461739    11A     -1.344249    12A     -1.262673
      13A     -1.048651    14A     -0.863130    15A     -0.765665
      16A     -0.713852    17A     -0.680231    18A     -0.652783
      19A     -0.606565    20A     -0.603584    21A     -0.541578
      22A     -0.504446    23A     -0.482866    24A     -0.479645
      25A     -0.463824

  @DF-RHF Final Energy:  -642.51258072528753

   => Energetics <=

    Nuclear Repulsion Energy =            278.3088674632745665
    One-Electron Energy =               -1436.7824083740820242
    Two-Electron Energy =                 515.9609601855199799
    Total Energy =                       -642.5125807252875347
  Basis Set: (AUG-CC-PVTZ AUX)
    Blend: AUG-CC-PVTZ-RI
    Molecular point group: c1

    Geometry (in Angstrom), charge = 0, multiplicity = 1:

       Center              X                  Y                   Z               Mass
    ------------   -----------------  -----------------  -----------------  -----------------
         S           -0.060966889152     0.106031134328    -0.002156435581    31.972071174400
         O           -0.449874889152     0.701858134328     1.275657564419    15.994914619570
         O           -0.438605889152     0.697895134328    -1.285252435581    15.994914619570
         N           -0.589394889152    -1.488322865672    -0.001969435581    14.003074004430
         C            1.701055110848    -0.100138865672     0.005792564419    12.000000000000
         H            1.997367110848    -0.646637865672    -0.888523435581     1.007825032230
         H            2.141987110848     0.897382134328     0.005972564419     1.007825032230
         H            1.989595110848    -0.643429865672     0.904463564419     1.007825032230
         H           -1.022640189152    -1.640041965672    -0.678206335581     1.007825032230
         H           -1.136283889152    -1.674470865672     0.835374564419     1.007825032230

  Basis Set: AUG-CC-PVTZ
    Blend: AUG-CC-PVTZ
  Basis Set: (AUG-CC-PVTZ AUX)
    Blend: AUG-CC-PVTZ-JKFIT
	 Reference Energy          =    -642.5125807252875347 [Eh]
	 Singles Energy            =      -0.0000000000000000 [Eh]
	 Same-Spin Energy          =      -0.2991459850334119 [Eh]
	 Opposite-Spin Energy      =      -0.8893902598052927 [Eh]
	 Correlation Energy        =      -1.1885362448387047 [Eh]
	 Total Energy              =    -643.7011169701262361 [Eh]

	 ================> DF-SCS-MP2 Energies <==================
	-----------------------------------------------------------
	 SCS Same-Spin Scale       =       0.3333333333333333 [-]
	 SCS Opposite-Spin Scale   =       1.2000000000000000 [-]
	 SCS Same-Spin Energy      =      -0.0997153283444706 [Eh]
	 SCS Opposite-Spin Energy  =      -1.0672683117663513 [Eh]
	 SCS Correlation Energy    =      -1.1669836401108220 [Eh]
	 SCS Total Energy          =    -643.6795643653983916 [Eh]
	-----------------------------------------------------------

  Dipole Moment: [D]
     X:     1.6324      Y:    -3.0336      Z:     0.1626     Total:     3.4488

*** Psi4 exiting successfully. Buy a developer a beer!
