                               Psi4 1.3.2 release

  ==> Input File <==

--------------------------------------------------------------------------
#psi4
#
memory 32 gb

molecule  {
0 1
  S       -0.0598420     0.1064250    -0.0004010
  O       -0.4487500     0.7022520     1.2774130
  O       -0.4252092     0.6983762    -1.2870051
  N       -0.5882700    -1.4879290    -0.0002140
  C        1.7028795    -0.0937349    -0.0067022
  H        1.9984920    -0.6462440    -0.8867680
  H        2.1431120     0.8977760     0.0077280
  H        1.9907200    -0.6430360     0.9062190
  H       -1.1275310    -1.6767740    -0.8419270
  H       -1.1351590    -1.6740770     0.8371300
units angstrom
no_reorient  #important for SAPT in psi4, default
symmetry c1  #important for SAPT in psi4, default
}

set PROPERTIES_ORIGIN ["COM"]
properties('MP2/aug-cc-pvtz', properties = ['dipole'])
--------------------------------------------------------------------------

    Molecular point group: c1
  Charge       = 0
  Multiplicity = 1
  Basis Set: AUG-CC-PVTZ
    Blend: AUG-CC-PVTZ
  Basis Set: (AUG-CC-PVTZ AUX)
    Blend: AUG-CC-PVTZ-JKFIT

    Orbital Energies [Eh]
    ---------------------

    Doubly Occupied:

       1A    -92.209014     2A    -20.555352     3A    -20.553776
       4A    -15.611560     5A    -11.277852     6A     -9.174862
       7A     -6.860073     8A     -6.859109     9A     -6.859049
      10A     -1.458627    11A     -1.342879    12A     -1.221687
      13A     -1.043411    14A     -0.845907    15A     -0.725251
      16A     -0.709775    17A     -0.678478    18A     -0.647429
      19A     -0.607320    20A     -0.599360    21A     -0.538305
      22A     -0.501927    23A     -0.479482    24A     -0.477656
      25A     -0.460332

  @DF-RHF Final Energy:  -642.55688263962440

   => Energetics <=

    Nuclear Repulsion Energy =            276.9996964467783300
    One-Electron Energy =               -1434.5162119708622868
    Two-Electron Energy =                 514.9596328844594382
    Total Energy =                       -642.5568826396244049
  Basis Set: (AUG-CC-PVTZ AUX)
    Blend: AUG-CC-PVTZ-RI
    Molecular point group: c1

    Geometry (in Angstrom), charge = 0, multiplicity = 1:

       Center              X                  Y                   Z               Mass
    ------------   -----------------  -----------------  -----------------  -----------------
         S           -0.061996688049     0.105651155513     0.001989544619    31.972071174400
         O           -0.450904688049     0.701478155513     1.279803544619    15.994914619570
         O           -0.427363888049     0.697602355513    -1.284614555381    15.994914619570
         N           -0.590424688049    -1.488702844487     0.002176544619    14.003074004430
         C            1.700724811951    -0.094508744487    -0.004311655381    12.000000000000
         H            1.996337311951    -0.647017844487    -0.884377455381     1.007825032230
         H            2.140957311951     0.897002155513     0.010118544619     1.007825032230
         H            1.988565311951    -0.643809844487     0.908609544619     1.007825032230
         H           -1.129685688049    -1.677547844487    -0.839536455381     1.007825032230
         H           -1.137313688049    -1.674850844487     0.839520544619     1.007825032230

  Basis Set: AUG-CC-PVTZ
    Blend: AUG-CC-PVTZ
  Basis Set: (AUG-CC-PVTZ AUX)
    Blend: AUG-CC-PVTZ-JKFIT
	 Reference Energy          =    -642.5568826396244049 [Eh]
	 Singles Energy            =      -0.0000000000000000 [Eh]
	 Same-Spin Energy          =      -0.3001811600342706 [Eh]
	 Opposite-Spin Energy      =      -0.8917049375704306 [Eh]
	 Correlation Energy        =      -1.1918860976047012 [Eh]
	 Total Energy              =    -643.7487687372290566 [Eh]

	 ================> DF-SCS-MP2 Energies <==================
	-----------------------------------------------------------
	 SCS Same-Spin Scale       =       0.3333333333333333 [-]
	 SCS Opposite-Spin Scale   =       1.2000000000000000 [-]
	 SCS Same-Spin Energy      =      -0.1000603866780902 [Eh]
	 SCS Opposite-Spin Energy  =      -1.0700459250845167 [Eh]
	 SCS Correlation Energy    =      -1.1701063117626069 [Eh]
	 SCS Total Energy          =    -643.7269889513870567 [Eh]
	-----------------------------------------------------------

  Dipole Moment: [D]
     X:     1.5040      Y:    -3.1205      Z:     0.0270     Total:     3.4642

*** Psi4 exiting successfully. Buy a developer a beer!
