                               Psi4 1.4a3.dev225

  ==> Input File <==

--------------------------------------------------------------------------
#psi4
#
memory 32 gb

molecule  {
0 1
  S        0.0496630    -0.1768790     0.0000010
  O        0.1614460    -0.8614300     1.2843790
  O        0.1614460    -0.8614400    -1.2843720
  N        1.2328540     0.9913630    -0.0000040
  C       -1.5173820     0.6822410    -0.0000030
  H       -1.5963900     1.2940100    -0.8996310
  H       -2.3012170    -0.0772020     0.0000010
  H       -1.5963900     1.2940180     0.8996200
  H        1.2940486     1.5239054    -0.8388949
  H        1.2952780     1.5346110     0.8557360
units angstrom
no_reorient  #important for SAPT in psi4, default
symmetry c1  #important for SAPT in psi4, default
}

set PROPERTIES_ORIGIN ["COM"]
properties('MP2/aug-cc-pvtz', properties = ['dipole'])
--------------------------------------------------------------------------

    Molecular point group: c1
  Charge       = 0
  Multiplicity = 1
  Basis Set: AUG-CC-PVTZ
    Blend: AUG-CC-PVTZ
  Basis Set: (AUG-CC-PVTZ AUX)
    Blend: AUG-CC-PVTZ-JKFIT

    Orbital Energies [Eh]
    ---------------------

    Doubly Occupied:

       1A    -92.209955     2A    -20.551714     3A    -20.551547
       4A    -15.610777     5A    -11.283169     6A     -9.174879
       7A     -6.860284     8A     -6.859306     9A     -6.859157
      10A     -1.457720    11A     -1.341484    12A     -1.225144
      13A     -1.041540    14A     -0.851779    15A     -0.736960
      16A     -0.721468    17A     -0.674892    18A     -0.648269
      19A     -0.612693    20A     -0.605109    21A     -0.513908
      22A     -0.500684    23A     -0.481970    24A     -0.476452
      25A     -0.461943

  @DF-RHF Final Energy:  -642.55477544463099

   => Energetics <=

    Nuclear Repulsion Energy =            277.1831488763485254
    One-Electron Energy =               -1434.8502452291870668
    Two-Electron Energy =                 515.1123209082076073
    Total Energy =                       -642.5547754446309909
  Basis Set: (AUG-CC-PVTZ AUX)
    Blend: AUG-CC-PVTZ-RI
    Molecular point group: c1

    Geometry (in Angstrom), charge = 0, multiplicity = 1:

       Center              X                  Y                   Z               Mass
    ------------   -----------------  -----------------  -----------------  -----------------
         S            0.019346190368    -0.118666750062    -0.000178094672    31.972071174400
         O            0.131129190368    -0.803217750062     1.284199905328    15.994914619570
         O            0.131129190368    -0.803227750062    -1.284551094672    15.994914619570
         N            1.202537190368     1.049575249938    -0.000183094672    14.003074004430
         C           -1.547698809632     0.740453249938    -0.000182094672    12.000000000000
         H           -1.626706809632     1.352222249938    -0.899810094672     1.007825032230
         H           -2.331533809632    -0.018989750062    -0.000178094672     1.007825032230
         H           -1.626706809632     1.352230249938     0.899440905328     1.007825032230
         H            1.263731790368     1.582117649938    -0.839073994672     1.007825032230
         H            1.264961190368     1.592823249938     0.855556905328     1.007825032230

  Basis Set: AUG-CC-PVTZ
    Blend: AUG-CC-PVTZ
  Basis Set: (AUG-CC-PVTZ AUX)
    Blend: AUG-CC-PVTZ-JKFIT
	 Reference Energy          =    -642.5547754446309909 [Eh]
	 Singles Energy            =      -0.0000000000000000 [Eh]
	 Same-Spin Energy          =      -0.2999987412527366 [Eh]
	 Opposite-Spin Energy      =      -0.8911020173074012 [Eh]
	 Correlation Energy        =      -1.1911007585601379 [Eh]
	 Total Energy              =    -643.7458762031910737 [Eh]

	 ================> DF-SCS-MP2 Energies <==================
	-----------------------------------------------------------
	 SCS Same-Spin Scale       =       0.3333333333333333 [-]
	 SCS Opposite-Spin Scale   =       1.2000000000000000 [-]
	 SCS Same-Spin Energy      =      -0.0999995804175789 [Eh]
	 SCS Opposite-Spin Energy  =      -1.0693224207688814 [Eh]
	 SCS Correlation Energy    =      -1.1693220011864602 [Eh]
	 SCS Total Energy          =    -643.7240974458175060 [Eh]
	-----------------------------------------------------------

  Dipole Moment: [D]
     X:    -1.4849      Y:     5.0080      Z:     0.0149     Total:     5.2235

*** Psi4 exiting successfully. Buy a developer a beer!
