                               Psi4 1.3.2 release

  ==> Input File <==

--------------------------------------------------------------------------
#psi4
#
memory 32 gb

molecule  {
0 1
  S       -0.0598420     0.1064250    -0.0004010
  O       -0.4487500     0.7022520     1.2774130
  O       -0.4374810     0.6982890    -1.2834970
  N       -0.5603645    -1.4969084    -0.0000792
  C        1.6983133    -0.1304654     0.0075789
  H        1.9984920    -0.6462440    -0.8867680
  H        2.1431120     0.8977760     0.0077280
  H        1.9907200    -0.6430360     0.9062190
  H       -1.1275310    -1.6767740    -0.8419270
  H       -1.1351590    -1.6740770     0.8371300
units angstrom
no_reorient  #important for SAPT in psi4, default
symmetry c1  #important for SAPT in psi4, default
}

set PROPERTIES_ORIGIN ["COM"]
properties('MP2/aug-cc-pvtz', properties = ['dipole'])
--------------------------------------------------------------------------

    Molecular point group: c1
  Charge       = 0
  Multiplicity = 1
  Basis Set: AUG-CC-PVTZ
    Blend: AUG-CC-PVTZ
  Basis Set: (AUG-CC-PVTZ AUX)
    Blend: AUG-CC-PVTZ-JKFIT

    Orbital Energies [Eh]
    ---------------------

    Doubly Occupied:

       1A    -92.208878     2A    -20.555977     3A    -20.555952
       4A    -15.613266     5A    -11.277693     6A     -9.174885
       7A     -6.860101     8A     -6.859091     9A     -6.859071
      10A     -1.459317    11A     -1.343562    12A     -1.219610
      13A     -1.043202    14A     -0.844205    15A     -0.717679
      16A     -0.708593    17A     -0.679004    18A     -0.649561
      19A     -0.606670    20A     -0.595544    21A     -0.539824
      22A     -0.502655    23A     -0.479522    24A     -0.479018
      25A     -0.461427

  @DF-RHF Final Energy:  -642.55448853378925

   => Energetics <=

    Nuclear Repulsion Energy =            276.9486931493294151
    One-Electron Energy =               -1434.4177498764115626
    Two-Electron Energy =                 514.9145681932930074
    Total Energy =                       -642.5544885337892538
  Basis Set: (AUG-CC-PVTZ AUX)
    Blend: AUG-CC-PVTZ-RI
    Molecular point group: c1

    Geometry (in Angstrom), charge = 0, multiplicity = 1:

       Center              X                  Y                   Z               Mass
    ------------   -----------------  -----------------  -----------------  -----------------
         S           -0.063466961322     0.111628791866    -0.000424799345    31.972071174400
         O           -0.452374961322     0.707455791866     1.277389200655    15.994914619570
         O           -0.441105961322     0.703492791866    -1.283520799345    15.994914619570
         N           -0.563989461322    -1.491704608134    -0.000102999345    14.003074004430
         C            1.694688338678    -0.125261608134     0.007555100655    12.000000000000
         H            1.994867038678    -0.641040208134    -0.886791799345     1.007825032230
         H            2.139487038678     0.902979791866     0.007704200655     1.007825032230
         H            1.987095038678    -0.637832208134     0.906195200655     1.007825032230
         H           -1.131155961322    -1.671570208134    -0.841950799345     1.007825032230
         H           -1.138783961322    -1.668873208134     0.837106200655     1.007825032230

  Basis Set: AUG-CC-PVTZ
    Blend: AUG-CC-PVTZ
  Basis Set: (AUG-CC-PVTZ AUX)
    Blend: AUG-CC-PVTZ-JKFIT
	 Reference Energy          =    -642.5544885337892538 [Eh]
	 Singles Energy            =      -0.0000000000000000 [Eh]
	 Same-Spin Energy          =      -0.3004791082422028 [Eh]
	 Opposite-Spin Energy      =      -0.8924478923527337 [Eh]
	 Correlation Energy        =      -1.1929270005949364 [Eh]
	 Total Energy              =    -643.7474155343842313 [Eh]

	 ================> DF-SCS-MP2 Energies <==================
	-----------------------------------------------------------
	 SCS Same-Spin Scale       =       0.3333333333333333 [-]
	 SCS Opposite-Spin Scale   =       1.2000000000000000 [-]
	 SCS Same-Spin Energy      =      -0.1001597027474009 [Eh]
	 SCS Opposite-Spin Energy  =      -1.0709374708232804 [Eh]
	 SCS Correlation Energy    =      -1.1710971735706812 [Eh]
	 SCS Total Energy          =    -643.7255857073599827 [Eh]
	-----------------------------------------------------------

  Dipole Moment: [D]
     X:     1.4750      Y:    -3.0722      Z:     0.0113     Total:     3.4080

*** Psi4 exiting successfully. Buy a developer a beer!
