                               Psi4 1.3.2 release

  ==> Input File <==

--------------------------------------------------------------------------
#psi4
#
memory 32 gb

molecule  {
0 1
  S       -0.0598420     0.1064250    -0.0004010
  O       -0.4487500     0.7022520     1.2774130
  O       -0.4374810     0.6982890    -1.2834970
  N       -0.5568093    -1.3930068    -0.0002251
  C        1.7021800    -0.0997450     0.0075480
  H        1.9984920    -0.6462440    -0.8867680
  H        2.1431120     0.8977760     0.0077280
  H        1.9907200    -0.6430360     0.9062190
  H       -1.1275310    -1.6767740    -0.8419270
  H       -1.1351590    -1.6740770     0.8371300
units angstrom
no_reorient  #important for SAPT in psi4, default
symmetry c1  #important for SAPT in psi4, default
}

set PROPERTIES_ORIGIN ["COM"]
properties('MP2/aug-cc-pvtz', properties = ['dipole'])
--------------------------------------------------------------------------

    Molecular point group: c1
  Charge       = 0
  Multiplicity = 1
  Basis Set: AUG-CC-PVTZ
    Blend: AUG-CC-PVTZ
  Basis Set: (AUG-CC-PVTZ AUX)
    Blend: AUG-CC-PVTZ-JKFIT

    Orbital Energies [Eh]
    ---------------------

    Doubly Occupied:

       1A    -92.202882     2A    -20.547239     3A    -20.547214
       4A    -15.615153     5A    -11.273225     6A     -9.169759
       7A     -6.855424     8A     -6.853973     9A     -6.853892
      10A     -1.460941    11A     -1.337580    12A     -1.236282
      13A     -1.039252    14A     -0.852137    15A     -0.716844
      16A     -0.716477    17A     -0.680567    18A     -0.638250
      19A     -0.604633    20A     -0.596591    21A     -0.539812
      22A     -0.495341    23A     -0.474955    24A     -0.470990
      25A     -0.464014

  @DF-RHF Final Energy:  -642.54966295491738

   => Energetics <=

    Nuclear Repulsion Energy =            280.0675210277072438
    One-Electron Energy =               -1440.7475136860962266
    Two-Electron Energy =                 518.1303297034716024
    Total Energy =                       -642.5496629549173804
  Basis Set: (AUG-CC-PVTZ AUX)
    Blend: AUG-CC-PVTZ-RI
    Molecular point group: c1

    Geometry (in Angstrom), charge = 0, multiplicity = 1:

       Center              X                  Y                   Z               Mass
    ------------   -----------------  -----------------  -----------------  -----------------
         S           -0.064479382145     0.092433971831    -0.000399391510    31.972071174400
         O           -0.453387382145     0.688260971831     1.277414608490    15.994914619570
         O           -0.442118382145     0.684297971831    -1.283495391510    15.994914619570
         N           -0.561446682145    -1.406997828169    -0.000223491510    14.003074004430
         C            1.697542617855    -0.113736028169     0.007549608490    12.000000000000
         H            1.993854617855    -0.660235028169    -0.886766391510     1.007825032230
         H            2.138474617855     0.883784971831     0.007729608490     1.007825032230
         H            1.986082617855    -0.657027028169     0.906220608490     1.007825032230
         H           -1.132168382145    -1.690765028169    -0.841925391510     1.007825032230
         H           -1.139796382145    -1.688068028169     0.837131608490     1.007825032230

  Basis Set: AUG-CC-PVTZ
    Blend: AUG-CC-PVTZ
  Basis Set: (AUG-CC-PVTZ AUX)
    Blend: AUG-CC-PVTZ-JKFIT
	 Reference Energy          =    -642.5496629549173804 [Eh]
	 Singles Energy            =      -0.0000000000000000 [Eh]
	 Same-Spin Energy          =      -0.3005840338367812 [Eh]
	 Opposite-Spin Energy      =      -0.8908576876432321 [Eh]
	 Correlation Energy        =      -1.1914417214800133 [Eh]
	 Total Energy              =    -643.7411046763974127 [Eh]

	 ================> DF-SCS-MP2 Energies <==================
	-----------------------------------------------------------
	 SCS Same-Spin Scale       =       0.3333333333333333 [-]
	 SCS Opposite-Spin Scale   =       1.2000000000000000 [-]
	 SCS Same-Spin Energy      =      -0.1001946779455937 [Eh]
	 SCS Opposite-Spin Energy  =      -1.0690292251718785 [Eh]
	 SCS Correlation Energy    =      -1.1692239031174723 [Eh]
	 SCS Total Energy          =    -643.7188868580348071 [Eh]
	-----------------------------------------------------------

  Dipole Moment: [D]
     X:     1.3086      Y:    -3.6724      Z:     0.0116     Total:     3.8986

*** Psi4 exiting successfully. Buy a developer a beer!
