                               Psi4 1.4a3.dev225

  ==> Input File <==

--------------------------------------------------------------------------
#psi4
#
memory 32 gb

molecule  {
0 1
  S        0.0496630    -0.1768790     0.0000010
  O        0.1614460    -0.8614300     1.2843790
  O        0.1614460    -0.8614400    -1.2843720
  N        1.2328540     0.9913630    -0.0000040
  C       -1.5349193     0.6918557    -0.0000030
  H       -1.5963900     1.2940100    -0.8996310
  H       -2.3012170    -0.0772020     0.0000010
  H       -1.5963900     1.2940180     0.8996200
  H        1.2952780     1.5346040    -0.8557480
  H        1.2952780     1.5346110     0.8557360
units angstrom
no_reorient  #important for SAPT in psi4, default
symmetry c1  #important for SAPT in psi4, default
}

set PROPERTIES_ORIGIN ["COM"]
properties('MP2/aug-cc-pvtz', properties = ['dipole'])
--------------------------------------------------------------------------

    Molecular point group: c1
  Charge       = 0
  Multiplicity = 1
  Basis Set: AUG-CC-PVTZ
    Blend: AUG-CC-PVTZ
  Basis Set: (AUG-CC-PVTZ AUX)
    Blend: AUG-CC-PVTZ-JKFIT

    Orbital Energies [Eh]
    ---------------------

    Doubly Occupied:

       1A    -92.209511     2A    -20.551685     3A    -20.551666
       4A    -15.612620     5A    -11.282782     6A     -9.174311
       7A     -6.859704     8A     -6.858684     9A     -6.858588
      10A     -1.456955    11A     -1.341268    12A     -1.221960
      13A     -1.039108    14A     -0.850497    15A     -0.732780
      16A     -0.719392    17A     -0.673436    18A     -0.648271
      19A     -0.615389    20A     -0.607270    21A     -0.513538
      22A     -0.500733    23A     -0.481917    24A     -0.476579
      25A     -0.458516

  @DF-RHF Final Energy:  -642.55424078779970

   => Energetics <=

    Nuclear Repulsion Energy =            276.6218823597284882
    One-Electron Energy =               -1433.7579239468234391
    Two-Electron Energy =                 514.5818007992952516
    Total Energy =                       -642.5542407877996993
  Basis Set: (AUG-CC-PVTZ AUX)
    Blend: AUG-CC-PVTZ-RI
    Molecular point group: c1

    Geometry (in Angstrom), charge = 0, multiplicity = 1:

       Center              X                  Y                   Z               Mass
    ------------   -----------------  -----------------  -----------------  -----------------
         S            0.021548290917    -0.119994679251     0.000000686834    31.972071174400
         O            0.133331290917    -0.804545679251     1.284378686834    15.994914619570
         O            0.133331290917    -0.804555679251    -1.284372313166    15.994914619570
         N            1.204739290917     1.048247320749    -0.000004313166    14.003074004430
         C           -1.563034009083     0.748740020749    -0.000003313166    12.000000000000
         H           -1.624504709083     1.350894320749    -0.899631313166     1.007825032230
         H           -2.329331709083    -0.020317679251     0.000000686834     1.007825032230
         H           -1.624504709083     1.350902320749     0.899619686834     1.007825032230
         H            1.267163290917     1.591488320749    -0.855748313166     1.007825032230
         H            1.267163290917     1.591495320749     0.855735686834     1.007825032230

  Basis Set: AUG-CC-PVTZ
    Blend: AUG-CC-PVTZ
  Basis Set: (AUG-CC-PVTZ AUX)
    Blend: AUG-CC-PVTZ-JKFIT
	 Reference Energy          =    -642.5542407877996993 [Eh]
	 Singles Energy            =      -0.0000000000000000 [Eh]
	 Same-Spin Energy          =      -0.3000568912904465 [Eh]
	 Opposite-Spin Energy      =      -0.8914560825876940 [Eh]
	 Correlation Energy        =      -1.1915129738781407 [Eh]
	 Total Energy              =    -643.7457537616778609 [Eh]

	 ================> DF-SCS-MP2 Energies <==================
	-----------------------------------------------------------
	 SCS Same-Spin Scale       =       0.3333333333333333 [-]
	 SCS Opposite-Spin Scale   =       1.2000000000000000 [-]
	 SCS Same-Spin Energy      =      -0.1000189637634822 [Eh]
	 SCS Opposite-Spin Energy  =      -1.0697472991052328 [Eh]
	 SCS Correlation Energy    =      -1.1697662628687149 [Eh]
	 SCS Total Energy          =    -643.7240070506684333 [Eh]
	-----------------------------------------------------------

  Dipole Moment: [D]
     X:    -1.4511      Y:     5.0038      Z:    -0.0000     Total:     5.2100

*** Psi4 exiting successfully. Buy a developer a beer!
