                               Psi4 1.3.2 release

  ==> Input File <==

--------------------------------------------------------------------------
#psi4
#
memory 32 gb

molecule  {
0 1
  S       -0.0598420     0.1064250    -0.0004010
  O       -0.4592747     0.6800431     1.2843105
  O       -0.4374810     0.6982890    -1.2834970
  N       -0.5993004    -1.4840005     0.0266610
  C        1.7021800    -0.0997450     0.0075480
  H        1.9984920    -0.6462440    -0.8867680
  H        2.1431120     0.8977760     0.0077280
  H        1.9907200    -0.6430360     0.9062190
  H       -1.1275310    -1.6767740    -0.8419270
  H       -1.1351590    -1.6740770     0.8371300
units angstrom
no_reorient  #important for SAPT in psi4, default
symmetry c1  #important for SAPT in psi4, default
}

set PROPERTIES_ORIGIN ["COM"]
properties('MP2/aug-cc-pvtz', properties = ['dipole'])
--------------------------------------------------------------------------

    Molecular point group: c1
  Charge       = 0
  Multiplicity = 1
  Basis Set: AUG-CC-PVTZ
    Blend: AUG-CC-PVTZ
  Basis Set: (AUG-CC-PVTZ AUX)
    Blend: AUG-CC-PVTZ-JKFIT

    Orbital Energies [Eh]
    ---------------------

    Doubly Occupied:

       1A    -92.209227     2A    -20.556648     3A    -20.552659
       4A    -15.607961     5A    -11.279528     6A     -9.175016
       7A     -6.860248     8A     -6.859254     9A     -6.859209
      10A     -1.458728    11A     -1.343234    12A     -1.220299
      13A     -1.044977    14A     -0.846426    15A     -0.727139
      16A     -0.709116    17A     -0.678650    18A     -0.648763
      19A     -0.605767    20A     -0.602417    21A     -0.536587
      22A     -0.502385    23A     -0.479522    24A     -0.478136
      25A     -0.459061

  @DF-RHF Final Energy:  -642.55633703667093

   => Energetics <=

    Nuclear Repulsion Energy =            277.0601107592035532
    One-Electron Energy =               -1434.6309854862995508
    Two-Electron Energy =                 515.0145376904250725
    Total Energy =                       -642.5563370366709250
  Basis Set: (AUG-CC-PVTZ AUX)
    Blend: AUG-CC-PVTZ-RI
    Molecular point group: c1

    Geometry (in Angstrom), charge = 0, multiplicity = 1:

       Center              X                  Y                   Z               Mass
    ------------   -----------------  -----------------  -----------------  -----------------
         S           -0.056444489976     0.109585031433    -0.005523517455    31.972071174400
         O           -0.455877189976     0.683203131433     1.279187982545    15.994914619570
         O           -0.434083489976     0.701449031433    -1.288619517455    15.994914619570
         N           -0.595902889976    -1.480840468567     0.021538482545    14.003074004430
         C            1.705577510024    -0.096584968567     0.002425482545    12.000000000000
         H            2.001889510024    -0.643083968567    -0.891890517455     1.007825032230
         H            2.146509510024     0.900936031433     0.002605482545     1.007825032230
         H            1.994117510024    -0.639875968567     0.901096482545     1.007825032230
         H           -1.124133489976    -1.673613968567    -0.847049517455     1.007825032230
         H           -1.131761489976    -1.670916968567     0.832007482545     1.007825032230

  Basis Set: AUG-CC-PVTZ
    Blend: AUG-CC-PVTZ
  Basis Set: (AUG-CC-PVTZ AUX)
    Blend: AUG-CC-PVTZ-JKFIT
	 Reference Energy          =    -642.5563370366709250 [Eh]
	 Singles Energy            =      -0.0000000000000000 [Eh]
	 Same-Spin Energy          =      -0.3001201266407432 [Eh]
	 Opposite-Spin Energy      =      -0.8915206494558370 [Eh]
	 Correlation Energy        =      -1.1916407760965801 [Eh]
	 Total Energy              =    -643.7479778127675445 [Eh]

	 ================> DF-SCS-MP2 Energies <==================
	-----------------------------------------------------------
	 SCS Same-Spin Scale       =       0.3333333333333333 [-]
	 SCS Opposite-Spin Scale   =       1.2000000000000000 [-]
	 SCS Same-Spin Energy      =      -0.1000400422135811 [Eh]
	 SCS Opposite-Spin Energy  =      -1.0698247793470044 [Eh]
	 SCS Correlation Energy    =      -1.1698648215605854 [Eh]
	 SCS Total Energy          =    -643.7262018582315477 [Eh]
	-----------------------------------------------------------

  Dipole Moment: [D]
     X:     1.6039      Y:    -3.0637      Z:    -0.0709     Total:     3.4589

*** Psi4 exiting successfully. Buy a developer a beer!
