                               Psi4 1.3.2 release

  ==> Input File <==

--------------------------------------------------------------------------
#psi4
#
memory 32 gb

molecule  {
0 1
  S       -0.0598420     0.1064250    -0.0004010
  O       -0.4487500     0.7022520     1.2774130
  O       -0.4427279     0.6871955    -1.2870064
  N       -0.5936871    -1.4860678    -0.0137061
  C        1.7021800    -0.0997450     0.0075480
  H        1.9984920    -0.6462440    -0.8867680
  H        2.1431120     0.8977760     0.0077280
  H        1.9907200    -0.6430360     0.9062190
  H       -1.1275310    -1.6767740    -0.8419270
  H       -1.1351590    -1.6740770     0.8371300
units angstrom
no_reorient  #important for SAPT in psi4, default
symmetry c1  #important for SAPT in psi4, default
}

set PROPERTIES_ORIGIN ["COM"]
properties('MP2/aug-cc-pvtz', properties = ['dipole'])
--------------------------------------------------------------------------

    Molecular point group: c1
  Charge       = 0
  Multiplicity = 1
  Basis Set: AUG-CC-PVTZ
    Blend: AUG-CC-PVTZ
  Basis Set: (AUG-CC-PVTZ AUX)
    Blend: AUG-CC-PVTZ-JKFIT

    Orbital Energies [Eh]
    ---------------------

    Doubly Occupied:

       1A    -92.209084     2A    -20.555558     3A    -20.553552
       4A    -15.609433     5A    -11.279021     6A     -9.174912
       7A     -6.860132     8A     -6.859141     9A     -6.859115
      10A     -1.458653    11A     -1.342886    12A     -1.220758
      13A     -1.044501    14A     -0.845992    15A     -0.725884
      16A     -0.709581    17A     -0.678561    18A     -0.648386
      19A     -0.605329    20A     -0.602212    21A     -0.537347
      22A     -0.502065    23A     -0.479468    24A     -0.477932
      25A     -0.459727

  @DF-RHF Final Energy:  -642.55710680664288

   => Energetics <=

    Nuclear Repulsion Energy =            277.0257078094160192
    One-Electron Energy =               -1434.5671720066577564
    Two-Electron Energy =                 514.9843573905989160
    Total Energy =                       -642.5571068066428779
  Basis Set: (AUG-CC-PVTZ AUX)
    Blend: AUG-CC-PVTZ-RI
    Molecular point group: c1

    Geometry (in Angstrom), charge = 0, multiplicity = 1:

       Center              X                  Y                   Z               Mass
    ------------   -----------------  -----------------  -----------------  -----------------
         S           -0.058160430829     0.108018348314     0.002178476131    31.972071174400
         O           -0.447068430829     0.703845348314     1.279992476131    15.994914619570
         O           -0.441046330829     0.688788848314    -1.284426923869    15.994914619570
         N           -0.592005530829    -1.484474451686    -0.011126623869    14.003074004430
         C            1.703861569171    -0.098151651686     0.010127476131    12.000000000000
         H            2.000173569171    -0.644650651686    -0.884188523869     1.007825032230
         H            2.144793569171     0.899369348314     0.010307476131     1.007825032230
         H            1.992401569171    -0.641442651686     0.908798476131     1.007825032230
         H           -1.125849430829    -1.675180651686    -0.839347523869     1.007825032230
         H           -1.133477430829    -1.672483651686     0.839709476131     1.007825032230

  Basis Set: AUG-CC-PVTZ
    Blend: AUG-CC-PVTZ
  Basis Set: (AUG-CC-PVTZ AUX)
    Blend: AUG-CC-PVTZ-JKFIT
	 Reference Energy          =    -642.5571068066428779 [Eh]
	 Singles Energy            =      -0.0000000000000000 [Eh]
	 Same-Spin Energy          =      -0.3001353426533618 [Eh]
	 Opposite-Spin Energy      =      -0.8915673421065612 [Eh]
	 Correlation Energy        =      -1.1917026847599230 [Eh]
	 Total Energy              =    -643.7488094914027670 [Eh]

	 ================> DF-SCS-MP2 Energies <==================
	-----------------------------------------------------------
	 SCS Same-Spin Scale       =       0.3333333333333333 [-]
	 SCS Opposite-Spin Scale   =       1.2000000000000000 [-]
	 SCS Same-Spin Energy      =      -0.1000451142177873 [Eh]
	 SCS Opposite-Spin Energy  =      -1.0698808105278734 [Eh]
	 SCS Correlation Energy    =      -1.1699259247456606 [Eh]
	 SCS Total Energy          =    -643.7270327313885900 [Eh]
	-----------------------------------------------------------

  Dipole Moment: [D]
     X:     1.5721      Y:    -3.0896      Z:     0.0531     Total:     3.4669

*** Psi4 exiting successfully. Buy a developer a beer!
