                               Psi4 1.4a3.dev225

  ==> Input File <==

--------------------------------------------------------------------------
#psi4
#
memory 32 gb

molecule  {
0 1
  S        0.0496630    -0.1768790     0.0000010
  O        0.1614460    -0.8614300     1.2843790
  O        0.1614460    -0.8614400    -1.2843720
  N        1.2328540     0.9913630    -0.0000040
  C       -1.4735387     0.6582043    -0.0000029
  H       -1.5963900     1.2940100    -0.8996310
  H       -2.3012170    -0.0772020     0.0000010
  H       -1.5963900     1.2940180     0.8996200
  H        1.2952780     1.5346040    -0.8557480
  H        1.2952780     1.5346110     0.8557360
units angstrom
no_reorient  #important for SAPT in psi4, default
symmetry c1  #important for SAPT in psi4, default
}

set PROPERTIES_ORIGIN ["COM"]
properties('MP2/aug-cc-pvtz', properties = ['dipole'])
--------------------------------------------------------------------------

    Molecular point group: c1
  Charge       = 0
  Multiplicity = 1
  Basis Set: AUG-CC-PVTZ
    Blend: AUG-CC-PVTZ
  Basis Set: (AUG-CC-PVTZ AUX)
    Blend: AUG-CC-PVTZ-JKFIT

    Orbital Energies [Eh]
    ---------------------

    Doubly Occupied:

       1A    -92.210071     2A    -20.551020     3A    -20.551001
       4A    -15.612154     5A    -11.284163     6A     -9.175434
       7A     -6.860850     8A     -6.859998     9A     -6.859693
      10A     -1.458926    11A     -1.341496    12A     -1.222361
      13A     -1.047226    14A     -0.849883    15A     -0.732812
      16A     -0.724670    17A     -0.677796    18A     -0.646740
      19A     -0.605196    20A     -0.598513    21A     -0.514160
      22A     -0.499533    23A     -0.480232    24A     -0.475350
      25A     -0.468884

  @DF-RHF Final Energy:  -642.55200065242479

   => Energetics <=

    Nuclear Repulsion Energy =            278.2118981226898313
    One-Electron Energy =               -1436.9114742680035306
    Two-Electron Energy =                 516.1475754928887909
    Total Energy =                       -642.5520006524247947
  Basis Set: (AUG-CC-PVTZ AUX)
    Blend: AUG-CC-PVTZ-RI
    Molecular point group: c1

    Geometry (in Angstrom), charge = 0, multiplicity = 1:

       Center              X                  Y                   Z               Mass
    ------------   -----------------  -----------------  -----------------  -----------------
         S            0.013795286539    -0.115744159518     0.000000674203    31.972071174400
         O            0.125578286539    -0.800295159518     1.284378674203    15.994914619570
         O            0.125578286539    -0.800305159518    -1.284372325797    15.994914619570
         N            1.196986286539     1.052497840482    -0.000004325797    14.003074004430
         C           -1.509406413461     0.719339140482    -0.000003225797    12.000000000000
         H           -1.632257713461     1.355144840482    -0.899631325797     1.007825032230
         H           -2.337084713461    -0.016067159518     0.000000674203     1.007825032230
         H           -1.632257713461     1.355152840482     0.899619674203     1.007825032230
         H            1.259410286539     1.595738840482    -0.855748325797     1.007825032230
         H            1.259410286539     1.595745840482     0.855735674203     1.007825032230

  Basis Set: AUG-CC-PVTZ
    Blend: AUG-CC-PVTZ
  Basis Set: (AUG-CC-PVTZ AUX)
    Blend: AUG-CC-PVTZ-JKFIT
	 Reference Energy          =    -642.5520006524247947 [Eh]
	 Singles Energy            =      -0.0000000000000000 [Eh]
	 Same-Spin Energy          =      -0.3003959524525807 [Eh]
	 Opposite-Spin Energy      =      -0.8914568694917266 [Eh]
	 Correlation Energy        =      -1.1918528219443072 [Eh]
	 Total Energy              =    -643.7438534743690752 [Eh]

	 ================> DF-SCS-MP2 Energies <==================
	-----------------------------------------------------------
	 SCS Same-Spin Scale       =       0.3333333333333333 [-]
	 SCS Opposite-Spin Scale   =       1.2000000000000000 [-]
	 SCS Same-Spin Energy      =      -0.1001319841508602 [Eh]
	 SCS Opposite-Spin Energy  =      -1.0697482433900720 [Eh]
	 SCS Correlation Energy    =      -1.1698802275409321 [Eh]
	 SCS Total Energy          =    -643.7218808799657381 [Eh]
	-----------------------------------------------------------

  Dipole Moment: [D]
     X:    -1.5560      Y:     5.0513      Z:    -0.0000     Total:     5.2856

*** Psi4 exiting successfully. Buy a developer a beer!
