                               Psi4 1.4a3.dev225

  ==> Input File <==

--------------------------------------------------------------------------
#psi4
#
memory 32 gb

molecule  {
0 1
  S        0.0496630    -0.1768790     0.0000010
  O        0.1614460    -0.8614300     1.2843790
  O        0.1614460    -0.8614400    -1.2843720
  N        1.2186222     0.9773111    -0.0000039
  C       -1.5173820     0.6822410    -0.0000030
  H       -1.5963900     1.2940100    -0.8996310
  H       -2.3012170    -0.0772020     0.0000010
  H       -1.5963900     1.2940180     0.8996200
  H        1.2952780     1.5346040    -0.8557480
  H        1.2952780     1.5346110     0.8557360
units angstrom
no_reorient  #important for SAPT in psi4, default
symmetry c1  #important for SAPT in psi4, default
}

set PROPERTIES_ORIGIN ["COM"]
properties('MP2/aug-cc-pvtz', properties = ['dipole'])
--------------------------------------------------------------------------

    Molecular point group: c1
  Charge       = 0
  Multiplicity = 1
  Basis Set: AUG-CC-PVTZ
    Blend: AUG-CC-PVTZ
  Basis Set: (AUG-CC-PVTZ AUX)
    Blend: AUG-CC-PVTZ-JKFIT

    Orbital Energies [Eh]
    ---------------------

    Doubly Occupied:

       1A    -92.208738     2A    -20.550244     3A    -20.550225
       4A    -15.613871     5A    -11.281864     6A     -9.173814
       7A     -6.859301     8A     -6.858234     9A     -6.858103
      10A     -1.457919    11A     -1.340494    12A     -1.224645
      13A     -1.040096    14A     -0.851794    15A     -0.729900
      16A     -0.722732    17A     -0.674872    18A     -0.645851
      19A     -0.612196    20A     -0.603883    21A     -0.514356
      22A     -0.499367    23A     -0.481703    24A     -0.475122
      25A     -0.461880

  @DF-RHF Final Energy:  -642.55427995830030

   => Energetics <=

    Nuclear Repulsion Energy =            277.6591864916689474
    One-Electron Energy =               -1435.8445250935537842
    Two-Electron Energy =                 515.6310586435844243
    Total Energy =                       -642.5542799583002989
  Basis Set: (AUG-CC-PVTZ AUX)
    Blend: AUG-CC-PVTZ-RI
    Molecular point group: c1

    Geometry (in Angstrom), charge = 0, multiplicity = 1:

       Center              X                  Y                   Z               Mass
    ------------   -----------------  -----------------  -----------------  -----------------
         S            0.021430836498    -0.116709071609     0.000000672095    31.972071174400
         O            0.133213836498    -0.801260071609     1.284378672095    15.994914619570
         O            0.133213836498    -0.801270071609    -1.284372327905    15.994914619570
         N            1.190390036498     1.037481028391    -0.000004227905    14.003074004430
         C           -1.545614163502     0.742410928391    -0.000003327905    12.000000000000
         H           -1.624622163502     1.354179928391    -0.899631327905     1.007825032230
         H           -2.329449163502    -0.017032071609     0.000000672095     1.007825032230
         H           -1.624622163502     1.354187928391     0.899619672095     1.007825032230
         H            1.267045836498     1.594773928391    -0.855748327905     1.007825032230
         H            1.267045836498     1.594780928391     0.855735672095     1.007825032230

  Basis Set: AUG-CC-PVTZ
    Blend: AUG-CC-PVTZ
  Basis Set: (AUG-CC-PVTZ AUX)
    Blend: AUG-CC-PVTZ-JKFIT
	 Reference Energy          =    -642.5542799583002989 [Eh]
	 Singles Energy            =      -0.0000000000000000 [Eh]
	 Same-Spin Energy          =      -0.3001729800598729 [Eh]
	 Opposite-Spin Energy      =      -0.8912046952378929 [Eh]
	 Correlation Energy        =      -1.1913776752977658 [Eh]
	 Total Energy              =    -643.7456576335980571 [Eh]

	 ================> DF-SCS-MP2 Energies <==================
	-----------------------------------------------------------
	 SCS Same-Spin Scale       =       0.3333333333333333 [-]
	 SCS Opposite-Spin Scale   =       1.2000000000000000 [-]
	 SCS Same-Spin Energy      =      -0.1000576600199576 [Eh]
	 SCS Opposite-Spin Energy  =      -1.0694456342854715 [Eh]
	 SCS Correlation Energy    =      -1.1695032943054291 [Eh]
	 SCS Total Energy          =    -643.7237832526056991 [Eh]
	-----------------------------------------------------------

  Dipole Moment: [D]
     X:    -1.3876      Y:     5.0900      Z:    -0.0000     Total:     5.2757

*** Psi4 exiting successfully. Buy a developer a beer!
