                               Psi4 1.3.2 release

  ==> Input File <==

--------------------------------------------------------------------------
#psi4
#
memory 32 gb

molecule  {
0 1
  S       -0.0598420     0.1064250    -0.0004010
  O       -0.4221590     0.6615132     1.1900444
  O       -0.4374810     0.6982890    -1.2834970
  N       -0.5882700    -1.4879290    -0.0002140
  C        1.7021800    -0.0997450     0.0075480
  H        1.9984920    -0.6462440    -0.8867680
  H        2.1431120     0.8977760     0.0077280
  H        1.9907200    -0.6430360     0.9062190
  H       -1.1275310    -1.6767740    -0.8419270
  H       -1.1351590    -1.6740770     0.8371300
units angstrom
no_reorient  #important for SAPT in psi4, default
symmetry c1  #important for SAPT in psi4, default
}

set PROPERTIES_ORIGIN ["COM"]
properties('MP2/aug-cc-pvtz', properties = ['dipole'])
--------------------------------------------------------------------------

    Molecular point group: c1
  Charge       = 0
  Multiplicity = 1
  Basis Set: AUG-CC-PVTZ
    Blend: AUG-CC-PVTZ
  Basis Set: (AUG-CC-PVTZ AUX)
    Blend: AUG-CC-PVTZ-JKFIT

    Orbital Energies [Eh]
    ---------------------

    Doubly Occupied:

       1A    -92.196818     2A    -20.556521     3A    -20.545582
       4A    -15.603021     5A    -11.271174     6A     -9.165533
       7A     -6.851124     8A     -6.850135     9A     -6.849327
      10A     -1.501566    11A     -1.358890    12A     -1.216561
      13A     -1.038212    14A     -0.837749    15A     -0.723052
      16A     -0.715738    17A     -0.691609    18A     -0.653453
      19A     -0.605893    20A     -0.602389    21A     -0.546857
      22A     -0.512167    23A     -0.485033    24A     -0.477892
      25A     -0.457834

  @DF-RHF Final Energy:  -642.55489962120942

   => Energetics <=

    Nuclear Repulsion Energy =            281.6642732065341193
    One-Electron Energy =               -1443.8100855144973593
    Two-Electron Energy =                 519.5909126867538816
    Total Energy =                       -642.5548996212094153
  Basis Set: (AUG-CC-PVTZ AUX)
    Blend: AUG-CC-PVTZ-RI
    Molecular point group: c1

    Geometry (in Angstrom), charge = 0, multiplicity = 1:

       Center              X                  Y                   Z               Mass
    ------------   -----------------  -----------------  -----------------  -----------------
         S           -0.064319118159     0.113283769132     0.014308372361    31.972071174400
         O           -0.426636118159     0.668371969132     1.204753772361    15.994914619570
         O           -0.441958118159     0.705147769132    -1.268787627639    15.994914619570
         N           -0.592747118159    -1.481070230868     0.014495372361    14.003074004430
         C            1.697702881841    -0.092886230868     0.022257372361    12.000000000000
         H            1.994014881841    -0.639385230868    -0.872058627639     1.007825032230
         H            2.138634881841     0.904634769132     0.022437372361     1.007825032230
         H            1.986242881841    -0.636177230868     0.920928372361     1.007825032230
         H           -1.132008118159    -1.669915230868    -0.827217627639     1.007825032230
         H           -1.139636118159    -1.667218230868     0.851839372361     1.007825032230

  Basis Set: AUG-CC-PVTZ
    Blend: AUG-CC-PVTZ
  Basis Set: (AUG-CC-PVTZ AUX)
    Blend: AUG-CC-PVTZ-JKFIT
	 Reference Energy          =    -642.5548996212094153 [Eh]
	 Singles Energy            =      -0.0000000000000000 [Eh]
	 Same-Spin Energy          =      -0.2979475278832189 [Eh]
	 Opposite-Spin Energy      =      -0.8862290964666415 [Eh]
	 Correlation Energy        =      -1.1841766243498604 [Eh]
	 Total Energy              =    -643.7390762455593176 [Eh]

	 ================> DF-SCS-MP2 Energies <==================
	-----------------------------------------------------------
	 SCS Same-Spin Scale       =       0.3333333333333333 [-]
	 SCS Opposite-Spin Scale   =       1.2000000000000000 [-]
	 SCS Same-Spin Energy      =      -0.0993158426277396 [Eh]
	 SCS Opposite-Spin Energy  =      -1.0634749157599697 [Eh]
	 SCS Correlation Energy    =      -1.1627907583877093 [Eh]
	 SCS Total Energy          =    -643.7176903795971157 [Eh]
	-----------------------------------------------------------

  Dipole Moment: [D]
     X:     1.3594      Y:    -2.8408      Z:     0.4900     Total:     3.1872

*** Psi4 exiting successfully. Buy a developer a beer!
