                               Psi4 1.3.2 release

  ==> Input File <==

--------------------------------------------------------------------------
#psi4
#
memory 32 gb

molecule  {
0 1
  S       -0.0598420     0.1064250    -0.0004010
  O       -0.4434430     0.7132888     1.2738182
  O       -0.4374810     0.6982890    -1.2834970
  N       -0.5826942    -1.4897112    -0.0136520
  C        1.7021800    -0.0997450     0.0075480
  H        1.9984920    -0.6462440    -0.8867680
  H        2.1431120     0.8977760     0.0077280
  H        1.9907200    -0.6430360     0.9062190
  H       -1.1275310    -1.6767740    -0.8419270
  H       -1.1351590    -1.6740770     0.8371300
units angstrom
no_reorient  #important for SAPT in psi4, default
symmetry c1  #important for SAPT in psi4, default
}

set PROPERTIES_ORIGIN ["COM"]
properties('MP2/aug-cc-pvtz', properties = ['dipole'])
--------------------------------------------------------------------------

    Molecular point group: c1
  Charge       = 0
  Multiplicity = 1
  Basis Set: AUG-CC-PVTZ
    Blend: AUG-CC-PVTZ
  Basis Set: (AUG-CC-PVTZ AUX)
    Blend: AUG-CC-PVTZ-JKFIT

    Orbital Energies [Eh]
    ---------------------

    Doubly Occupied:

       1A    -92.208866     2A    -20.555353     3A    -20.553368
       4A    -15.612321     5A    -11.278055     6A     -9.174765
       7A     -6.859971     8A     -6.858985     9A     -6.858970
      10A     -1.458559    11A     -1.342237    12A     -1.221792
      13A     -1.043644    14A     -0.845765    15A     -0.724156
      16A     -0.709231    17A     -0.678413    18A     -0.647464
      19A     -0.604695    20A     -0.601566    21A     -0.538851
      22A     -0.501498    23A     -0.479505    24A     -0.477386
      25A     -0.460762

  @DF-RHF Final Energy:  -642.55678498819771

   => Energetics <=

    Nuclear Repulsion Energy =            276.9681814072379780
    One-Electron Energy =               -1434.4575728795821306
    Two-Electron Energy =                 514.9326064841463904
    Total Energy =                       -642.5567849881977054
  Basis Set: (AUG-CC-PVTZ AUX)
    Blend: AUG-CC-PVTZ-RI
    Molecular point group: c1

    Geometry (in Angstrom), charge = 0, multiplicity = 1:

       Center              X                  Y                   Z               Mass
    ------------   -----------------  -----------------  -----------------  -----------------
         S           -0.061557580247     0.104829502143     0.002184880059    31.972071174400
         O           -0.445158580247     0.711693302143     1.276404080059    15.994914619570
         O           -0.439196580247     0.696693502143    -1.280911119941    15.994914619570
         N           -0.584409780247    -1.491306697857    -0.011066119941    14.003074004430
         C            1.700464419753    -0.101340497857     0.010133880059    12.000000000000
         H            1.996776419753    -0.647839497857    -0.884182119941     1.007825032230
         H            2.141396419753     0.896180502143     0.010313880059     1.007825032230
         H            1.989004419753    -0.644631497857     0.908804880059     1.007825032230
         H           -1.129246580247    -1.678369497857    -0.839341119941     1.007825032230
         H           -1.136874580247    -1.675672497857     0.839715880059     1.007825032230

  Basis Set: AUG-CC-PVTZ
    Blend: AUG-CC-PVTZ
  Basis Set: (AUG-CC-PVTZ AUX)
    Blend: AUG-CC-PVTZ-JKFIT
	 Reference Energy          =    -642.5567849881977054 [Eh]
	 Singles Energy            =      -0.0000000000000000 [Eh]
	 Same-Spin Energy          =      -0.3001989802368877 [Eh]
	 Opposite-Spin Energy      =      -0.8917611149879991 [Eh]
	 Correlation Energy        =      -1.1919600952248870 [Eh]
	 Total Energy              =    -643.7487450834225911 [Eh]

	 ================> DF-SCS-MP2 Energies <==================
	-----------------------------------------------------------
	 SCS Same-Spin Scale       =       0.3333333333333333 [-]
	 SCS Opposite-Spin Scale   =       1.2000000000000000 [-]
	 SCS Same-Spin Energy      =      -0.1000663267456292 [Eh]
	 SCS Opposite-Spin Energy  =      -1.0701133379855989 [Eh]
	 SCS Correlation Energy    =      -1.1701796647312281 [Eh]
	 SCS Total Energy          =    -643.7269646529289275 [Eh]
	-----------------------------------------------------------

  Dipole Moment: [D]
     X:     1.5113      Y:    -3.1385      Z:     0.0528     Total:     3.4838

*** Psi4 exiting successfully. Buy a developer a beer!
