                               Psi4 1.3.2 release

  ==> Input File <==

--------------------------------------------------------------------------
#psi4
#
memory 32 gb

molecule  {
0 1
  S       -0.0579177     0.1215840     0.0265285
  O       -0.4487500     0.7022520     1.2774130
  O       -0.4374810     0.6982890    -1.2834970
  N       -0.5882700    -1.4879290    -0.0002140
  C        1.7021800    -0.0997450     0.0075480
  H        2.0166327    -0.6452206    -0.8811809
  H        2.1431120     0.8977760     0.0077280
  H        1.9907200    -0.6430360     0.9062190
  H       -1.1275310    -1.6767740    -0.8419270
  H       -1.1351590    -1.6740770     0.8371300
units angstrom
no_reorient  #important for SAPT in psi4, default
symmetry c1  #important for SAPT in psi4, default
}

set PROPERTIES_ORIGIN ["COM"]
properties('MP2/aug-cc-pvtz', properties = ['dipole'])
--------------------------------------------------------------------------

    Molecular point group: c1
  Charge       = 0
  Multiplicity = 1
  Basis Set: AUG-CC-PVTZ
    Blend: AUG-CC-PVTZ
  Basis Set: (AUG-CC-PVTZ AUX)
    Blend: AUG-CC-PVTZ-JKFIT

    Orbital Energies [Eh]
    ---------------------

    Doubly Occupied:

       1A    -92.209012     2A    -20.562180     3A    -20.550136
       4A    -15.607811     5A    -11.278581     6A     -9.174970
       7A     -6.860157     8A     -6.859331     9A     -6.859082
      10A     -1.465185    11A     -1.344799    12A     -1.214762
      13A     -1.043941    14A     -0.844203    15A     -0.721019
      16A     -0.709892    17A     -0.680918    18A     -0.649129
      19A     -0.604711    20A     -0.602654    21A     -0.538192
      22A     -0.505702    23A     -0.481843    24A     -0.476992
      25A     -0.457460

  @DF-RHF Final Energy:  -642.55576876949419

   => Energetics <=

    Nuclear Repulsion Energy =            276.9707570764177831
    One-Electron Energy =               -1434.4477326427625030
    Two-Electron Energy =                 514.9212067968504698
    Total Energy =                       -642.5557687694941933
  Basis Set: (AUG-CC-PVTZ AUX)
    Blend: AUG-CC-PVTZ-RI
    Molecular point group: c1

    Geometry (in Angstrom), charge = 0, multiplicity = 1:

       Center              X                  Y                   Z               Mass
    ------------   -----------------  -----------------  -----------------  -----------------
         S           -0.058757982822     0.116471605068     0.017406521741    31.972071174400
         O           -0.449590282822     0.697139605068     1.268291021741    15.994914619570
         O           -0.438321282822     0.693176605068    -1.292618978259    15.994914619570
         N           -0.589110282822    -1.493041394932    -0.009335978259    14.003074004430
         C            1.701339717178    -0.104857394932    -0.001573978259    12.000000000000
         H            2.015792417178    -0.650332994932    -0.890302878259     1.007825032230
         H            2.142271717178     0.892663605068    -0.001393978259     1.007825032230
         H            1.989879717178    -0.648148394932     0.897097021741     1.007825032230
         H           -1.128371282822    -1.681886394932    -0.851048978259     1.007825032230
         H           -1.135999282822    -1.679189394932     0.828008021741     1.007825032230

  Basis Set: AUG-CC-PVTZ
    Blend: AUG-CC-PVTZ
  Basis Set: (AUG-CC-PVTZ AUX)
    Blend: AUG-CC-PVTZ-JKFIT
	 Reference Energy          =    -642.5557687694941933 [Eh]
	 Singles Energy            =      -0.0000000000000000 [Eh]
	 Same-Spin Energy          =      -0.3000061174805976 [Eh]
	 Opposite-Spin Energy      =      -0.8915508432910335 [Eh]
	 Correlation Energy        =      -1.1915569607716310 [Eh]
	 Total Energy              =    -643.7473257302658567 [Eh]

	 ================> DF-SCS-MP2 Energies <==================
	-----------------------------------------------------------
	 SCS Same-Spin Scale       =       0.3333333333333333 [-]
	 SCS Opposite-Spin Scale   =       1.2000000000000000 [-]
	 SCS Same-Spin Energy      =      -0.1000020391601992 [Eh]
	 SCS Opposite-Spin Energy  =      -1.0698610119492402 [Eh]
	 SCS Correlation Energy    =      -1.1698630511094394 [Eh]
	 SCS Total Energy          =    -643.7256318206036667 [Eh]
	-----------------------------------------------------------

  Dipole Moment: [D]
     X:     1.5708      Y:    -2.9655      Z:     0.2748     Total:     3.3671

*** Psi4 exiting successfully. Buy a developer a beer!
