                               Psi4 1.3.2 release

  ==> Input File <==

--------------------------------------------------------------------------
#psi4
#
memory 32 gb

molecule  {
0 1
  S       -0.0598420     0.1064250    -0.0004010
  O       -0.5019320     0.7837295     1.4521502
  O       -0.4374810     0.6982890    -1.2834970
  N       -0.5882700    -1.4879290    -0.0002140
  C        1.7021800    -0.0997450     0.0075480
  H        1.9984920    -0.6462440    -0.8867680
  H        2.1431120     0.8977760     0.0077280
  H        1.9907200    -0.6430360     0.9062190
  H       -1.1275310    -1.6767740    -0.8419270
  H       -1.1351590    -1.6740770     0.8371300
units angstrom
no_reorient  #important for SAPT in psi4, default
symmetry c1  #important for SAPT in psi4, default
}

set PROPERTIES_ORIGIN ["COM"]
properties('MP2/aug-cc-pvtz', properties = ['dipole'])
--------------------------------------------------------------------------

    Molecular point group: c1
  Charge       = 0
  Multiplicity = 1
  Basis Set: AUG-CC-PVTZ
    Blend: AUG-CC-PVTZ
  Basis Set: (AUG-CC-PVTZ AUX)
    Blend: AUG-CC-PVTZ-JKFIT

    Orbital Energies [Eh]
    ---------------------

    Doubly Occupied:

       1A    -92.215705     2A    -20.567193     3A    -20.553790
       4A    -15.622859     5A    -11.289340     6A     -9.182339
       7A     -6.867105     8A     -6.866235     9A     -6.865390
      10A     -1.433822    11A     -1.280995    12A     -1.222981
      13A     -1.054160    14A     -0.860371    15A     -0.733382
      16A     -0.705250    17A     -0.669304    18A     -0.646306
      19A     -0.610178    20A     -0.588634    21A     -0.531731
      22A     -0.492689    23A     -0.468560    24A     -0.457974
      25A     -0.454206

  @DF-RHF Final Energy:  -642.51196335417205

   => Energetics <=

    Nuclear Repulsion Energy =            269.0405247491094087
    One-Electron Energy =               -1418.6239776292973147
    Two-Electron Energy =                 507.0714895260158528
    Total Energy =                       -642.5119633541720532
  Basis Set: (AUG-CC-PVTZ AUX)
    Blend: AUG-CC-PVTZ-RI
    Molecular point group: c1

    Geometry (in Angstrom), charge = 0, multiplicity = 1:

       Center              X                  Y                   Z               Mass
    ------------   -----------------  -----------------  -----------------  -----------------
         S           -0.050888515379     0.092707401456    -0.029819827484    31.972071174400
         O           -0.492978515379     0.770011901456     1.422731372516    15.994914619570
         O           -0.428527515379     0.684571401456    -1.312915827484    15.994914619570
         N           -0.579316515379    -1.501646598544    -0.029632827484    14.003074004430
         C            1.711133484621    -0.113462598544    -0.021870827484    12.000000000000
         H            2.007445484621    -0.659961598544    -0.916186827484     1.007825032230
         H            2.152065484621     0.884058401456    -0.021690827484     1.007825032230
         H            1.999673484621    -0.656753598544     0.876800172516     1.007825032230
         H           -1.118577515379    -1.690491598544    -0.871345827484     1.007825032230
         H           -1.126205515379    -1.687794598544     0.807711172516     1.007825032230

  Basis Set: AUG-CC-PVTZ
    Blend: AUG-CC-PVTZ
  Basis Set: (AUG-CC-PVTZ AUX)
    Blend: AUG-CC-PVTZ-JKFIT
	 Reference Energy          =    -642.5119633541720532 [Eh]
	 Singles Energy            =      -0.0000000000000000 [Eh]
	 Same-Spin Energy          =      -0.3023008972287182 [Eh]
	 Opposite-Spin Energy      =      -0.8994351184708670 [Eh]
	 Correlation Energy        =      -1.2017360156995851 [Eh]
	 Total Energy              =    -643.7136993698716196 [Eh]

	 ================> DF-SCS-MP2 Energies <==================
	-----------------------------------------------------------
	 SCS Same-Spin Scale       =       0.3333333333333333 [-]
	 SCS Opposite-Spin Scale   =       1.2000000000000000 [-]
	 SCS Same-Spin Energy      =      -0.1007669657429061 [Eh]
	 SCS Opposite-Spin Energy  =      -1.0793221421650403 [Eh]
	 SCS Correlation Energy    =      -1.1800891079079463 [Eh]
	 SCS Total Energy          =    -643.6920524620800279 [Eh]
	-----------------------------------------------------------

  Dipole Moment: [D]
     X:     1.9007      Y:    -3.6569      Z:    -0.9697     Total:     4.2339

*** Psi4 exiting successfully. Buy a developer a beer!
