                               Psi4 1.3.2 release

  ==> Input File <==

--------------------------------------------------------------------------
#psi4
#
memory 32 gb

molecule  {
0 1
  S       -0.0598420     0.1064250    -0.0004010
  O       -0.4381068     0.7242794     1.2701263
  O       -0.4374810     0.6982890    -1.2834970
  N       -0.5770787    -1.4913719    -0.0270890
  C        1.7021800    -0.0997450     0.0075480
  H        1.9984920    -0.6462440    -0.8867680
  H        2.1431120     0.8977760     0.0077280
  H        1.9907200    -0.6430360     0.9062190
  H       -1.1275310    -1.6767740    -0.8419270
  H       -1.1351590    -1.6740770     0.8371300
units angstrom
no_reorient  #important for SAPT in psi4, default
symmetry c1  #important for SAPT in psi4, default
}

set PROPERTIES_ORIGIN ["COM"]
properties('MP2/aug-cc-pvtz', properties = ['dipole'])
--------------------------------------------------------------------------

    Molecular point group: c1
  Charge       = 0
  Multiplicity = 1
  Basis Set: AUG-CC-PVTZ
    Blend: AUG-CC-PVTZ
  Basis Set: (AUG-CC-PVTZ AUX)
    Blend: AUG-CC-PVTZ-JKFIT

    Orbital Energies [Eh]
    ---------------------

    Doubly Occupied:

       1A    -92.208789     2A    -20.556231     3A    -20.552299
       4A    -15.613737     5A    -11.277594     6A     -9.174720
       7A     -6.859924     8A     -6.858942     9A     -6.858916
      10A     -1.458540    11A     -1.341934    12A     -1.222360
      13A     -1.043262    14A     -0.845951    15A     -0.723774
      16A     -0.708355    17A     -0.678352    18A     -0.646916
      19A     -0.604489    20A     -0.601135    21A     -0.539588
      22A     -0.501254    23A     -0.479587    24A     -0.477063
      25A     -0.461126

  @DF-RHF Final Energy:  -642.55575346104422

   => Energetics <=

    Nuclear Repulsion Energy =            276.9448764697649494
    One-Electron Energy =               -1434.4115829941083575
    Two-Electron Energy =                 514.9109530632991891
    Total Energy =                       -642.5557534610442190
  Basis Set: (AUG-CC-PVTZ AUX)
    Blend: AUG-CC-PVTZ-RI
    Molecular point group: c1

    Geometry (in Angstrom), charge = 0, multiplicity = 1:

       Center              X                  Y                   Z               Mass
    ------------   -----------------  -----------------  -----------------  -----------------
         S           -0.063283677607     0.103223899813     0.004786988092    31.972071174400
         O           -0.441548477607     0.721078299813     1.275314288092    15.994914619570
         O           -0.440922677607     0.695087899813    -1.278309011908    15.994914619570
         N           -0.580520377607    -1.494573000187    -0.021901011908    14.003074004430
         C            1.698738322393    -0.102946100187     0.012735988092    12.000000000000
         H            1.995050322393    -0.649445100187    -0.881580011908     1.007825032230
         H            2.139670322393     0.894574899813     0.012915988092     1.007825032230
         H            1.987278322393    -0.646237100187     0.911406988092     1.007825032230
         H           -1.130972677607    -1.679975100187    -0.836739011908     1.007825032230
         H           -1.138600677607    -1.677278100187     0.842317988092     1.007825032230

  Basis Set: AUG-CC-PVTZ
    Blend: AUG-CC-PVTZ
  Basis Set: (AUG-CC-PVTZ AUX)
    Blend: AUG-CC-PVTZ-JKFIT
	 Reference Energy          =    -642.5557534610442190 [Eh]
	 Singles Energy            =      -0.0000000000000000 [Eh]
	 Same-Spin Energy          =      -0.3002466917087432 [Eh]
	 Opposite-Spin Energy      =      -0.8919064860293691 [Eh]
	 Correlation Energy        =      -1.1921531777381122 [Eh]
	 Total Energy              =    -643.7479066387822968 [Eh]

	 ================> DF-SCS-MP2 Energies <==================
	-----------------------------------------------------------
	 SCS Same-Spin Scale       =       0.3333333333333333 [-]
	 SCS Opposite-Spin Scale   =       1.2000000000000000 [-]
	 SCS Same-Spin Energy      =      -0.1000822305695811 [Eh]
	 SCS Opposite-Spin Energy  =      -1.0702877832352429 [Eh]
	 SCS Correlation Energy    =      -1.1703700138048239 [Eh]
	 SCS Total Energy          =    -643.7261234748490324 [Eh]
	-----------------------------------------------------------

  Dipole Moment: [D]
     X:     1.4817      Y:    -3.1614      Z:     0.0937     Total:     3.4927

*** Psi4 exiting successfully. Buy a developer a beer!
