                               Psi4 1.3.2 release

  ==> Input File <==

--------------------------------------------------------------------------
#psi4
#
memory 32 gb

molecule  {
0 1
  S       -0.0598420     0.1064250    -0.0004010
  O       -0.4487500     0.7022520     1.2774130
  O       -0.4374810     0.6982890    -1.2834970
  N       -0.5743368    -1.4924796    -0.0001466
  C        1.7003137    -0.1151136     0.0075638
  H        1.9984920    -0.6462440    -0.8867680
  H        2.1431120     0.8977760     0.0077280
  H        1.9907200    -0.6430360     0.9062190
  H       -1.1275310    -1.6767740    -0.8419270
  H       -1.1351590    -1.6740770     0.8371300
units angstrom
no_reorient  #important for SAPT in psi4, default
symmetry c1  #important for SAPT in psi4, default
}

set PROPERTIES_ORIGIN ["COM"]
properties('MP2/aug-cc-pvtz', properties = ['dipole'])
--------------------------------------------------------------------------

    Molecular point group: c1
  Charge       = 0
  Multiplicity = 1
  Basis Set: AUG-CC-PVTZ
    Blend: AUG-CC-PVTZ
  Basis Set: (AUG-CC-PVTZ AUX)
    Blend: AUG-CC-PVTZ-JKFIT

    Orbital Energies [Eh]
    ---------------------

    Doubly Occupied:

       1A    -92.208907     2A    -20.555220     3A    -20.555195
       4A    -15.612040     5A    -11.278082     6A     -9.174844
       7A     -6.860057     8A     -6.859052     9A     -6.859049
      10A     -1.458951    11A     -1.343054    12A     -1.220425
      13A     -1.043624    14A     -0.844961    15A     -0.721209
      16A     -0.709145    17A     -0.678664    18A     -0.648748
      19A     -0.604383    20A     -0.600268    21A     -0.539029
      22A     -0.502219    23A     -0.479515    24A     -0.478354
      25A     -0.460854

  @DF-RHF Final Energy:  -642.55624820021717

   => Energetics <=

    Nuclear Repulsion Energy =            276.9710724430409527
    One-Electron Energy =               -1434.4629473582449464
    Two-Electron Energy =                 514.9356267149867108
    Total Energy =                       -642.5562482002171691
  Basis Set: (AUG-CC-PVTZ AUX)
    Blend: AUG-CC-PVTZ-RI
    Molecular point group: c1

    Geometry (in Angstrom), charge = 0, multiplicity = 1:

       Center              X                  Y                   Z               Mass
    ------------   -----------------  -----------------  -----------------  -----------------
         S           -0.061660193491     0.109036920407    -0.000412957675    31.972071174400
         O           -0.450568193491     0.704863920407     1.277401042325    15.994914619570
         O           -0.439299193491     0.700900920407    -1.283508957675    15.994914619570
         N           -0.576154993491    -1.489867679593    -0.000158557675    14.003074004430
         C            1.698495506509    -0.112501679593     0.007551842325    12.000000000000
         H            1.996673806509    -0.643632079593    -0.886779957675     1.007825032230
         H            2.141293806509     0.900387920407     0.007716042325     1.007825032230
         H            1.988901806509    -0.640424079593     0.906207042325     1.007825032230
         H           -1.129349193491    -1.674162079593    -0.841938957675     1.007825032230
         H           -1.136977193491    -1.671465079593     0.837118042325     1.007825032230

  Basis Set: AUG-CC-PVTZ
    Blend: AUG-CC-PVTZ
  Basis Set: (AUG-CC-PVTZ AUX)
    Blend: AUG-CC-PVTZ-JKFIT
	 Reference Energy          =    -642.5562482002171691 [Eh]
	 Singles Energy            =      -0.0000000000000000 [Eh]
	 Same-Spin Energy          =      -0.3003097803489796 [Eh]
	 Opposite-Spin Energy      =      -0.8920211884056035 [Eh]
	 Correlation Energy        =      -1.1923309687545831 [Eh]
	 Total Energy              =    -643.7485791689717871 [Eh]

	 ================> DF-SCS-MP2 Energies <==================
	-----------------------------------------------------------
	 SCS Same-Spin Scale       =       0.3333333333333333 [-]
	 SCS Opposite-Spin Scale   =       1.2000000000000000 [-]
	 SCS Same-Spin Energy      =      -0.1001032601163265 [Eh]
	 SCS Opposite-Spin Energy  =      -1.0704254260867241 [Eh]
	 SCS Correlation Energy    =      -1.1705286862030506 [Eh]
	 SCS Total Energy          =    -643.7267768864202253 [Eh]
	-----------------------------------------------------------

  Dipole Moment: [D]
     X:     1.5085      Y:    -3.0927      Z:     0.0115     Total:     3.4410

*** Psi4 exiting successfully. Buy a developer a beer!
