                               Psi4 1.4a3.dev225

  ==> Input File <==

--------------------------------------------------------------------------
#psi4
#
memory 32 gb

molecule  {
0 1
  S        0.0496630    -0.1768790     0.0000010
  O        0.1614460    -0.8614300     1.2843790
  O        0.1614460    -0.8614400    -1.2843720
  N        1.2470858     1.0054149    -0.0000041
  C       -1.5173820     0.6822410    -0.0000030
  H       -1.5963900     1.2940100    -0.8996310
  H       -2.3012170    -0.0772020     0.0000010
  H       -1.5963900     1.2940180     0.8996200
  H        1.2952780     1.5346040    -0.8557480
  H        1.2952780     1.5346110     0.8557360
units angstrom
no_reorient  #important for SAPT in psi4, default
symmetry c1  #important for SAPT in psi4, default
}

set PROPERTIES_ORIGIN ["COM"]
properties('MP2/aug-cc-pvtz', properties = ['dipole'])
--------------------------------------------------------------------------

    Molecular point group: c1
  Charge       = 0
  Multiplicity = 1
  Basis Set: AUG-CC-PVTZ
    Blend: AUG-CC-PVTZ
  Basis Set: (AUG-CC-PVTZ AUX)
    Blend: AUG-CC-PVTZ-JKFIT

    Orbital Energies [Eh]
    ---------------------

    Doubly Occupied:

       1A    -92.210733     2A    -20.552789     3A    -20.552770
       4A    -15.611251     5A    -11.284146     6A     -9.175536
       7A     -6.860866     8A     -6.859961     9A     -6.859799
      10A     -1.457189    11A     -1.342206    12A     -1.219762
      13A     -1.042226    14A     -0.849039    15A     -0.735910
      16A     -0.718826    17A     -0.674625    18A     -0.649398
      19A     -0.612724    20A     -0.605893    21A     -0.513073
      22A     -0.501502    23A     -0.481372    24A     -0.477428
      25A     -0.461358

  @DF-RHF Final Energy:  -642.55380179741553

   => Energetics <=

    Nuclear Repulsion Energy =            276.4865442255426728
    One-Electron Energy =               -1433.4599288933948174
    Two-Electron Energy =                 514.4195828704365567
    Total Energy =                       -642.5538017974155309
  Basis Set: (AUG-CC-PVTZ AUX)
    Blend: AUG-CC-PVTZ-RI
    Molecular point group: c1

    Geometry (in Angstrom), charge = 0, multiplicity = 1:

       Center              X                  Y                   Z               Mass
    ------------   -----------------  -----------------  -----------------  -----------------
         S            0.017235460730    -0.120851414865     0.000000701574    31.972071174400
         O            0.129018460730    -0.805402414865     1.284378701574    15.994914619570
         O            0.129018460730    -0.805412414865    -1.284372298426    15.994914619570
         N            1.214658260730     1.061442485135    -0.000004398426    14.003074004430
         C           -1.549809539270     0.738268585135    -0.000003298426    12.000000000000
         H           -1.628817539270     1.350037585135    -0.899631298426     1.007825032230
         H           -2.333644539270    -0.021174414865     0.000000701574     1.007825032230
         H           -1.628817539270     1.350045585135     0.899619701574     1.007825032230
         H            1.262850460730     1.590631585135    -0.855748298426     1.007825032230
         H            1.262850460730     1.590638585135     0.855735701574     1.007825032230

  Basis Set: AUG-CC-PVTZ
    Blend: AUG-CC-PVTZ
  Basis Set: (AUG-CC-PVTZ AUX)
    Blend: AUG-CC-PVTZ-JKFIT
	 Reference Energy          =    -642.5538017974155309 [Eh]
	 Singles Energy            =      -0.0000000000000000 [Eh]
	 Same-Spin Energy          =      -0.3000863738557752 [Eh]
	 Opposite-Spin Energy      =      -0.8916328252139050 [Eh]
	 Correlation Energy        =      -1.1917191990696803 [Eh]
	 Total Energy              =    -643.7455209964851974 [Eh]

	 ================> DF-SCS-MP2 Energies <==================
	-----------------------------------------------------------
	 SCS Same-Spin Scale       =       0.3333333333333333 [-]
	 SCS Opposite-Spin Scale   =       1.2000000000000000 [-]
	 SCS Same-Spin Energy      =      -0.1000287912852584 [Eh]
	 SCS Opposite-Spin Energy  =      -1.0699593902566860 [Eh]
	 SCS Correlation Energy    =      -1.1699881815419444 [Eh]
	 SCS Total Energy          =    -643.7237899789574840 [Eh]
	-----------------------------------------------------------

  Dipole Moment: [D]
     X:    -1.5692      Y:     4.9449      Z:    -0.0000     Total:     5.1880

*** Psi4 exiting successfully. Buy a developer a beer!
