                               Psi4 1.3.2 release

  ==> Input File <==

--------------------------------------------------------------------------
#psi4
#
memory 32 gb

molecule  {
0 1
  S       -0.0598420     0.1064250    -0.0004010
  O       -0.5215355     0.7007056     1.2536873
  O       -0.4374810     0.6982890    -1.2834970
  N       -0.5882700    -1.4879290    -0.0002140
  C        1.6959073    -0.1357264    -0.0778481
  H        1.9984920    -0.6462440    -0.8867680
  H        2.1431120     0.8977760     0.0077280
  H        1.9907200    -0.6430360     0.9062190
  H       -1.1275310    -1.6767740    -0.8419270
  H       -1.1351590    -1.6740770     0.8371300
units angstrom
no_reorient  #important for SAPT in psi4, default
symmetry c1  #important for SAPT in psi4, default
}

set PROPERTIES_ORIGIN ["COM"]
properties('MP2/aug-cc-pvtz', properties = ['dipole'])
--------------------------------------------------------------------------

    Molecular point group: c1
  Charge       = 0
  Multiplicity = 1
  Basis Set: AUG-CC-PVTZ
    Blend: AUG-CC-PVTZ
  Basis Set: (AUG-CC-PVTZ AUX)
    Blend: AUG-CC-PVTZ-JKFIT

    Orbital Energies [Eh]
    ---------------------

    Doubly Occupied:

       1A    -92.209257     2A    -20.558989     3A    -20.549329
       4A    -15.606931     5A    -11.283762     6A     -9.175178
       7A     -6.860403     8A     -6.859546     9A     -6.859216
      10A     -1.458955    11A     -1.340960    12A     -1.218846
      13A     -1.048360    14A     -0.846816    15A     -0.723125
      16A     -0.711921    17A     -0.681681    18A     -0.652451
      19A     -0.615268    20A     -0.585002    21A     -0.536747
      22A     -0.501417    23A     -0.481774    24A     -0.474586
      25A     -0.458493

  @DF-RHF Final Energy:  -642.54554752791660

   => Energetics <=

    Nuclear Repulsion Energy =            277.0251629651272083
    One-Electron Energy =               -1434.5433981679914268
    Two-Electron Energy =                 514.9726876749475650
    Total Energy =                       -642.5455475279165967
  Basis Set: (AUG-CC-PVTZ AUX)
    Blend: AUG-CC-PVTZ-RI
    Molecular point group: c1

    Geometry (in Angstrom), charge = 0, multiplicity = 1:

       Center              X                  Y                   Z               Mass
    ------------   -----------------  -----------------  -----------------  -----------------
         S           -0.046795758219     0.111230149419     0.014379847680    31.972071174400
         O           -0.508489258219     0.705510749419     1.268468147680    15.994914619570
         O           -0.424434758219     0.703094149419    -1.268716152320    15.994914619570
         N           -0.575223758219    -1.483123850581     0.014566847680    14.003074004430
         C            1.708953541781    -0.130921250581    -0.063067252320    12.000000000000
         H            2.011538241781    -0.641438850581    -0.871987152320     1.007825032230
         H            2.156158241781     0.902581149419     0.022508847680     1.007825032230
         H            2.003766241781    -0.638230850581     0.920999847680     1.007825032230
         H           -1.114484758219    -1.671968850581    -0.827146152320     1.007825032230
         H           -1.122112758219    -1.669271850581     0.851910847680     1.007825032230

  Basis Set: AUG-CC-PVTZ
    Blend: AUG-CC-PVTZ
  Basis Set: (AUG-CC-PVTZ AUX)
    Blend: AUG-CC-PVTZ-JKFIT
	 Reference Energy          =    -642.5455475279165967 [Eh]
	 Singles Energy            =      -0.0000000000000000 [Eh]
	 Same-Spin Energy          =      -0.3003182731732690 [Eh]
	 Opposite-Spin Energy      =      -0.8920798722555864 [Eh]
	 Correlation Energy        =      -1.1923981454288555 [Eh]
	 Total Energy              =    -643.7379456733455072 [Eh]

	 ================> DF-SCS-MP2 Energies <==================
	-----------------------------------------------------------
	 SCS Same-Spin Scale       =       0.3333333333333333 [-]
	 SCS Opposite-Spin Scale   =       1.2000000000000000 [-]
	 SCS Same-Spin Energy      =      -0.1001060910577563 [Eh]
	 SCS Opposite-Spin Energy  =      -1.0704958467067036 [Eh]
	 SCS Correlation Energy    =      -1.1706019377644599 [Eh]
	 SCS Total Energy          =    -643.7161494656810419 [Eh]
	-----------------------------------------------------------

  Dipole Moment: [D]
     X:     1.7355      Y:    -3.0631      Z:     0.1219     Total:     3.5227

*** Psi4 exiting successfully. Buy a developer a beer!
