                               Psi4 1.4a3.dev225

  ==> Input File <==

--------------------------------------------------------------------------
#psi4
#
memory 32 gb

molecule  {
0 1
  S        0.0496630    -0.1768790     0.0000010
  O        0.1576170    -0.8379817     1.2403845
  O        0.1614460    -0.8614400    -1.2843720
  N        1.2328540     0.9913630    -0.0000040
  C       -1.5173820     0.6822410    -0.0000030
  H       -1.5963900     1.2940100    -0.8996310
  H       -2.3012170    -0.0772020     0.0000010
  H       -1.5963900     1.2940180     0.8996200
  H        1.2952780     1.5346040    -0.8557480
  H        1.2952780     1.5346110     0.8557360
units angstrom
no_reorient  #important for SAPT in psi4, default
symmetry c1  #important for SAPT in psi4, default
}

set PROPERTIES_ORIGIN ["COM"]
properties('MP2/aug-cc-pvtz', properties = ['dipole'])
--------------------------------------------------------------------------

    Molecular point group: c1
  Charge       = 0
  Multiplicity = 1
  Basis Set: AUG-CC-PVTZ
    Blend: AUG-CC-PVTZ
  Basis Set: (AUG-CC-PVTZ AUX)
    Blend: AUG-CC-PVTZ-JKFIT

    Orbital Energies [Eh]
    ---------------------

    Doubly Occupied:

       1A    -92.204197     2A    -20.552354     3A    -20.547187
       4A    -15.608922     5A    -11.279463     6A     -9.170222
       7A     -6.855608     8A     -6.854930     9A     -6.854475
      10A     -1.475621    11A     -1.351702    12A     -1.219998
      13A     -1.038303    14A     -0.846158    15A     -0.730898
      16A     -0.723726    17A     -0.680099    18A     -0.649437
      19A     -0.611711    20A     -0.607052    21A     -0.519796
      22A     -0.505806    23A     -0.480999    24A     -0.479302
      25A     -0.460578

  @DF-RHF Final Energy:  -642.55688329514714

   => Energetics <=

    Nuclear Repulsion Energy =            279.3435553017018265
    One-Electron Energy =               -1439.1837909522855625
    Two-Electron Energy =                 517.2833523554365911
    Total Energy =                       -642.5568832951471450
  Basis Set: (AUG-CC-PVTZ AUX)
    Blend: AUG-CC-PVTZ-RI
    Molecular point group: c1

    Geometry (in Angstrom), charge = 0, multiplicity = 1:

       Center              X                  Y                   Z               Mass
    ------------   -----------------  -----------------  -----------------  -----------------
         S            0.019977800038    -0.122728005051     0.007407612160    31.972071174400
         O            0.127931800038    -0.783830705051     1.247791112160    15.994914619570
         O            0.131760800038    -0.807289005051    -1.276965387840    15.994914619570
         N            1.203168800038     1.045513994949     0.007402612160    14.003074004430
         C           -1.547067199962     0.736391994949     0.007403612160    12.000000000000
         H           -1.626075199962     1.348160994949    -0.892224387840     1.007825032230
         H           -2.330902199962    -0.023051005051     0.007407612160     1.007825032230
         H           -1.626075199962     1.348168994949     0.907026612160     1.007825032230
         H            1.265592800038     1.588754994949    -0.848341387840     1.007825032230
         H            1.265592800038     1.588761994949     0.863142612160     1.007825032230

  Basis Set: AUG-CC-PVTZ
    Blend: AUG-CC-PVTZ
  Basis Set: (AUG-CC-PVTZ AUX)
    Blend: AUG-CC-PVTZ-JKFIT
	 Reference Energy          =    -642.5568832951471450 [Eh]
	 Singles Energy            =      -0.0000000000000000 [Eh]
	 Same-Spin Energy          =      -0.2990596879297477 [Eh]
	 Opposite-Spin Energy      =      -0.8887450484617185 [Eh]
	 Correlation Energy        =      -1.1878047363914663 [Eh]
	 Total Energy              =    -643.7446880315386579 [Eh]

	 ================> DF-SCS-MP2 Energies <==================
	-----------------------------------------------------------
	 SCS Same-Spin Scale       =       0.3333333333333333 [-]
	 SCS Opposite-Spin Scale   =       1.2000000000000000 [-]
	 SCS Same-Spin Energy      =      -0.0996865626432492 [Eh]
	 SCS Opposite-Spin Energy  =      -1.0664940581540623 [Eh]
	 SCS Correlation Energy    =      -1.1661806207973116 [Eh]
	 SCS Total Energy          =    -643.7230639159444081 [Eh]
	-----------------------------------------------------------

  Dipole Moment: [D]
     X:    -1.4464      Y:     4.8655      Z:     0.2355     Total:     5.0814

*** Psi4 exiting successfully. Buy a developer a beer!
