                               Psi4 1.3.2 release

  ==> Input File <==

--------------------------------------------------------------------------
#psi4
#
memory 32 gb

molecule  {
0 1
  S       -0.0598420     0.1064250    -0.0004010
  O       -0.4487500     0.7022520     1.2774130
  O       -0.3882305     0.6983672    -1.2969406
  N       -0.5882700    -1.4879290    -0.0002140
  C        1.7041724    -0.0756148    -0.0494455
  H        1.9984920    -0.6462440    -0.8867680
  H        2.1431120     0.8977760     0.0077280
  H        1.9907200    -0.6430360     0.9062190
  H       -1.1275310    -1.6767740    -0.8419270
  H       -1.1351590    -1.6740770     0.8371300
units angstrom
no_reorient  #important for SAPT in psi4, default
symmetry c1  #important for SAPT in psi4, default
}

set PROPERTIES_ORIGIN ["COM"]
properties('MP2/aug-cc-pvtz', properties = ['dipole'])
--------------------------------------------------------------------------

    Molecular point group: c1
  Charge       = 0
  Multiplicity = 1
  Basis Set: AUG-CC-PVTZ
    Blend: AUG-CC-PVTZ
  Basis Set: (AUG-CC-PVTZ AUX)
    Blend: AUG-CC-PVTZ-JKFIT

    Orbital Energies [Eh]
    ---------------------

    Doubly Occupied:

       1A    -92.209330     2A    -20.558057     3A    -20.551900
       4A    -15.613599     5A    -11.276185     6A     -9.175118
       7A     -6.860329     8A     -6.859452     9A     -6.859226
      10A     -1.458878    11A     -1.343969    12A     -1.223023
      13A     -1.041564    14A     -0.846663    15A     -0.726509
      16A     -0.710876    17A     -0.678961    18A     -0.646969
      19A     -0.615572    20A     -0.588393    21A     -0.538917
      22A     -0.502500    23A     -0.480670    24A     -0.476522
      25A     -0.459622

  @DF-RHF Final Energy:  -642.55225972995504

   => Energetics <=

    Nuclear Repulsion Energy =            277.0292284620673513
    One-Electron Energy =               -1434.5573687369881100
    Two-Electron Energy =                 514.9758805449657757
    Total Energy =                       -642.5522597299550398
  Basis Set: (AUG-CC-PVTZ AUX)
    Blend: AUG-CC-PVTZ-RI
    Molecular point group: c1

    Geometry (in Angstrom), charge = 0, multiplicity = 1:

       Center              X                  Y                   Z               Mass
    ------------   -----------------  -----------------  -----------------  -----------------
         S           -0.068385738121     0.103363914787     0.009061208654    31.972071174400
         O           -0.457293738121     0.699190914787     1.286875208654    15.994914619570
         O           -0.396774238121     0.695306114787    -1.287478391346    15.994914619570
         N           -0.596813738121    -1.490990085213     0.009248208654    14.003074004430
         C            1.695628661879    -0.078675885213    -0.039983291346    12.000000000000
         H            1.989948261879    -0.649305085213    -0.877305791346     1.007825032230
         H            2.134568261879     0.894714914787     0.017190208654     1.007825032230
         H            1.982176261879    -0.646097085213     0.915681208654     1.007825032230
         H           -1.136074738121    -1.679835085213    -0.832464791346     1.007825032230
         H           -1.143702738121    -1.677138085213     0.846592208654     1.007825032230

  Basis Set: AUG-CC-PVTZ
    Blend: AUG-CC-PVTZ
  Basis Set: (AUG-CC-PVTZ AUX)
    Blend: AUG-CC-PVTZ-JKFIT
	 Reference Energy          =    -642.5522597299550398 [Eh]
	 Singles Energy            =      -0.0000000000000000 [Eh]
	 Same-Spin Energy          =      -0.3003160007056875 [Eh]
	 Opposite-Spin Energy      =      -0.8920842659144338 [Eh]
	 Correlation Energy        =      -1.1924002666201212 [Eh]
	 Total Energy              =    -643.7446599965751375 [Eh]

	 ================> DF-SCS-MP2 Energies <==================
	-----------------------------------------------------------
	 SCS Same-Spin Scale       =       0.3333333333333333 [-]
	 SCS Opposite-Spin Scale   =       1.2000000000000000 [-]
	 SCS Same-Spin Energy      =      -0.1001053335685625 [Eh]
	 SCS Opposite-Spin Energy  =      -1.0705011190973206 [Eh]
	 SCS Correlation Energy    =      -1.1706064526658830 [Eh]
	 SCS Total Energy          =    -643.7228661826209191 [Eh]
	-----------------------------------------------------------

  Dipole Moment: [D]
     X:     1.3833      Y:    -3.1332      Z:     0.0670     Total:     3.4256

*** Psi4 exiting successfully. Buy a developer a beer!
