                               Psi4 1.3.2 release

  ==> Input File <==

--------------------------------------------------------------------------
#psi4
#
memory 32 gb

molecule  {
0 1
  S       -0.0598420     0.1064250    -0.0004010
  O       -0.4120408     0.6451889     1.3128992
  O       -0.4004597     0.6411137    -1.3184819
  N       -0.5882700    -1.4879290    -0.0002140
  C        1.7021800    -0.0997450     0.0075480
  H        1.9984920    -0.6462440    -0.8867680
  H        2.1431120     0.8977760     0.0077280
  H        1.9907200    -0.6430360     0.9062190
  H       -1.1275310    -1.6767740    -0.8419270
  H       -1.1351590    -1.6740770     0.8371300
units angstrom
no_reorient  #important for SAPT in psi4, default
symmetry c1  #important for SAPT in psi4, default
}

set PROPERTIES_ORIGIN ["COM"]
properties('MP2/aug-cc-pvtz', properties = ['dipole'])
--------------------------------------------------------------------------

    Molecular point group: c1
  Charge       = 0
  Multiplicity = 1
  Basis Set: AUG-CC-PVTZ
    Blend: AUG-CC-PVTZ
  Basis Set: (AUG-CC-PVTZ AUX)
    Blend: AUG-CC-PVTZ-JKFIT

    Orbital Energies [Eh]
    ---------------------

    Doubly Occupied:

       1A    -92.210010     2A    -20.559204     3A    -20.559181
       4A    -15.607497     5A    -11.274133     6A     -9.175689
       7A     -6.860959     8A     -6.859964     9A     -6.859815
      10A     -1.460707    11A     -1.350570    12A     -1.216880
      13A     -1.039820    14A     -0.844613    15A     -0.722681
      16A     -0.710176    17A     -0.678824    18A     -0.649755
      19A     -0.602571    20A     -0.601425    21A     -0.536344
      22A     -0.507499    23A     -0.484012    24A     -0.477619
      25A     -0.458064

  @DF-RHF Final Energy:  -642.55376056120576

   => Energetics <=

    Nuclear Repulsion Energy =            277.2707140576483198
    One-Electron Energy =               -1435.0329255047586230
    Two-Electron Energy =                 515.2084508859045400
    Total Energy =                       -642.5537605612057632
  Basis Set: (AUG-CC-PVTZ AUX)
    Blend: AUG-CC-PVTZ-RI
    Molecular point group: c1

    Geometry (in Angstrom), charge = 0, multiplicity = 1:

       Center              X                  Y                   Z               Mass
    ------------   -----------------  -----------------  -----------------  -----------------
         S           -0.072255536493     0.125658180676    -0.000485426585    31.972071174400
         O           -0.424454336493     0.664422080676     1.312814773415    15.994914619570
         O           -0.412873236493     0.660346880676    -1.318566326585    15.994914619570
         N           -0.600683536493    -1.468695819324    -0.000298426585    14.003074004430
         C            1.689766463507    -0.080511819324     0.007463573415    12.000000000000
         H            1.986078463507    -0.627010819324    -0.886852426585     1.007825032230
         H            2.130698463507     0.917009180676     0.007643573415     1.007825032230
         H            1.978306463507    -0.623802819324     0.906134573415     1.007825032230
         H           -1.139944536493    -1.657540819324    -0.842011426585     1.007825032230
         H           -1.147572536493    -1.654843819324     0.837045573415     1.007825032230

  Basis Set: AUG-CC-PVTZ
    Blend: AUG-CC-PVTZ
  Basis Set: (AUG-CC-PVTZ AUX)
    Blend: AUG-CC-PVTZ-JKFIT
	 Reference Energy          =    -642.5537605612057632 [Eh]
	 Singles Energy            =      -0.0000000000000000 [Eh]
	 Same-Spin Energy          =      -0.3006211538696097 [Eh]
	 Opposite-Spin Energy      =      -0.8926863123680731 [Eh]
	 Correlation Energy        =      -1.1933074662376828 [Eh]
	 Total Energy              =    -643.7470680274434471 [Eh]

	 ================> DF-SCS-MP2 Energies <==================
	-----------------------------------------------------------
	 SCS Same-Spin Scale       =       0.3333333333333333 [-]
	 SCS Opposite-Spin Scale   =       1.2000000000000000 [-]
	 SCS Same-Spin Energy      =      -0.1002070512898699 [Eh]
	 SCS Opposite-Spin Energy  =      -1.0712235748416876 [Eh]
	 SCS Correlation Energy    =      -1.1714306261315575 [Eh]
	 SCS Total Energy          =    -643.7251911873373729 [Eh]
	-----------------------------------------------------------

  Dipole Moment: [D]
     X:     1.3377      Y:    -2.8346      Z:     0.0103     Total:     3.1344

*** Psi4 exiting successfully. Buy a developer a beer!
