                               Psi4 1.3.2 release

  ==> Input File <==

--------------------------------------------------------------------------
#psi4
#
memory 32 gb

molecule  {
0 1
  S       -0.0524615     0.1516951     0.0803620
  O       -0.4487500     0.7022520     1.2774130
  O       -0.4374810     0.6982890    -1.2834970
  N       -0.5882700    -1.4879290    -0.0002140
  C        1.7021800    -0.0997450     0.0075480
  H        2.0526211    -0.6426755    -0.8691963
  H        2.1431120     0.8977760     0.0077280
  H        1.9907200    -0.6430360     0.9062190
  H       -1.1275310    -1.6767740    -0.8419270
  H       -1.1351590    -1.6740770     0.8371300
units angstrom
no_reorient  #important for SAPT in psi4, default
symmetry c1  #important for SAPT in psi4, default
}

set PROPERTIES_ORIGIN ["COM"]
properties('MP2/aug-cc-pvtz', properties = ['dipole'])
--------------------------------------------------------------------------

    Molecular point group: c1
  Charge       = 0
  Multiplicity = 1
  Basis Set: AUG-CC-PVTZ
    Blend: AUG-CC-PVTZ
  Basis Set: (AUG-CC-PVTZ AUX)
    Blend: AUG-CC-PVTZ-JKFIT

    Orbital Energies [Eh]
    ---------------------

    Doubly Occupied:

       1A    -92.207616     2A    -20.577279     3A    -20.541576
       4A    -15.601298     5A    -11.279079     6A     -9.174769
       7A     -6.859974     8A     -6.859303     9A     -6.858516
      10A     -1.494637    11A     -1.335725    12A     -1.200723
      13A     -1.044158    14A     -0.841877    15A     -0.719081
      16A     -0.708518    17A     -0.691358    18A     -0.653466
      19A     -0.604348    20A     -0.604210    21A     -0.540257
      22A     -0.517133    23A     -0.480804    24A     -0.469825
      25A     -0.447274

  @DF-RHF Final Energy:  -642.54154920390454

   => Energetics <=

    Nuclear Repulsion Energy =            276.9950591681286483
    One-Electron Energy =               -1434.4476044187622392
    Two-Electron Energy =                 514.9109960467291103
    Total Energy =                       -642.5415492039045375
  Basis Set: (AUG-CC-PVTZ AUX)
    Blend: AUG-CC-PVTZ-RI
    Molecular point group: c1

    Geometry (in Angstrom), charge = 0, multiplicity = 1:

       Center              X                  Y                   Z               Mass
    ------------   -----------------  -----------------  -----------------  -----------------
         S           -0.055519750531     0.136422309337     0.052996105098    31.972071174400
         O           -0.451808250531     0.686979209337     1.250047105098    15.994914619570
         O           -0.440539250531     0.683016209337    -1.310862894902    15.994914619570
         N           -0.591328250531    -1.503201790663    -0.027579894902    14.003074004430
         C            1.699121749469    -0.115017790663    -0.019817894902    12.000000000000
         H            2.049562849469    -0.657948290663    -0.896562194902     1.007825032230
         H            2.140053749469     0.882503209337    -0.019637894902     1.007825032230
         H            1.987661749469    -0.658308790663     0.878853105098     1.007825032230
         H           -1.130589250531    -1.692046790663    -0.869292894902     1.007825032230
         H           -1.138217250531    -1.689349790663     0.809764105098     1.007825032230

  Basis Set: AUG-CC-PVTZ
    Blend: AUG-CC-PVTZ
  Basis Set: (AUG-CC-PVTZ AUX)
    Blend: AUG-CC-PVTZ-JKFIT
	 Reference Energy          =    -642.5415492039045375 [Eh]
	 Singles Energy            =      -0.0000000000000000 [Eh]
	 Same-Spin Energy          =      -0.2996203585173233 [Eh]
	 Opposite-Spin Energy      =      -0.8913966956380142 [Eh]
	 Correlation Energy        =      -1.1910170541553375 [Eh]
	 Total Energy              =    -643.7325662580598191 [Eh]

	 ================> DF-SCS-MP2 Energies <==================
	-----------------------------------------------------------
	 SCS Same-Spin Scale       =       0.3333333333333333 [-]
	 SCS Opposite-Spin Scale   =       1.2000000000000000 [-]
	 SCS Same-Spin Energy      =      -0.0998734528391078 [Eh]
	 SCS Opposite-Spin Energy  =      -1.0696760347656169 [Eh]
	 SCS Correlation Energy    =      -1.1695494876047245 [Eh]
	 SCS Total Energy          =    -643.7110986915092781 [Eh]
	-----------------------------------------------------------

  Dipole Moment: [D]
     X:     1.6504      Y:    -2.6706      Z:     0.7961     Total:     3.2388

*** Psi4 exiting successfully. Buy a developer a beer!
