                               Psi4 1.3.2 release

  ==> Input File <==

--------------------------------------------------------------------------
#psi4
#
memory 32 gb

molecule  {
0 1
  S       -0.0598420     0.1064250    -0.0004010
  O       -0.4487500     0.7022520     1.2774130
  O       -0.4374810     0.6982890    -1.2834970
  N       -0.5882700    -1.4879290    -0.0002140
  C        1.8015014    -0.1113664     0.0079961
  H        1.9984920    -0.6462440    -0.8867680
  H        2.1431120     0.8977760     0.0077280
  H        1.9907200    -0.6430360     0.9062190
  H       -1.1275310    -1.6767740    -0.8419270
  H       -1.1351590    -1.6740770     0.8371300
units angstrom
no_reorient  #important for SAPT in psi4, default
symmetry c1  #important for SAPT in psi4, default
}

set PROPERTIES_ORIGIN ["COM"]
properties('MP2/aug-cc-pvtz', properties = ['dipole'])
--------------------------------------------------------------------------

    Molecular point group: c1
  Charge       = 0
  Multiplicity = 1
  Basis Set: AUG-CC-PVTZ
    Blend: AUG-CC-PVTZ
  Basis Set: (AUG-CC-PVTZ AUX)
    Blend: AUG-CC-PVTZ-JKFIT

    Orbital Energies [Eh]
    ---------------------

    Doubly Occupied:

       1A    -92.206500     2A    -20.554706     3A    -20.554681
       4A    -15.610793     5A    -11.279650     6A     -9.171980
       7A     -6.857117     8A     -6.856158     9A     -6.855942
      10A     -1.455728    11A     -1.341704    12A     -1.220171
      13A     -1.034332    14A     -0.846486    15A     -0.724243
      16A     -0.705444    17A     -0.669748    18A     -0.650895
      19A     -0.620384    20A     -0.612883    21A     -0.537566
      22A     -0.502498    23A     -0.478547    24A     -0.469570
      25A     -0.452157

  @DF-RHF Final Energy:  -642.55106954918097

   => Energetics <=

    Nuclear Repulsion Energy =            274.7983518186124456
    One-Electron Energy =               -1430.1590775558549922
    Two-Electron Energy =                 512.8096561880615809
    Total Energy =                       -642.5510695491809656
  Basis Set: (AUG-CC-PVTZ AUX)
    Blend: AUG-CC-PVTZ-RI
    Molecular point group: c1

    Geometry (in Angstrom), charge = 0, multiplicity = 1:

       Center              X                  Y                   Z               Mass
    ------------   -----------------  -----------------  -----------------  -----------------
         S           -0.072387570244     0.107892877265    -0.000457627251    31.972071174400
         O           -0.461295570244     0.703719877265     1.277356372749    15.994914619570
         O           -0.450026570244     0.699756877265    -1.283553627251    15.994914619570
         N           -0.600815570244    -1.486461122735    -0.000270627251    14.003074004430
         C            1.788955829756    -0.109898522735     0.007939472749    12.000000000000
         H            1.985946429756    -0.644776122735    -0.886824627251     1.007825032230
         H            2.130566429756     0.899243877265     0.007671372749     1.007825032230
         H            1.978174429756    -0.641568122735     0.906162372749     1.007825032230
         H           -1.140076570244    -1.675306122735    -0.841983627251     1.007825032230
         H           -1.147704570244    -1.672609122735     0.837073372749     1.007825032230

  Basis Set: AUG-CC-PVTZ
    Blend: AUG-CC-PVTZ
  Basis Set: (AUG-CC-PVTZ AUX)
    Blend: AUG-CC-PVTZ-JKFIT
	 Reference Energy          =    -642.5510695491809656 [Eh]
	 Singles Energy            =      -0.0000000000000000 [Eh]
	 Same-Spin Energy          =      -0.3000246536917076 [Eh]
	 Opposite-Spin Energy      =      -0.8922460917513617 [Eh]
	 Correlation Energy        =      -1.1922707454430692 [Eh]
	 Total Energy              =    -643.7433402946240903 [Eh]

	 ================> DF-SCS-MP2 Energies <==================
	-----------------------------------------------------------
	 SCS Same-Spin Scale       =       0.3333333333333333 [-]
	 SCS Opposite-Spin Scale   =       1.2000000000000000 [-]
	 SCS Same-Spin Energy      =      -0.1000082178972359 [Eh]
	 SCS Opposite-Spin Energy  =      -1.0706953101016341 [Eh]
	 SCS Correlation Energy    =      -1.1707035279988700 [Eh]
	 SCS Total Energy          =    -643.7217730771798188 [Eh]
	-----------------------------------------------------------

  Dipole Moment: [D]
     X:     1.4213      Y:    -3.0960      Z:     0.0111     Total:     3.4067

*** Psi4 exiting successfully. Buy a developer a beer!
