                               Psi4 1.3.2 release

  ==> Input File <==

--------------------------------------------------------------------------
#psi4
#
memory 32 gb

molecule  {
0 1
  S       -0.0598420     0.1064250    -0.0004010
  O       -0.4607544     0.7209177     1.2648009
  O       -0.4495964     0.7169945    -1.2710488
  N       -0.5882700    -1.4879290    -0.0002140
  C        1.7021800    -0.0997450     0.0075480
  H        1.9984920    -0.6462440    -0.8867680
  H        2.1431120     0.8977760     0.0077280
  H        1.9907200    -0.6430360     0.9062190
  H       -1.1275310    -1.6767740    -0.8419270
  H       -1.1351590    -1.6740770     0.8371300
units angstrom
no_reorient  #important for SAPT in psi4, default
symmetry c1  #important for SAPT in psi4, default
}

set PROPERTIES_ORIGIN ["COM"]
properties('MP2/aug-cc-pvtz', properties = ['dipole'])
--------------------------------------------------------------------------

    Molecular point group: c1
  Charge       = 0
  Multiplicity = 1
  Basis Set: AUG-CC-PVTZ
    Blend: AUG-CC-PVTZ
  Basis Set: (AUG-CC-PVTZ AUX)
    Blend: AUG-CC-PVTZ-JKFIT

    Orbital Energies [Eh]
    ---------------------

    Doubly Occupied:

       1A    -92.208545     2A    -20.552750     3A    -20.552724
       4A    -15.612001     5A    -11.279962     6A     -9.174488
       7A     -6.859679     8A     -6.858723     9A     -6.858684
      10A     -1.457909    11A     -1.339604    12A     -1.222688
      13A     -1.045435    14A     -0.846204    15A     -0.725600
      16A     -0.709422    17A     -0.678298    18A     -0.647422
      19A     -0.606111    20A     -0.601518    21A     -0.538651
      22A     -0.499604    23A     -0.479961    24A     -0.475141
      25A     -0.461004

  @DF-RHF Final Energy:  -642.55744296935131

   => Energetics <=

    Nuclear Repulsion Energy =            276.9241598856528981
    One-Electron Energy =               -1434.3789445234947380
    Two-Electron Energy =                 514.8973416684905260
    Total Energy =                       -642.5574429693513139
  Basis Set: (AUG-CC-PVTZ AUX)
    Blend: AUG-CC-PVTZ-RI
    Molecular point group: c1

    Geometry (in Angstrom), charge = 0, multiplicity = 1:

       Center              X                  Y                   Z               Mass
    ------------   -----------------  -----------------  -----------------  -----------------
         S           -0.055781434839     0.100133149459    -0.000373433342    31.972071174400
         O           -0.456693834839     0.714625849459     1.264828466658    15.994914619570
         O           -0.445535834839     0.710702649459    -1.271021233342    15.994914619570
         N           -0.584209434839    -1.494220850541    -0.000186433342    14.003074004430
         C            1.706240565161    -0.106036850541     0.007575566658    12.000000000000
         H            2.002552565161    -0.652535850541    -0.886740433342     1.007825032230
         H            2.147172565161     0.891484149459     0.007755566658     1.007825032230
         H            1.994780565161    -0.649327850541     0.906246566658     1.007825032230
         H           -1.123470434839    -1.683065850541    -0.841899433342     1.007825032230
         H           -1.131098434839    -1.680368850541     0.837157566658     1.007825032230

  Basis Set: AUG-CC-PVTZ
    Blend: AUG-CC-PVTZ
  Basis Set: (AUG-CC-PVTZ AUX)
    Blend: AUG-CC-PVTZ-JKFIT
	 Reference Energy          =    -642.5574429693513139 [Eh]
	 Singles Energy            =      -0.0000000000000000 [Eh]
	 Same-Spin Energy          =      -0.3000511307757863 [Eh]
	 Opposite-Spin Energy      =      -0.8913998511621661 [Eh]
	 Correlation Energy        =      -1.1914509819379524 [Eh]
	 Total Energy              =    -643.7488939512892330 [Eh]

	 ================> DF-SCS-MP2 Energies <==================
	-----------------------------------------------------------
	 SCS Same-Spin Scale       =       0.3333333333333333 [-]
	 SCS Opposite-Spin Scale   =       1.2000000000000000 [-]
	 SCS Same-Spin Energy      =      -0.1000170435919288 [Eh]
	 SCS Opposite-Spin Energy  =      -1.0696798213945993 [Eh]
	 SCS Correlation Energy    =      -1.1696968649865280 [Eh]
	 SCS Total Energy          =    -643.7271398343378905 [Eh]
	-----------------------------------------------------------

  Dipole Moment: [D]
     X:     1.6086      Y:    -3.2073      Z:     0.0121     Total:     3.5881

*** Psi4 exiting successfully. Buy a developer a beer!
