                               Psi4 1.3.2 release

  ==> Input File <==

--------------------------------------------------------------------------
#psi4
#
memory 32 gb

molecule  {
0 1
  S       -0.0598420     0.1064250    -0.0004010
  O       -0.4365100     0.7023510     1.2810284
  O       -0.4374810     0.6982890    -1.2834970
  N       -0.5882700    -1.4879290    -0.0002140
  C        1.7027562    -0.0936905     0.0217849
  H        1.9984920    -0.6462440    -0.8867680
  H        2.1431120     0.8977760     0.0077280
  H        1.9907200    -0.6430360     0.9062190
  H       -1.1275310    -1.6767740    -0.8419270
  H       -1.1351590    -1.6740770     0.8371300
units angstrom
no_reorient  #important for SAPT in psi4, default
symmetry c1  #important for SAPT in psi4, default
}

set PROPERTIES_ORIGIN ["COM"]
properties('MP2/aug-cc-pvtz', properties = ['dipole'])
--------------------------------------------------------------------------

    Molecular point group: c1
  Charge       = 0
  Multiplicity = 1
  Basis Set: AUG-CC-PVTZ
    Blend: AUG-CC-PVTZ
  Basis Set: (AUG-CC-PVTZ AUX)
    Blend: AUG-CC-PVTZ-JKFIT

    Orbital Energies [Eh]
    ---------------------

    Doubly Occupied:

       1A    -92.209014     2A    -20.555337     3A    -20.553791
       4A    -15.611560     5A    -11.277851     6A     -9.174862
       7A     -6.860073     8A     -6.859109     9A     -6.859049
      10A     -1.458627    11A     -1.342879    12A     -1.221687
      13A     -1.043412    14A     -0.845908    15A     -0.725251
      16A     -0.709776    17A     -0.678479    18A     -0.647432
      19A     -0.607323    20A     -0.599356    21A     -0.538304
      22A     -0.501926    23A     -0.479474    24A     -0.477665
      25A     -0.460333

  @DF-RHF Final Energy:  -642.55688075452201

   => Energetics <=

    Nuclear Repulsion Energy =            276.9996898202549573
    One-Electron Energy =               -1434.5161891260477205
    Two-Electron Energy =                 514.9596185512708644
    Total Energy =                       -642.5568807545220125
  Basis Set: (AUG-CC-PVTZ AUX)
    Blend: AUG-CC-PVTZ-RI
    Molecular point group: c1

    Geometry (in Angstrom), charge = 0, multiplicity = 1:

       Center              X                  Y                   Z               Mass
    ------------   -----------------  -----------------  -----------------  -----------------
         S           -0.061975760128     0.105643560683    -0.002807984923    31.972071174400
         O           -0.438643760128     0.701569560683     1.278621415077    15.994914619570
         O           -0.439614760128     0.697507560683    -1.285903984923    15.994914619570
         N           -0.590403760128    -1.488710439317    -0.002620984923    14.003074004430
         C            1.700622439872    -0.094471939317     0.019377915077    12.000000000000
         H            1.996358239872    -0.647025439317    -0.889174984923     1.007825032230
         H            2.140978239872     0.896994560683     0.005321015077     1.007825032230
         H            1.988586239872    -0.643817439317     0.903812015077     1.007825032230
         H           -1.129664760128    -1.677555439317    -0.844333984923     1.007825032230
         H           -1.137292760128    -1.674858439317     0.834723015077     1.007825032230

  Basis Set: AUG-CC-PVTZ
    Blend: AUG-CC-PVTZ
  Basis Set: (AUG-CC-PVTZ AUX)
    Blend: AUG-CC-PVTZ-JKFIT
	 Reference Energy          =    -642.5568807545220125 [Eh]
	 Singles Energy            =      -0.0000000000000000 [Eh]
	 Same-Spin Energy          =      -0.3001811079162439 [Eh]
	 Opposite-Spin Energy      =      -0.8917049048085253 [Eh]
	 Correlation Energy        =      -1.1918860127247690 [Eh]
	 Total Energy              =    -643.7487667672468206 [Eh]

	 ================> DF-SCS-MP2 Energies <==================
	-----------------------------------------------------------
	 SCS Same-Spin Scale       =       0.3333333333333333 [-]
	 SCS Opposite-Spin Scale   =       1.2000000000000000 [-]
	 SCS Same-Spin Energy      =      -0.1000603693054146 [Eh]
	 SCS Opposite-Spin Energy  =      -1.0700458857702302 [Eh]
	 SCS Correlation Energy    =      -1.1701062550756447 [Eh]
	 SCS Total Energy          =    -643.7269870095976785 [Eh]
	-----------------------------------------------------------

  Dipole Moment: [D]
     X:     1.5042      Y:    -3.1205      Z:    -0.0039     Total:     3.4642

*** Psi4 exiting successfully. Buy a developer a beer!
