                               Psi4 1.3.2 release

  ==> Input File <==

--------------------------------------------------------------------------
#psi4
#
memory 32 gb

molecule  {
0 1
  S       -0.0467473     0.1018185     0.0254190
  O       -0.4487500     0.7022520     1.2774130
  O       -0.4374810     0.6982890    -1.2834970
  N       -0.5882700    -1.4879290    -0.0002140
  C        1.7021800    -0.0997450     0.0075480
  H        1.9984920    -0.6462440    -0.8867680
  H        2.1431120     0.8977760     0.0077280
  H        1.9907200    -0.6430360     0.9062190
  H       -1.1299599    -1.6934830    -0.8364348
  H       -1.1351590    -1.6740770     0.8371300
units angstrom
no_reorient  #important for SAPT in psi4, default
symmetry c1  #important for SAPT in psi4, default
}

set PROPERTIES_ORIGIN ["COM"]
properties('MP2/aug-cc-pvtz', properties = ['dipole'])
--------------------------------------------------------------------------

    Molecular point group: c1
  Charge       = 0
  Multiplicity = 1
  Basis Set: AUG-CC-PVTZ
    Blend: AUG-CC-PVTZ
  Basis Set: (AUG-CC-PVTZ AUX)
    Blend: AUG-CC-PVTZ-JKFIT

    Orbital Energies [Eh]
    ---------------------

    Doubly Occupied:

       1A    -92.209380     2A    -20.559120     3A    -20.547517
       4A    -15.610416     5A    -11.280271     6A     -9.175351
       7A     -6.860552     8A     -6.859656     9A     -6.859413
      10A     -1.457791    11A     -1.336207    12A     -1.220041
      13A     -1.049548    14A     -0.846930    15A     -0.723659
      16A     -0.710635    17A     -0.678508    18A     -0.648690
      19A     -0.607197    20A     -0.600972    21A     -0.537297
      22A     -0.500792    23A     -0.480881    24A     -0.473251
      25A     -0.458335

  @DF-RHF Final Energy:  -642.55508551582409

   => Energetics <=

    Nuclear Repulsion Energy =            276.9000822391462862
    One-Electron Energy =               -1434.3255172414271783
    Two-Electron Energy =                 514.8703494864568029
    Total Energy =                       -642.5550855158240893
  Basis Set: (AUG-CC-PVTZ AUX)
    Blend: AUG-CC-PVTZ-RI
    Molecular point group: c1

    Geometry (in Angstrom), charge = 0, multiplicity = 1:

       Center              X                  Y                   Z               Mass
    ------------   -----------------  -----------------  -----------------  -----------------
         S           -0.051128590710     0.103545969161     0.016671412485    31.972071174400
         O           -0.453131290710     0.703979469161     1.268665412485    15.994914619570
         O           -0.441862290710     0.700016469161    -1.292244587515    15.994914619570
         N           -0.592651290710    -1.486201530839    -0.008961587515    14.003074004430
         C            1.697798709290    -0.098017530839    -0.001199587515    12.000000000000
         H            1.994110709290    -0.644516530839    -0.895515587515     1.007825032230
         H            2.138730709290     0.899503469161    -0.001019587515     1.007825032230
         H            1.986338709290    -0.641308530839     0.897471412485     1.007825032230
         H           -1.134341190710    -1.691755530839    -0.845182387515     1.007825032230
         H           -1.139540290710    -1.672349530839     0.828382412485     1.007825032230

  Basis Set: AUG-CC-PVTZ
    Blend: AUG-CC-PVTZ
  Basis Set: (AUG-CC-PVTZ AUX)
    Blend: AUG-CC-PVTZ-JKFIT
	 Reference Energy          =    -642.5550855158240893 [Eh]
	 Singles Energy            =      -0.0000000000000000 [Eh]
	 Same-Spin Energy          =      -0.3003348344339350 [Eh]
	 Opposite-Spin Energy      =      -0.8919002301250195 [Eh]
	 Correlation Energy        =      -1.1922350645589546 [Eh]
	 Total Energy              =    -643.7473205803830751 [Eh]

	 ================> DF-SCS-MP2 Energies <==================
	-----------------------------------------------------------
	 SCS Same-Spin Scale       =       0.3333333333333333 [-]
	 SCS Opposite-Spin Scale   =       1.2000000000000000 [-]
	 SCS Same-Spin Energy      =      -0.1001116114779783 [Eh]
	 SCS Opposite-Spin Energy  =      -1.0702802761500234 [Eh]
	 SCS Correlation Energy    =      -1.1703918876280017 [Eh]
	 SCS Total Energy          =    -643.7254774034521461 [Eh]
	-----------------------------------------------------------

  Dipole Moment: [D]
     X:     1.6548      Y:    -3.1640      Z:     0.2650     Total:     3.5804

*** Psi4 exiting successfully. Buy a developer a beer!
