                               Psi4 1.4a3.dev225

  ==> Input File <==

--------------------------------------------------------------------------
#psi4
#
memory 32 gb

molecule  {
0 1
  S        0.0496630    -0.1768790     0.0000010
  O        0.1614460    -0.8614300     1.2843790
  O        0.1614460    -0.8614400    -1.2843720
  N        1.2328540     0.9913630    -0.0000040
  C       -1.5612253     0.7062777    -0.0000031
  H       -1.5963900     1.2940100    -0.8996310
  H       -2.3012170    -0.0772020     0.0000010
  H       -1.5963900     1.2940180     0.8996200
  H        1.2952780     1.5346040    -0.8557480
  H        1.2952780     1.5346110     0.8557360
units angstrom
no_reorient  #important for SAPT in psi4, default
symmetry c1  #important for SAPT in psi4, default
}

set PROPERTIES_ORIGIN ["COM"]
properties('MP2/aug-cc-pvtz', properties = ['dipole'])
--------------------------------------------------------------------------

    Molecular point group: c1
  Charge       = 0
  Multiplicity = 1
  Basis Set: AUG-CC-PVTZ
    Blend: AUG-CC-PVTZ
  Basis Set: (AUG-CC-PVTZ AUX)
    Blend: AUG-CC-PVTZ-JKFIT

    Orbital Energies [Eh]
    ---------------------

    Doubly Occupied:

       1A    -92.208898     2A    -20.551831     3A    -20.551811
       4A    -15.612687     5A    -11.282655     6A     -9.173569
       7A     -6.858939     8A     -6.857867     9A     -6.857838
      10A     -1.456125    11A     -1.341065    12A     -1.221706
      13A     -1.036339    14A     -0.850572    15A     -0.732675
      16A     -0.717351    17A     -0.671465    18A     -0.649425
      19A     -0.619647    20A     -0.610481    21A     -0.513222
      22A     -0.501028    23A     -0.482396    24A     -0.476893
      25A     -0.453472

  @DF-RHF Final Energy:  -642.55287354124289

   => Energetics <=

    Nuclear Repulsion Energy =            275.9656693526230242
    One-Electron Energy =               -1432.4571748523139831
    Two-Electron Energy =                 513.9386319584480134
    Total Energy =                       -642.5528735412428887
  Basis Set: (AUG-CC-PVTZ AUX)
    Blend: AUG-CC-PVTZ-RI
    Molecular point group: c1

    Geometry (in Angstrom), charge = 0, multiplicity = 1:

       Center              X                  Y                   Z               Mass
    ------------   -----------------  -----------------  -----------------  -----------------
         S            0.024871010688    -0.121816326956     0.000000699465    31.972071174400
         O            0.136654010688    -0.806367326956     1.284378699465    15.994914619570
         O            0.136654010688    -0.806377326956    -1.284372300535    15.994914619570
         N            1.208062010688     1.046425673044    -0.000004300535    14.003074004430
         C           -1.586017289312     0.761340373044    -0.000003400535    12.000000000000
         H           -1.621181989312     1.349072673044    -0.899631300535     1.007825032230
         H           -2.326008989312    -0.022139326956     0.000000699465     1.007825032230
         H           -1.621181989312     1.349080673044     0.899619699465     1.007825032230
         H            1.270486010688     1.589666673044    -0.855748300535     1.007825032230
         H            1.270486010688     1.589673673044     0.855735699465     1.007825032230

  Basis Set: AUG-CC-PVTZ
    Blend: AUG-CC-PVTZ
  Basis Set: (AUG-CC-PVTZ AUX)
    Blend: AUG-CC-PVTZ-JKFIT
	 Reference Energy          =    -642.5528735412428887 [Eh]
	 Singles Energy            =      -0.0000000000000000 [Eh]
	 Same-Spin Energy          =      -0.3000140340848956 [Eh]
	 Opposite-Spin Energy      =      -0.8916292815033712 [Eh]
	 Correlation Energy        =      -1.1916433155882666 [Eh]
	 Total Energy              =    -643.7445168568311828 [Eh]

	 ================> DF-SCS-MP2 Energies <==================
	-----------------------------------------------------------
	 SCS Same-Spin Scale       =       0.3333333333333333 [-]
	 SCS Opposite-Spin Scale   =       1.2000000000000000 [-]
	 SCS Same-Spin Energy      =      -0.1000046780282985 [Eh]
	 SCS Opposite-Spin Energy  =      -1.0699551378040453 [Eh]
	 SCS Correlation Energy    =      -1.1699598158323439 [Eh]
	 SCS Total Energy          =    -643.7228333570752739 [Eh]
	-----------------------------------------------------------

  Dipole Moment: [D]
     X:    -1.4111      Y:     4.9851      Z:    -0.0000     Total:     5.1809

*** Psi4 exiting successfully. Buy a developer a beer!
