                               Psi4 1.3.2 release

  ==> Input File <==

--------------------------------------------------------------------------
#psi4
#
memory 32 gb

molecule  {
0 1
  S       -0.0598420     0.1064250    -0.0004010
  O       -0.4487500     0.7022520     1.2774130
  O       -0.4374810     0.6982890    -1.2834970
  N       -0.5882700    -1.4879290    -0.0002140
  C        1.5035372    -0.0765023     0.0066519
  H        1.9984920    -0.6462440    -0.8867680
  H        2.1431120     0.8977760     0.0077280
  H        1.9907200    -0.6430360     0.9062190
  H       -1.1275310    -1.6767740    -0.8419270
  H       -1.1351590    -1.6740770     0.8371300
units angstrom
no_reorient  #important for SAPT in psi4, default
symmetry c1  #important for SAPT in psi4, default
}

set PROPERTIES_ORIGIN ["COM"]
properties('MP2/aug-cc-pvtz', properties = ['dipole'])
--------------------------------------------------------------------------

    Molecular point group: c1
  Charge       = 0
  Multiplicity = 1
  Basis Set: AUG-CC-PVTZ
    Blend: AUG-CC-PVTZ
  Basis Set: (AUG-CC-PVTZ AUX)
    Blend: AUG-CC-PVTZ-JKFIT

    Orbital Energies [Eh]
    ---------------------

    Doubly Occupied:

       1A    -92.204806     2A    -20.550428     3A    -20.550403
       4A    -15.607910     5A    -11.284746     6A     -9.174157
       7A     -6.859332     8A     -6.858925     9A     -6.857995
      10A     -1.464455    11A     -1.341449    12A     -1.221512
      13A     -1.078560    14A     -0.839339    15A     -0.723910
      16A     -0.722467    17A     -0.692103    18A     -0.648260
      19A     -0.574867    20A     -0.573128    21A     -0.535287
      22A     -0.502035    23A     -0.495448    24A     -0.470105
      25A     -0.457215

  @DF-RHF Final Energy:  -642.51352569494554

   => Energetics <=

    Nuclear Repulsion Energy =            281.9655542508694452
    One-Electron Energy =               -1444.3804738728701977
    Two-Electron Energy =                 519.9013939270552100
    Total Energy =                       -642.5135256949455425
  Basis Set: (AUG-CC-PVTZ AUX)
    Blend: AUG-CC-PVTZ-RI
    Molecular point group: c1

    Geometry (in Angstrom), charge = 0, multiplicity = 1:

       Center              X                  Y                   Z               Mass
    ------------   -----------------  -----------------  -----------------  -----------------
         S           -0.034751611208     0.103489180984    -0.000287840893    31.972071174400
         O           -0.423659611208     0.699316180984     1.277526159107    15.994914619570
         O           -0.412390611208     0.695353180984    -1.283383840893    15.994914619570
         N           -0.563179611208    -1.490864819016    -0.000100840893    14.003074004430
         C            1.528627588792    -0.079438119016     0.006765059107    12.000000000000
         H            2.023582388792    -0.649179819016    -0.886654840893     1.007825032230
         H            2.168202388792     0.894840180984     0.007841159107     1.007825032230
         H            2.015810388792    -0.645971819016     0.906332159107     1.007825032230
         H           -1.102440611208    -1.679709819016    -0.841813840893     1.007825032230
         H           -1.110068611208    -1.677012819016     0.837243159107     1.007825032230

  Basis Set: AUG-CC-PVTZ
    Blend: AUG-CC-PVTZ
  Basis Set: (AUG-CC-PVTZ AUX)
    Blend: AUG-CC-PVTZ-JKFIT
	 Reference Energy          =    -642.5135256949455425 [Eh]
	 Singles Energy            =      -0.0000000000000000 [Eh]
	 Same-Spin Energy          =      -0.3027004762430724 [Eh]
	 Opposite-Spin Energy      =      -0.8942872637183105 [Eh]
	 Correlation Energy        =      -1.1969877399613829 [Eh]
	 Total Energy              =    -643.7105134349069431 [Eh]

	 ================> DF-SCS-MP2 Energies <==================
	-----------------------------------------------------------
	 SCS Same-Spin Scale       =       0.3333333333333333 [-]
	 SCS Opposite-Spin Scale   =       1.2000000000000000 [-]
	 SCS Same-Spin Energy      =      -0.1009001587476908 [Eh]
	 SCS Opposite-Spin Energy  =      -1.0731447164619725 [Eh]
	 SCS Correlation Energy    =      -1.1740448752096633 [Eh]
	 SCS Total Energy          =    -643.6875705701552306 [Eh]
	-----------------------------------------------------------

  Dipole Moment: [D]
     X:     1.9589      Y:    -3.1456      Z:     0.0135     Total:     3.7057

*** Psi4 exiting successfully. Buy a developer a beer!
