                               Psi4 1.4a3.dev225

  ==> Input File <==

--------------------------------------------------------------------------
#psi4
#
memory 32 gb

molecule  {
0 1
  S        0.0496630    -0.1768790     0.0000010
  O        0.1614460    -0.8614300     1.2843790
  O        0.1614460    -0.8614400    -1.2843720
  N        1.2328540     0.9913630    -0.0000040
  C       -1.5173820     0.6822410    -0.0000030
  H       -1.5963900     1.2940100    -0.8996310
  H       -2.3012170    -0.0772020     0.0000010
  H       -1.5963900     1.2940180     0.8996200
  H        1.2983515     1.5613506    -0.8978808
  H        1.2952780     1.5346110     0.8557360
units angstrom
no_reorient  #important for SAPT in psi4, default
symmetry c1  #important for SAPT in psi4, default
}

set PROPERTIES_ORIGIN ["COM"]
properties('MP2/aug-cc-pvtz', properties = ['dipole'])
--------------------------------------------------------------------------

    Molecular point group: c1
  Charge       = 0
  Multiplicity = 1
  Basis Set: AUG-CC-PVTZ
    Blend: AUG-CC-PVTZ
  Basis Set: (AUG-CC-PVTZ AUX)
    Blend: AUG-CC-PVTZ-JKFIT

    Orbital Energies [Eh]
    ---------------------

    Doubly Occupied:

       1A    -92.209431     2A    -20.551533     3A    -20.551090
       4A    -15.616646     5A    -11.282677     6A     -9.174349
       7A     -6.859753     8A     -6.858770     9A     -6.858626
      10A     -1.457032    11A     -1.341097    12A     -1.215295
      13A     -1.040328    14A     -0.847370    15A     -0.725082
      16A     -0.716780    17A     -0.674311    18A     -0.645985
      19A     -0.611994    20A     -0.604421    21A     -0.513299
      22A     -0.499915    23A     -0.480427    24A     -0.475918
      25A     -0.461089

  @DF-RHF Final Energy:  -642.55084653531833

   => Energetics <=

    Nuclear Repulsion Energy =            276.7909697067641446
    One-Electron Energy =               -1434.1372008045461826
    Two-Electron Energy =                 514.7953845624637097
    Total Energy =                       -642.5508465353183283
  Basis Set: (AUG-CC-PVTZ AUX)
    Blend: AUG-CC-PVTZ-RI
    Molecular point group: c1

    Geometry (in Angstrom), charge = 0, multiplicity = 1:

       Center              X                  Y                   Z               Mass
    ------------   -----------------  -----------------  -----------------  -----------------
         S            0.019300544229    -0.119063977235     0.000447641131    31.972071174400
         O            0.131083544229    -0.803614977235     1.284825641131    15.994914619570
         O            0.131083544229    -0.803624977235    -1.283925358869    15.994914619570
         N            1.202491544229     1.049178022765     0.000442641131    14.003074004430
         C           -1.547744455771     0.740056022765     0.000443641131    12.000000000000
         H           -1.626752455771     1.351825022765    -0.899184358869     1.007825032230
         H           -2.331579455771    -0.019386977235     0.000447641131     1.007825032230
         H           -1.626752455771     1.351833022765     0.900066641131     1.007825032230
         H            1.267989044229     1.619165622765    -0.897434158869     1.007825032230
         H            1.264915544229     1.592426022765     0.856182641131     1.007825032230

  Basis Set: AUG-CC-PVTZ
    Blend: AUG-CC-PVTZ
  Basis Set: (AUG-CC-PVTZ AUX)
    Blend: AUG-CC-PVTZ-JKFIT
	 Reference Energy          =    -642.5508465353183283 [Eh]
	 Singles Energy            =      -0.0000000000000000 [Eh]
	 Same-Spin Energy          =      -0.3004250858728709 [Eh]
	 Opposite-Spin Energy      =      -0.8921903226501197 [Eh]
	 Correlation Energy        =      -1.1926154085229905 [Eh]
	 Total Energy              =    -643.7434619438413392 [Eh]

	 ================> DF-SCS-MP2 Energies <==================
	-----------------------------------------------------------
	 SCS Same-Spin Scale       =       0.3333333333333333 [-]
	 SCS Opposite-Spin Scale   =       1.2000000000000000 [-]
	 SCS Same-Spin Energy      =      -0.1001416952909570 [Eh]
	 SCS Opposite-Spin Energy  =      -1.0706283871801436 [Eh]
	 SCS Correlation Energy    =      -1.1707700824711005 [Eh]
	 SCS Total Energy          =    -643.7216166177894365 [Eh]
	-----------------------------------------------------------

  Dipole Moment: [D]
     X:    -1.4660      Y:     5.0380      Z:    -0.0373     Total:     5.2471

*** Psi4 exiting successfully. Buy a developer a beer!
