                               Psi4 1.3.2 release

  ==> Input File <==

--------------------------------------------------------------------------
#psi4
#
memory 32 gb

molecule  {
0 1
  S       -0.0598420     0.1064250    -0.0004010
  O       -0.4487500     0.7022520     1.2774130
  O       -0.4582921     0.6536530    -1.2969459
  N       -0.6096927    -1.4797571    -0.0541722
  C        1.7021800    -0.0997450     0.0075480
  H        1.9984920    -0.6462440    -0.8867680
  H        2.1431120     0.8977760     0.0077280
  H        1.9907200    -0.6430360     0.9062190
  H       -1.1275310    -1.6767740    -0.8419270
  H       -1.1351590    -1.6740770     0.8371300
units angstrom
no_reorient  #important for SAPT in psi4, default
symmetry c1  #important for SAPT in psi4, default
}

set PROPERTIES_ORIGIN ["COM"]
properties('MP2/aug-cc-pvtz', properties = ['dipole'])
--------------------------------------------------------------------------

    Molecular point group: c1
  Charge       = 0
  Multiplicity = 1
  Basis Set: AUG-CC-PVTZ
    Blend: AUG-CC-PVTZ
  Basis Set: (AUG-CC-PVTZ AUX)
    Blend: AUG-CC-PVTZ-JKFIT

    Orbital Energies [Eh]
    ---------------------

    Doubly Occupied:

       1A    -92.209585     2A    -20.558909     3A    -20.550803
       4A    -15.604959     5A    -11.280585     6A     -9.175292
       7A     -6.860553     8A     -6.859546     9A     -6.859454
      10A     -1.458945    11A     -1.343982    12A     -1.219508
      13A     -1.046024    14A     -0.847955    15A     -0.730060
      16A     -0.707259    17A     -0.678862    18A     -0.649361
      19A     -0.606823    20A     -0.602643    21A     -0.535077
      22A     -0.503108    23A     -0.479774    24A     -0.478365
      25A     -0.457434

  @DF-RHF Final Energy:  -642.55280651463715

   => Energetics <=

    Nuclear Repulsion Energy =            277.1407840155183635
    One-Electron Energy =               -1434.7774438117712634
    Two-Electron Energy =                 515.0838532816156885
    Total Energy =                       -642.5528065146371546
  Basis Set: (AUG-CC-PVTZ AUX)
    Blend: AUG-CC-PVTZ-RI
    Molecular point group: c1

    Geometry (in Angstrom), charge = 0, multiplicity = 1:

       Center              X                  Y                   Z               Mass
    ------------   -----------------  -----------------  -----------------  -----------------
         S           -0.053180902014     0.112735410277     0.009816370180    31.972071174400
         O           -0.442088902014     0.708562410277     1.287630370180    15.994914619570
         O           -0.451631002014     0.659963410277    -1.286728529820    15.994914619570
         N           -0.603031602014    -1.473446689723    -0.043954829820    14.003074004430
         C            1.708841097986    -0.093434589723     0.017765370180    12.000000000000
         H            2.005153097986    -0.639933589723    -0.876550629820     1.007825032230
         H            2.149773097986     0.904086410277     0.017945370180     1.007825032230
         H            1.997381097986    -0.636725589723     0.916436370180     1.007825032230
         H           -1.120869902014    -1.670463589723    -0.831709629820     1.007825032230
         H           -1.128497902014    -1.667766589723     0.847347370180     1.007825032230

  Basis Set: AUG-CC-PVTZ
    Blend: AUG-CC-PVTZ
  Basis Set: (AUG-CC-PVTZ AUX)
    Blend: AUG-CC-PVTZ-JKFIT
	 Reference Energy          =    -642.5528065146371546 [Eh]
	 Singles Energy            =      -0.0000000000000000 [Eh]
	 Same-Spin Energy          =      -0.3001239266727754 [Eh]
	 Opposite-Spin Energy      =      -0.8915295324390486 [Eh]
	 Correlation Energy        =      -1.1916534591118240 [Eh]
	 Total Energy              =    -643.7444599737490307 [Eh]

	 ================> DF-SCS-MP2 Energies <==================
	-----------------------------------------------------------
	 SCS Same-Spin Scale       =       0.3333333333333333 [-]
	 SCS Opposite-Spin Scale   =       1.2000000000000000 [-]
	 SCS Same-Spin Energy      =      -0.1000413088909251 [Eh]
	 SCS Opposite-Spin Energy  =      -1.0698354389268583 [Eh]
	 SCS Correlation Energy    =      -1.1698767478177834 [Eh]
	 SCS Total Energy          =    -643.7226832624548933 [Eh]
	-----------------------------------------------------------

  Dipole Moment: [D]
     X:     1.6673      Y:    -3.0079      Z:     0.1776     Total:     3.4437

*** Psi4 exiting successfully. Buy a developer a beer!
