                               Psi4 1.3.2 release

  ==> Input File <==

--------------------------------------------------------------------------
#psi4
#
memory 32 gb

molecule  {
0 1
  S       -0.0598420     0.1064250    -0.0004010
  O       -0.4487500     0.7022520     1.2774130
  O       -0.4374810     0.6982890    -1.2834970
  N       -0.5041046    -1.5133994     0.0001899
  C        1.6889746    -0.1916804     0.0076335
  H        1.9984920    -0.6462440    -0.8867680
  H        2.1431120     0.8977760     0.0077280
  H        1.9907200    -0.6430360     0.9062190
  H       -1.1275310    -1.6767740    -0.8419270
  H       -1.1351590    -1.6740770     0.8371300
units angstrom
no_reorient  #important for SAPT in psi4, default
symmetry c1  #important for SAPT in psi4, default
}

set PROPERTIES_ORIGIN ["COM"]
properties('MP2/aug-cc-pvtz', properties = ['dipole'])
--------------------------------------------------------------------------

    Molecular point group: c1
  Charge       = 0
  Multiplicity = 1
  Basis Set: AUG-CC-PVTZ
    Blend: AUG-CC-PVTZ
  Basis Set: (AUG-CC-PVTZ AUX)
    Blend: AUG-CC-PVTZ-JKFIT

    Orbital Energies [Eh]
    ---------------------

    Doubly Occupied:

       1A    -92.209062     2A    -20.559075     3A    -20.559048
       4A    -15.618857     5A    -11.276781     6A     -9.175309
       7A     -6.860570     8A     -6.859505     9A     -6.859407
      10A     -1.460902    11A     -1.345664    12A     -1.216606
      13A     -1.041560    14A     -0.841704    15A     -0.705870
      16A     -0.705620    17A     -0.681319    18A     -0.652655
      19A     -0.613712    20A     -0.578609    21A     -0.540587
      22A     -0.504268    23A     -0.481558    24A     -0.478827
      25A     -0.463833

  @DF-RHF Final Energy:  -642.54017663060438

   => Energetics <=

    Nuclear Repulsion Energy =            276.8762305899628018
    One-Electron Energy =               -1434.2509978857876831
    Two-Electron Energy =                 514.8345906652203894
    Total Energy =                       -642.5401766306043783
  Basis Set: (AUG-CC-PVTZ AUX)
    Blend: AUG-CC-PVTZ-RI
    Molecular point group: c1

    Geometry (in Angstrom), charge = 0, multiplicity = 1:

       Center              X                  Y                   Z               Mass
    ------------   -----------------  -----------------  -----------------  -----------------
         S           -0.070579782202     0.121791560606    -0.000471359727    31.972071174400
         O           -0.459487782202     0.717618560606     1.277342640273    15.994914619570
         O           -0.448218782202     0.713655560606    -1.283567359727    15.994914619570
         N           -0.514842382202    -1.498032839394     0.000119540273    14.003074004430
         C            1.678236817798    -0.176313839394     0.007563140273    12.000000000000
         H            1.987754217798    -0.630877439394    -0.886838359727     1.007825032230
         H            2.132374217798     0.913142560606     0.007657640273     1.007825032230
         H            1.979982217798    -0.627669439394     0.906148640273     1.007825032230
         H           -1.138268782202    -1.661407439394    -0.841997359727     1.007825032230
         H           -1.145896782202    -1.658710439394     0.837059640273     1.007825032230

  Basis Set: AUG-CC-PVTZ
    Blend: AUG-CC-PVTZ
  Basis Set: (AUG-CC-PVTZ AUX)
    Blend: AUG-CC-PVTZ-JKFIT
	 Reference Energy          =    -642.5401766306043783 [Eh]
	 Singles Energy            =      -0.0000000000000000 [Eh]
	 Same-Spin Energy          =      -0.3013756195855480 [Eh]
	 Opposite-Spin Energy      =      -0.8946911199948839 [Eh]
	 Correlation Energy        =      -1.1960667395804321 [Eh]
	 Total Energy              =    -643.7362433701848659 [Eh]

	 ================> DF-SCS-MP2 Energies <==================
	-----------------------------------------------------------
	 SCS Same-Spin Scale       =       0.3333333333333333 [-]
	 SCS Opposite-Spin Scale   =       1.2000000000000000 [-]
	 SCS Same-Spin Energy      =      -0.1004585398618493 [Eh]
	 SCS Opposite-Spin Energy  =      -1.0736293439938607 [Eh]
	 SCS Correlation Energy    =      -1.1740878838557101 [Eh]
	 SCS Total Energy          =    -643.7142645144600692 [Eh]
	-----------------------------------------------------------

  Dipole Moment: [D]
     X:     1.3370      Y:    -3.0053      Z:     0.0106     Total:     3.2893

*** Psi4 exiting successfully. Buy a developer a beer!
