                               Psi4 1.3.2 release

  ==> Input File <==

--------------------------------------------------------------------------
#psi4
#
memory 32 gb

molecule  {
0 1
  S       -0.0865102     0.1141799    -0.0520330
  O       -0.4487500     0.7022520     1.2774130
  O       -0.4374810     0.6982890    -1.2834970
  N       -0.5882700    -1.4879290    -0.0002140
  C        1.7021800    -0.0997450     0.0075480
  H        1.9984920    -0.6462440    -0.8867680
  H        2.1431120     0.8977760     0.0077280
  H        1.9907200    -0.6430360     0.9062190
  H       -1.1221812    -1.6431885    -0.8521406
  H       -1.1351590    -1.6740770     0.8371300
units angstrom
no_reorient  #important for SAPT in psi4, default
symmetry c1  #important for SAPT in psi4, default
}

set PROPERTIES_ORIGIN ["COM"]
properties('MP2/aug-cc-pvtz', properties = ['dipole'])
--------------------------------------------------------------------------

    Molecular point group: c1
  Charge       = 0
  Multiplicity = 1
  Basis Set: AUG-CC-PVTZ
    Blend: AUG-CC-PVTZ
  Basis Set: (AUG-CC-PVTZ AUX)
    Blend: AUG-CC-PVTZ-JKFIT

    Orbital Energies [Eh]
    ---------------------

    Doubly Occupied:

       1A    -92.206867     2A    -20.568144     3A    -20.545078
       4A    -15.612037     5A    -11.274929     6A     -9.173330
       7A     -6.858532     8A     -6.857815     9A     -6.857278
      10A     -1.476366    11A     -1.341959    12A     -1.222859
      13A     -1.032943    14A     -0.843947    15A     -0.729303
      16A     -0.709375    17A     -0.682793    18A     -0.648188
      19A     -0.603721    20A     -0.599897    21A     -0.543126
      22A     -0.509548    23A     -0.481198    24A     -0.472696
      25A     -0.456182

  @DF-RHF Final Energy:  -642.55207823542059

   => Energetics <=

    Nuclear Repulsion Energy =            277.2475520627733090
    One-Electron Energy =               -1434.9830387879728733
    Two-Electron Energy =                 515.1834084897789126
    Total Energy =                       -642.5520782354205949
  Basis Set: (AUG-CC-PVTZ AUX)
    Blend: AUG-CC-PVTZ-RI
    Molecular point group: c1

    Geometry (in Angstrom), charge = 0, multiplicity = 1:

       Center              X                  Y                   Z               Mass
    ------------   -----------------  -----------------  -----------------  -----------------
         S           -0.077592457238     0.111213807318    -0.034548776824    31.972071174400
         O           -0.439832257238     0.699285907318     1.294897223176    15.994914619570
         O           -0.428563257238     0.695322907318    -1.266012776824    15.994914619570
         N           -0.579352257238    -1.490895092682     0.017270223176    14.003074004430
         C            1.711097742762    -0.102711092682     0.025032223176    12.000000000000
         H            2.007409742762    -0.649210092682    -0.869283776824     1.007825032230
         H            2.152029742762     0.894809907318     0.025212223176     1.007825032230
         H            1.999637742762    -0.646002092682     0.923703223176     1.007825032230
         H           -1.113263457238    -1.646154592682    -0.834656376824     1.007825032230
         H           -1.126241257238    -1.677043092682     0.854614223176     1.007825032230

  Basis Set: AUG-CC-PVTZ
    Blend: AUG-CC-PVTZ
  Basis Set: (AUG-CC-PVTZ AUX)
    Blend: AUG-CC-PVTZ-JKFIT
	 Reference Energy          =    -642.5520782354205949 [Eh]
	 Singles Energy            =      -0.0000000000000000 [Eh]
	 Same-Spin Energy          =      -0.2997551846113041 [Eh]
	 Opposite-Spin Energy      =      -0.8911956075820664 [Eh]
	 Correlation Energy        =      -1.1909507921933704 [Eh]
	 Total Energy              =    -643.7430290276139431 [Eh]

	 ================> DF-SCS-MP2 Energies <==================
	-----------------------------------------------------------
	 SCS Same-Spin Scale       =       0.3333333333333333 [-]
	 SCS Opposite-Spin Scale   =       1.2000000000000000 [-]
	 SCS Same-Spin Energy      =      -0.0999183948704347 [Eh]
	 SCS Opposite-Spin Energy  =      -1.0694347290984796 [Eh]
	 SCS Correlation Energy    =      -1.1693531239689143 [Eh]
	 SCS Total Energy          =    -643.7214313593894985 [Eh]
	-----------------------------------------------------------

  Dipole Moment: [D]
     X:     1.3159      Y:    -3.0341      Z:    -0.4900     Total:     3.3432

*** Psi4 exiting successfully. Buy a developer a beer!
