                               Psi4 1.3.2 release

  ==> Input File <==

--------------------------------------------------------------------------
#psi4
#
memory 32 gb

molecule  {
0 1
  S       -0.0598420     0.1064250    -0.0004010
  O       -0.4366271     0.6834048     1.2896359
  O       -0.4252506     0.6794032    -1.2955543
  N       -0.5882700    -1.4879290    -0.0002140
  C        1.7021800    -0.0997450     0.0075480
  H        1.9984920    -0.6462440    -0.8867680
  H        2.1431120     0.8977760     0.0077280
  H        1.9907200    -0.6430360     0.9062190
  H       -1.1275310    -1.6767740    -0.8419270
  H       -1.1351590    -1.6740770     0.8371300
units angstrom
no_reorient  #important for SAPT in psi4, default
symmetry c1  #important for SAPT in psi4, default
}

set PROPERTIES_ORIGIN ["COM"]
properties('MP2/aug-cc-pvtz', properties = ['dipole'])
--------------------------------------------------------------------------

    Molecular point group: c1
  Charge       = 0
  Multiplicity = 1
  Basis Set: AUG-CC-PVTZ
    Blend: AUG-CC-PVTZ
  Basis Set: (AUG-CC-PVTZ AUX)
    Blend: AUG-CC-PVTZ-JKFIT

    Orbital Energies [Eh]
    ---------------------

    Doubly Occupied:

       1A    -92.209348     2A    -20.556118     3A    -20.556094
       4A    -15.609764     5A    -11.277081     6A     -9.175142
       7A     -6.860374     8A     -6.859386     9A     -6.859325
      10A     -1.459294    11A     -1.345362    12A     -1.219812
      13A     -1.042661    14A     -0.845366    15A     -0.724134
      16A     -0.709836    17A     -0.678631    18A     -0.648523
      19A     -0.603811    20A     -0.602231    21A     -0.537539
      22A     -0.503805    23A     -0.479997    24A     -0.478910
      25A     -0.459569

  @DF-RHF Final Energy:  -642.55655619586867

   => Energetics <=

    Nuclear Repulsion Energy =            277.0766321137664363
    One-Electron Energy =               -1434.6621523447299751
    Two-Electron Energy =                 515.0289640350948730
    Total Energy =                       -642.5565561958686658
  Basis Set: (AUG-CC-PVTZ AUX)
    Blend: AUG-CC-PVTZ-RI
    Molecular point group: c1

    Geometry (in Angstrom), charge = 0, multiplicity = 1:

       Center              X                  Y                   Z               Mass
    ------------   -----------------  -----------------  -----------------  -----------------
         S           -0.063942378412     0.112777711871    -0.000428908046    31.972071174400
         O           -0.440727478412     0.689757511871     1.289607991954    15.994914619570
         O           -0.429350978412     0.685755911871    -1.295582208046    15.994914619570
         N           -0.592370378412    -1.481576288129    -0.000241908046    14.003074004430
         C            1.698079621588    -0.093392288129     0.007520091954    12.000000000000
         H            1.994391621588    -0.639891288129    -0.886795908046     1.007825032230
         H            2.139011621588     0.904128711871     0.007700091954     1.007825032230
         H            1.986619621588    -0.636683288129     0.906191091954     1.007825032230
         H           -1.131631378412    -1.670421288129    -0.841954908046     1.007825032230
         H           -1.139259378412    -1.667724288129     0.837102091954     1.007825032230

  Basis Set: AUG-CC-PVTZ
    Blend: AUG-CC-PVTZ
  Basis Set: (AUG-CC-PVTZ AUX)
    Blend: AUG-CC-PVTZ-JKFIT
	 Reference Energy          =    -642.5565561958686658 [Eh]
	 Singles Energy            =      -0.0000000000000000 [Eh]
	 Same-Spin Energy          =      -0.3002941553242411 [Eh]
	 Opposite-Spin Energy      =      -0.8919453950053606 [Eh]
	 Correlation Energy        =      -1.1922395503296017 [Eh]
	 Total Energy              =    -643.7487957461983115 [Eh]

	 ================> DF-SCS-MP2 Energies <==================
	-----------------------------------------------------------
	 SCS Same-Spin Scale       =       0.3333333333333333 [-]
	 SCS Opposite-Spin Scale   =       1.2000000000000000 [-]
	 SCS Same-Spin Energy      =      -0.1000980517747470 [Eh]
	 SCS Opposite-Spin Energy  =      -1.0703344740064327 [Eh]
	 SCS Correlation Energy    =      -1.1704325257811796 [Eh]
	 SCS Total Energy          =    -643.7269887216498319 [Eh]
	-----------------------------------------------------------

  Dipole Moment: [D]
     X:     1.4740      Y:    -3.0215      Z:     0.0112     Total:     3.3619

*** Psi4 exiting successfully. Buy a developer a beer!
