                               Psi4 1.3.2 release

  ==> Input File <==

--------------------------------------------------------------------------
#psi4
#
memory 32 gb

molecule  {
0 1
  S       -0.0554573     0.1366755     0.0534522
  O       -0.4487500     0.7022520     1.2774130
  O       -0.4374810     0.6982890    -1.2834970
  N       -0.5882700    -1.4879290    -0.0002140
  C        1.7021800    -0.0997450     0.0075480
  H        2.0346775    -0.6440309    -0.8753230
  H        2.1431120     0.8977760     0.0077280
  H        1.9907200    -0.6430360     0.9062190
  H       -1.1275310    -1.6767740    -0.8419270
  H       -1.1351590    -1.6740770     0.8371300
units angstrom
no_reorient  #important for SAPT in psi4, default
symmetry c1  #important for SAPT in psi4, default
}

set PROPERTIES_ORIGIN ["COM"]
properties('MP2/aug-cc-pvtz', properties = ['dipole'])
--------------------------------------------------------------------------

    Molecular point group: c1
  Charge       = 0
  Multiplicity = 1
  Basis Set: AUG-CC-PVTZ
    Blend: AUG-CC-PVTZ
  Basis Set: (AUG-CC-PVTZ AUX)
    Blend: AUG-CC-PVTZ-JKFIT

    Orbital Energies [Eh]
    ---------------------

    Doubly Occupied:

       1A    -92.208566     2A    -20.569801     3A    -20.545835
       4A    -15.604614     5A    -11.278763     6A     -9.174944
       7A     -6.860108     8A     -6.859434     9A     -6.858903
      10A     -1.477645    11A     -1.342127    12A     -1.207868
      13A     -1.043974    14A     -0.842892    15A     -0.718500
      16A     -0.710040    17A     -0.685249    18A     -0.650935
      19A     -0.604681    20A     -0.603110    21A     -0.539223
      22A     -0.511222    23A     -0.482505    24A     -0.473907
      25A     -0.452835

  @DF-RHF Final Energy:  -642.55064261468510

   => Energetics <=

    Nuclear Repulsion Energy =            276.9698094110750617
    One-Electron Energy =               -1434.4255409527427219
    Two-Electron Energy =                 514.9050889269826712
    Total Energy =                       -642.5506426146851027
  Basis Set: (AUG-CC-PVTZ AUX)
    Blend: AUG-CC-PVTZ-RI
    Molecular point group: c1

    Geometry (in Angstrom), charge = 0, multiplicity = 1:

       Center              X                  Y                   Z               Mass
    ------------   -----------------  -----------------  -----------------  -----------------
         S           -0.057317013409     0.126471687711     0.035207350257    31.972071174400
         O           -0.450609713409     0.692048187711     1.259168150257    15.994914619570
         O           -0.439340713409     0.688085187711    -1.301741849743    15.994914619570
         N           -0.590129713409    -1.498132812289    -0.018458849743    14.003074004430
         C            1.700320286591    -0.109948812289    -0.010696849743    12.000000000000
         H            2.032817786591    -0.654234712289    -0.893567849743     1.007825032230
         H            2.141252286591     0.887572187711    -0.010516849743     1.007825032230
         H            1.988860286591    -0.653239812289     0.887974150257     1.007825032230
         H           -1.129390713409    -1.686977812289    -0.860171849743     1.007825032230
         H           -1.137018713409    -1.684280812289     0.818885150257     1.007825032230

  Basis Set: AUG-CC-PVTZ
    Blend: AUG-CC-PVTZ
  Basis Set: (AUG-CC-PVTZ AUX)
    Blend: AUG-CC-PVTZ-JKFIT
	 Reference Energy          =    -642.5506426146851027 [Eh]
	 Singles Energy            =      -0.0000000000000000 [Eh]
	 Same-Spin Energy          =      -0.2998249189564177 [Eh]
	 Opposite-Spin Energy      =      -0.8914670572061183 [Eh]
	 Correlation Energy        =      -1.1912919761625360 [Eh]
	 Total Energy              =    -643.7419345908476771 [Eh]

	 ================> DF-SCS-MP2 Energies <==================
	-----------------------------------------------------------
	 SCS Same-Spin Scale       =       0.3333333333333333 [-]
	 SCS Opposite-Spin Scale   =       1.2000000000000000 [-]
	 SCS Same-Spin Energy      =      -0.0999416396521392 [Eh]
	 SCS Opposite-Spin Energy  =      -1.0697604686473419 [Eh]
	 SCS Correlation Energy    =      -1.1697021082994812 [Eh]
	 SCS Total Energy          =    -643.7203447229845779 [Eh]
	-----------------------------------------------------------

  Dipole Moment: [D]
     X:     1.6072      Y:    -2.8174      Z:     0.5363     Total:     3.2876

*** Psi4 exiting successfully. Buy a developer a beer!
