                               Psi4 1.3.2 release

  ==> Input File <==

--------------------------------------------------------------------------
#psi4
#
memory 32 gb

molecule  {
0 1
  S       -0.0598420     0.1064250    -0.0004010
  O       -0.4487500     0.7022520     1.2774130
  O       -0.5104754     0.6968199    -1.2604061
  N       -0.5882700    -1.4879290    -0.0002140
  C        1.6951677    -0.1354602     0.0929983
  H        1.9984920    -0.6462440    -0.8867680
  H        2.1431120     0.8977760     0.0077280
  H        1.9907200    -0.6430360     0.9062190
  H       -1.1275310    -1.6767740    -0.8419270
  H       -1.1351590    -1.6740770     0.8371300
units angstrom
no_reorient  #important for SAPT in psi4, default
symmetry c1  #important for SAPT in psi4, default
}

set PROPERTIES_ORIGIN ["COM"]
properties('MP2/aug-cc-pvtz', properties = ['dipole'])
--------------------------------------------------------------------------

    Molecular point group: c1
  Charge       = 0
  Multiplicity = 1
  Basis Set: AUG-CC-PVTZ
    Blend: AUG-CC-PVTZ
  Basis Set: (AUG-CC-PVTZ AUX)
    Blend: AUG-CC-PVTZ-JKFIT

    Orbital Energies [Eh]
    ---------------------

    Doubly Occupied:

       1A    -92.209257     2A    -20.558975     3A    -20.549344
       4A    -15.606930     5A    -11.283761     6A     -9.175178
       7A     -6.860403     8A     -6.859547     9A     -6.859216
      10A     -1.458953    11A     -1.340961    12A     -1.218846
      13A     -1.048365    14A     -0.846820    15A     -0.723125
      16A     -0.711923    17A     -0.681684    18A     -0.652461
      19A     -0.615260    20A     -0.584996    21A     -0.536746
      22A     -0.501414    23A     -0.481766    24A     -0.474601
      25A     -0.458496

  @DF-RHF Final Energy:  -642.54553293304161

   => Energetics <=

    Nuclear Repulsion Energy =            277.0251414102101535
    One-Electron Energy =               -1434.5432920032842503
    Two-Electron Energy =                 514.9726176600324834
    Total Energy =                       -642.5455329330416134
  Basis Set: (AUG-CC-PVTZ AUX)
    Blend: AUG-CC-PVTZ-RI
    Molecular point group: c1

    Geometry (in Angstrom), charge = 0, multiplicity = 1:

       Center              X                  Y                   Z               Mass
    ------------   -----------------  -----------------  -----------------  -----------------
         S           -0.046667168635     0.111183511359    -0.015081873785    31.972071174400
         O           -0.435575168635     0.707010511359     1.262732126215    15.994914619570
         O           -0.497300568635     0.701578411359    -1.275086973785    15.994914619570
         N           -0.575095168635    -1.483170488641    -0.014894873785    14.003074004430
         C            1.708342531365    -0.130701688641     0.078317426215    12.000000000000
         H            2.011666831365    -0.641485488641    -0.901448873785     1.007825032230
         H            2.156286831365     0.902534511359    -0.006952873785     1.007825032230
         H            2.003894831365    -0.638277488641     0.891538126215     1.007825032230
         H           -1.114356168635    -1.672015488641    -0.856607873785     1.007825032230
         H           -1.121984168635    -1.669318488641     0.822449126215     1.007825032230

  Basis Set: AUG-CC-PVTZ
    Blend: AUG-CC-PVTZ
  Basis Set: (AUG-CC-PVTZ AUX)
    Blend: AUG-CC-PVTZ-JKFIT
	 Reference Energy          =    -642.5455329330416134 [Eh]
	 Singles Energy            =      -0.0000000000000000 [Eh]
	 Same-Spin Energy          =      -0.3003179803029737 [Eh]
	 Opposite-Spin Energy      =      -0.8920797391904978 [Eh]
	 Correlation Energy        =      -1.1923977194934714 [Eh]
	 Total Energy              =    -643.7379306525350557 [Eh]

	 ================> DF-SCS-MP2 Energies <==================
	-----------------------------------------------------------
	 SCS Same-Spin Scale       =       0.3333333333333333 [-]
	 SCS Opposite-Spin Scale   =       1.2000000000000000 [-]
	 SCS Same-Spin Energy      =      -0.1001059934343246 [Eh]
	 SCS Opposite-Spin Energy  =      -1.0704956870285973 [Eh]
	 SCS Correlation Energy    =      -1.1706016804629218 [Eh]
	 SCS Total Energy          =    -643.7161346135045505 [Eh]
	-----------------------------------------------------------

  Dipole Moment: [D]
     X:     1.7364      Y:    -3.0634      Z:    -0.0970     Total:     3.5227

*** Psi4 exiting successfully. Buy a developer a beer!
