                               Psi4 1.3.2 release

  ==> Input File <==

--------------------------------------------------------------------------
#psi4
#
memory 32 gb

molecule  {
0 1
  S       -0.0598420     0.1064250    -0.0004010
  O       -0.4753410     0.7429908     1.3647816
  O       -0.4374810     0.6982890    -1.2834970
  N       -0.5882700    -1.4879290    -0.0002140
  C        1.7021800    -0.0997450     0.0075480
  H        1.9984920    -0.6462440    -0.8867680
  H        2.1431120     0.8977760     0.0077280
  H        1.9907200    -0.6430360     0.9062190
  H       -1.1275310    -1.6767740    -0.8419270
  H       -1.1351590    -1.6740770     0.8371300
units angstrom
no_reorient  #important for SAPT in psi4, default
symmetry c1  #important for SAPT in psi4, default
}

set PROPERTIES_ORIGIN ["COM"]
properties('MP2/aug-cc-pvtz', properties = ['dipole'])
--------------------------------------------------------------------------

    Molecular point group: c1
  Charge       = 0
  Multiplicity = 1
  Basis Set: AUG-CC-PVTZ
    Blend: AUG-CC-PVTZ
  Basis Set: (AUG-CC-PVTZ AUX)
    Blend: AUG-CC-PVTZ-JKFIT

    Orbital Energies [Eh]
    ---------------------

    Doubly Occupied:

       1A    -92.215200     2A    -20.561911     3A    -20.553128
       4A    -15.617690     5A    -11.284749     6A     -9.180681
       7A     -6.865763     8A     -6.864853     9A     -6.864224
      10A     -1.439909    11A     -1.312012    12A     -1.224131
      13A     -1.049569    14A     -0.853574    15A     -0.729358
      16A     -0.706448    17A     -0.672128    18A     -0.646237
      19A     -0.607731    20A     -0.595367    21A     -0.533583
      22A     -0.495092    23A     -0.476172    24A     -0.467289
      25A     -0.458613

  @DF-RHF Final Energy:  -642.53896659884163

   => Energetics <=

    Nuclear Repulsion Energy =            272.8137765403670869
    One-Electron Energy =               -1426.1546646655147015
    Two-Electron Energy =                 510.8019215263058754
    Total Energy =                       -642.5389665988416255
  Basis Set: (AUG-CC-PVTZ AUX)
    Blend: AUG-CC-PVTZ-RI
    Molecular point group: c1

    Geometry (in Angstrom), charge = 0, multiplicity = 1:

       Center              X                  Y                   Z               Mass
    ------------   -----------------  -----------------  -----------------  -----------------
         S           -0.055365382972     0.099566179457    -0.015110427536    31.972071174400
         O           -0.470864382972     0.736131979457     1.350072172464    15.994914619570
         O           -0.433004382972     0.691430179457    -1.298206427536    15.994914619570
         N           -0.583793382972    -1.494787820543    -0.014923427536    14.003074004430
         C            1.706656617028    -0.106603820543    -0.007161427536    12.000000000000
         H            2.002968617028    -0.653102820543    -0.901477427536     1.007825032230
         H            2.147588617028     0.890917179457    -0.006981427536     1.007825032230
         H            1.995196617028    -0.649894820543     0.891509572464     1.007825032230
         H           -1.123054382972    -1.683632820543    -0.856636427536     1.007825032230
         H           -1.130682382972    -1.680935820543     0.822420572464     1.007825032230

  Basis Set: AUG-CC-PVTZ
    Blend: AUG-CC-PVTZ
  Basis Set: (AUG-CC-PVTZ AUX)
    Blend: AUG-CC-PVTZ-JKFIT
	 Reference Energy          =    -642.5389665988416255 [Eh]
	 Singles Energy            =      -0.0000000000000000 [Eh]
	 Same-Spin Energy          =      -0.3017930297377971 [Eh]
	 Opposite-Spin Energy      =      -0.8963339094353223 [Eh]
	 Correlation Energy        =      -1.1981269391731195 [Eh]
	 Total Energy              =    -643.7370935380147330 [Eh]

	 ================> DF-SCS-MP2 Energies <==================
	-----------------------------------------------------------
	 SCS Same-Spin Scale       =       0.3333333333333333 [-]
	 SCS Opposite-Spin Scale   =       1.2000000000000000 [-]
	 SCS Same-Spin Energy      =      -0.1005976765792657 [Eh]
	 SCS Opposite-Spin Energy  =      -1.0756006913223868 [Eh]
	 SCS Correlation Energy    =      -1.1761983679016526 [Eh]
	 SCS Total Energy          =    -643.7151649667432594 [Eh]
	-----------------------------------------------------------

  Dipole Moment: [D]
     X:     1.7192      Y:    -3.3823      Z:    -0.4672     Total:     3.8228

*** Psi4 exiting successfully. Buy a developer a beer!
