                               Psi4 1.3.2 release

  ==> Input File <==

--------------------------------------------------------------------------
#psi4
#
memory 32 gb

molecule  {
0 1
  S       -0.0532743     0.1041824     0.0125095
  O       -0.4487500     0.7022520     1.2774130
  O       -0.4374810     0.6982890    -1.2834970
  N       -0.5882700    -1.4879290    -0.0002140
  C        1.7021800    -0.0997450     0.0075480
  H        1.9984920    -0.6462440    -0.8867680
  H        2.1431120     0.8977760     0.0077280
  H        1.9907200    -0.6430360     0.9062190
  H       -1.1287660    -1.6851360    -0.8392129
  H       -1.1351590    -1.6740770     0.8371300
units angstrom
no_reorient  #important for SAPT in psi4, default
symmetry c1  #important for SAPT in psi4, default
}

set PROPERTIES_ORIGIN ["COM"]
properties('MP2/aug-cc-pvtz', properties = ['dipole'])
--------------------------------------------------------------------------

    Molecular point group: c1
  Charge       = 0
  Multiplicity = 1
  Basis Set: AUG-CC-PVTZ
    Blend: AUG-CC-PVTZ
  Basis Set: (AUG-CC-PVTZ AUX)
    Blend: AUG-CC-PVTZ-JKFIT

    Orbital Energies [Eh]
    ---------------------

    Doubly Occupied:

       1A    -92.209223     2A    -20.556799     3A    -20.550986
       4A    -15.610643     5A    -11.279406     6A     -9.175110
       7A     -6.860319     8A     -6.859374     9A     -6.859247
      10A     -1.457549    11A     -1.339900    12A     -1.220689
      13A     -1.046811    14A     -0.846335    15A     -0.724159
      16A     -0.710105    17A     -0.678323    18A     -0.648266
      19A     -0.606007    20A     -0.601541    21A     -0.537549
      22A     -0.500926    23A     -0.480342    24A     -0.475791
      25A     -0.459636

  @DF-RHF Final Energy:  -642.55653394499257

   => Energetics <=

    Nuclear Repulsion Energy =            276.9452592613690172
    One-Electron Energy =               -1434.4135145513255338
    Two-Electron Energy =                 514.9117213449638939
    Total Energy =                       -642.5565339449925659
  Basis Set: (AUG-CC-PVTZ AUX)
    Blend: AUG-CC-PVTZ-RI
    Molecular point group: c1

    Geometry (in Angstrom), charge = 0, multiplicity = 1:

       Center              X                  Y                   Z               Mass
    ------------   -----------------  -----------------  -----------------  -----------------
         S           -0.055471701098     0.105025790527     0.008135863645    31.972071174400
         O           -0.450947401098     0.703095390527     1.273039363645    15.994914619570
         O           -0.439678401098     0.699132390527    -1.287870636355    15.994914619570
         N           -0.590467401098    -1.487085609473    -0.004587636355    14.003074004430
         C            1.699982598902    -0.098901609473     0.003174363645    12.000000000000
         H            1.996294598902    -0.645400609473    -0.891141636355     1.007825032230
         H            2.140914598902     0.898619390527     0.003354363645     1.007825032230
         H            1.988522598902    -0.642192609473     0.901845363645     1.007825032230
         H           -1.130963401098    -1.684292609473    -0.843586536355     1.007825032230
         H           -1.137356401098    -1.673233609473     0.832756363645     1.007825032230

  Basis Set: AUG-CC-PVTZ
    Blend: AUG-CC-PVTZ
  Basis Set: (AUG-CC-PVTZ AUX)
    Blend: AUG-CC-PVTZ-JKFIT
	 Reference Energy          =    -642.5565339449925659 [Eh]
	 Singles Energy            =      -0.0000000000000000 [Eh]
	 Same-Spin Energy          =      -0.3002511209519172 [Eh]
	 Opposite-Spin Energy      =      -0.8917720552859488 [Eh]
	 Correlation Energy        =      -1.1920231762378661 [Eh]
	 Total Energy              =    -643.7485571212304194 [Eh]

	 ================> DF-SCS-MP2 Energies <==================
	-----------------------------------------------------------
	 SCS Same-Spin Scale       =       0.3333333333333333 [-]
	 SCS Opposite-Spin Scale   =       1.2000000000000000 [-]
	 SCS Same-Spin Energy      =      -0.1000837069839724 [Eh]
	 SCS Opposite-Spin Energy  =      -1.0701264663431385 [Eh]
	 SCS Correlation Energy    =      -1.1702101733271109 [Eh]
	 SCS Total Energy          =    -643.7267441183196297 [Eh]
	-----------------------------------------------------------

  Dipole Moment: [D]
     X:     1.5981      Y:    -3.1385      Z:     0.1381     Total:     3.5247

*** Psi4 exiting successfully. Buy a developer a beer!
