                               Psi4 1.3.2 release

  ==> Input File <==

--------------------------------------------------------------------------
#psi4
#
memory 32 gb

molecule  {
0 1
  S       -0.0589469     0.1140126     0.0130640
  O       -0.4487500     0.7022520     1.2774130
  O       -0.4374810     0.6982890    -1.2834970
  N       -0.5882700    -1.4879290    -0.0002140
  C        1.7021800    -0.0997450     0.0075480
  H        2.0075740    -0.6457531    -0.8840084
  H        2.1431120     0.8977760     0.0077280
  H        1.9907200    -0.6430360     0.9062190
  H       -1.1275310    -1.6767740    -0.8419270
  H       -1.1351590    -1.6740770     0.8371300
units angstrom
no_reorient  #important for SAPT in psi4, default
symmetry c1  #important for SAPT in psi4, default
}

set PROPERTIES_ORIGIN ["COM"]
properties('MP2/aug-cc-pvtz', properties = ['dipole'])
--------------------------------------------------------------------------

    Molecular point group: c1
  Charge       = 0
  Multiplicity = 1
  Basis Set: AUG-CC-PVTZ
    Blend: AUG-CC-PVTZ
  Basis Set: (AUG-CC-PVTZ AUX)
    Blend: AUG-CC-PVTZ-JKFIT

    Orbital Energies [Eh]
    ---------------------

    Doubly Occupied:

       1A    -92.209049     2A    -20.558331     3A    -20.552293
       4A    -15.609364     5A    -11.278540     6A     -9.174920
       7A     -6.860122     8A     -6.859209     9A     -6.859091
      10A     -1.461108    11A     -1.344328    12A     -1.218072
      13A     -1.043980    14A     -0.844958    15A     -0.722859
      16A     -0.709707    17A     -0.679462    18A     -0.648472
      19A     -0.604750    20A     -0.602400    21A     -0.537990
      22A     -0.503464    23A     -0.480561    24A     -0.477947
      25A     -0.459179

  @DF-RHF Final Energy:  -642.55694466865509

   => Energetics <=

    Nuclear Repulsion Energy =            276.9801865473518774
    One-Electron Energy =               -1434.4739530649615062
    Two-Electron Energy =                 514.9368218489545370
    Total Energy =                       -642.5569446686550918
  Basis Set: (AUG-CC-PVTZ AUX)
    Blend: AUG-CC-PVTZ-RI
    Molecular point group: c1

    Geometry (in Angstrom), charge = 0, multiplicity = 1:

       Center              X                  Y                   Z               Mass
    ------------   -----------------  -----------------  -----------------  -----------------
         S           -0.059344725702     0.111453884410     0.008503273093    31.972071174400
         O           -0.449147825702     0.699693284410     1.272852273093    15.994914619570
         O           -0.437878825702     0.695730284410    -1.288057726907    15.994914619570
         N           -0.588667825702    -1.490487715590    -0.004774726907    14.003074004430
         C            1.701782174298    -0.102303715590     0.002987273093    12.000000000000
         H            2.007176174298    -0.648311815590    -0.888569126907     1.007825032230
         H            2.142714174298     0.895217284410     0.003167273093     1.007825032230
         H            1.990322174298    -0.645594715590     0.901658273093     1.007825032230
         H           -1.127928825702    -1.679332715590    -0.846487726907     1.007825032230
         H           -1.135556825702    -1.676635715590     0.832569273093     1.007825032230

  Basis Set: AUG-CC-PVTZ
    Blend: AUG-CC-PVTZ
  Basis Set: (AUG-CC-PVTZ AUX)
    Blend: AUG-CC-PVTZ-JKFIT
	 Reference Energy          =    -642.5569446686550918 [Eh]
	 Singles Energy            =      -0.0000000000000000 [Eh]
	 Same-Spin Energy          =      -0.3000872159334173 [Eh]
	 Opposite-Spin Energy      =      -0.8915976070624108 [Eh]
	 Correlation Energy        =      -1.1916848229958281 [Eh]
	 Total Energy              =    -643.7486294916509451 [Eh]

	 ================> DF-SCS-MP2 Energies <==================
	-----------------------------------------------------------
	 SCS Same-Spin Scale       =       0.3333333333333333 [-]
	 SCS Opposite-Spin Scale   =       1.2000000000000000 [-]
	 SCS Same-Spin Energy      =      -0.1000290719778058 [Eh]
	 SCS Opposite-Spin Energy  =      -1.0699171284748930 [Eh]
	 SCS Correlation Energy    =      -1.1699462004526988 [Eh]
	 SCS Total Energy          =    -643.7268908691078195 [Eh]
	-----------------------------------------------------------

  Dipole Moment: [D]
     X:     1.5553      Y:    -3.0399      Z:     0.1435     Total:     3.4177

*** Psi4 exiting successfully. Buy a developer a beer!
