                               Psi4 1.3.2 release

  ==> Input File <==

--------------------------------------------------------------------------
#psi4
#
memory 32 gb

molecule  {
0 1
  S       -0.0598420     0.1064250    -0.0004010
  O       -0.4487500     0.7022520     1.2774130
  O       -0.4374810     0.6982890    -1.2834970
  N       -0.6435897    -1.4685161    -0.0004837
  C        1.7083022    -0.0381252     0.0074789
  H        1.9984920    -0.6462440    -0.8867680
  H        2.1431120     0.8977760     0.0077280
  H        1.9907200    -0.6430360     0.9062190
  H       -1.1275310    -1.6767740    -0.8419270
  H       -1.1351590    -1.6740770     0.8371300
units angstrom
no_reorient  #important for SAPT in psi4, default
symmetry c1  #important for SAPT in psi4, default
}

set PROPERTIES_ORIGIN ["COM"]
properties('MP2/aug-cc-pvtz', properties = ['dipole'])
--------------------------------------------------------------------------

    Molecular point group: c1
  Charge       = 0
  Multiplicity = 1
  Basis Set: AUG-CC-PVTZ
    Blend: AUG-CC-PVTZ
  Basis Set: (AUG-CC-PVTZ AUX)
    Blend: AUG-CC-PVTZ-JKFIT

    Orbital Energies [Eh]
    ---------------------

    Doubly Occupied:

       1A    -92.209464     2A    -20.551544     3A    -20.551519
       4A    -15.607053     5A    -11.280874     6A     -9.175003
       7A     -6.860250     8A     -6.859272     9A     -6.859217
      10A     -1.457293    11A     -1.340629    12A     -1.224694
      13A     -1.045941    14A     -0.849671    15A     -0.740161
      16A     -0.711008    17A     -0.680338    18A     -0.645054
      19A     -0.621717    20A     -0.590877    21A     -0.533615
      22A     -0.499794    23A     -0.479044    24A     -0.474846
      25A     -0.458218

  @DF-RHF Final Energy:  -642.55329440108414

   => Energetics <=

    Nuclear Repulsion Energy =            277.1067180053382231
    One-Electron Energy =               -1434.7058326228332135
    Two-Electron Energy =                 515.0458202164107888
    Total Energy =                       -642.5532944010841447
  Basis Set: (AUG-CC-PVTZ AUX)
    Blend: AUG-CC-PVTZ-RI
    Molecular point group: c1

    Geometry (in Angstrom), charge = 0, multiplicity = 1:

       Center              X                  Y                   Z               Mass
    ------------   -----------------  -----------------  -----------------  -----------------
         S           -0.052461732713     0.095780403378    -0.000352547269    31.972071174400
         O           -0.441369732713     0.691607403378     1.277461452731    15.994914619570
         O           -0.430100732713     0.687644403378    -1.283448547269    15.994914619570
         N           -0.636209432713    -1.479160696622    -0.000435247269    14.003074004430
         C            1.715682467287    -0.048769796622     0.007527352731    12.000000000000
         H            2.005872267287    -0.656888596622    -0.886719547269     1.007825032230
         H            2.150492267287     0.887131403378     0.007776452731     1.007825032230
         H            1.998100267287    -0.653680596622     0.906267452731     1.007825032230
         H           -1.120150732713    -1.687418596622    -0.841878547269     1.007825032230
         H           -1.127778732713    -1.684721596622     0.837178452731     1.007825032230

  Basis Set: AUG-CC-PVTZ
    Blend: AUG-CC-PVTZ
  Basis Set: (AUG-CC-PVTZ AUX)
    Blend: AUG-CC-PVTZ-JKFIT
	 Reference Energy          =    -642.5532944010841447 [Eh]
	 Singles Energy            =      -0.0000000000000000 [Eh]
	 Same-Spin Energy          =      -0.2997769185667588 [Eh]
	 Opposite-Spin Energy      =      -0.8906885984734603 [Eh]
	 Correlation Energy        =      -1.1904655170402190 [Eh]
	 Total Energy              =    -643.7437599181243968 [Eh]

	 ================> DF-SCS-MP2 Energies <==================
	-----------------------------------------------------------
	 SCS Same-Spin Scale       =       0.3333333333333333 [-]
	 SCS Opposite-Spin Scale   =       1.2000000000000000 [-]
	 SCS Same-Spin Energy      =      -0.0999256395222529 [Eh]
	 SCS Opposite-Spin Energy  =      -1.0688263181681523 [Eh]
	 SCS Correlation Energy    =      -1.1687519576904053 [Eh]
	 SCS Total Energy          =    -643.7220463587746053 [Eh]
	-----------------------------------------------------------

  Dipole Moment: [D]
     X:     1.6677      Y:    -3.2172      Z:     0.0124     Total:     3.6238

*** Psi4 exiting successfully. Buy a developer a beer!
