                               Psi4 1.3.2 release

  ==> Input File <==

--------------------------------------------------------------------------
#psi4
#
memory 32 gb

molecule  {
0 1
  S       -0.0598420     0.1064250    -0.0004010
  O       -0.4487500     0.7022520     1.2774130
  O       -0.4497241     0.6981568    -1.2798912
  N       -0.5882700    -1.4879290    -0.0002140
  C        1.7013463    -0.1057394     0.0217976
  H        1.9984920    -0.6462440    -0.8867680
  H        2.1431120     0.8977760     0.0077280
  H        1.9907200    -0.6430360     0.9062190
  H       -1.1275310    -1.6767740    -0.8419270
  H       -1.1351590    -1.6740770     0.8371300
units angstrom
no_reorient  #important for SAPT in psi4, default
symmetry c1  #important for SAPT in psi4, default
}

set PROPERTIES_ORIGIN ["COM"]
properties('MP2/aug-cc-pvtz', properties = ['dipole'])
--------------------------------------------------------------------------

    Molecular point group: c1
  Charge       = 0
  Multiplicity = 1
  Basis Set: AUG-CC-PVTZ
    Blend: AUG-CC-PVTZ
  Basis Set: (AUG-CC-PVTZ AUX)
    Blend: AUG-CC-PVTZ-JKFIT

    Orbital Energies [Eh]
    ---------------------

    Doubly Occupied:

       1A    -92.208942     2A    -20.555147     3A    -20.553587
       4A    -15.610217     5A    -11.279268     6A     -9.174821
       7A     -6.860034     8A     -6.859062     9A     -6.859007
      10A     -1.458592    11A     -1.342247    12A     -1.220835
      13A     -1.044721    14A     -0.845714    15A     -0.724500
      16A     -0.709631    17A     -0.678605    18A     -0.648630
      19A     -0.606166    20A     -0.600565    21A     -0.537900
      22A     -0.501634    23A     -0.479745    24A     -0.477383
      25A     -0.460159

  @DF-RHF Final Energy:  -642.55698191364297

   => Energetics <=

    Nuclear Repulsion Energy =            276.9931613606045744
    One-Electron Energy =               -1434.5060648074900200
    Two-Electron Energy =                 514.9559215332425310
    Total Energy =                       -642.5569819136429714
  Basis Set: (AUG-CC-PVTZ AUX)
    Blend: AUG-CC-PVTZ-RI
    Molecular point group: c1

    Geometry (in Angstrom), charge = 0, multiplicity = 1:

       Center              X                  Y                   Z               Mass
    ------------   -----------------  -----------------  -----------------  -----------------
         S           -0.057675694174     0.107204386215    -0.002807972805    31.972071174400
         O           -0.446583694174     0.703031386215     1.275006027195    15.994914619570
         O           -0.447557794174     0.698936186215    -1.282298172805    15.994914619570
         N           -0.586103694174    -1.487149613785    -0.002620972805    14.003074004430
         C            1.703512605826    -0.104960013785     0.019390627195    12.000000000000
         H            2.000658305826    -0.645464613785    -0.889174972805     1.007825032230
         H            2.145278305826     0.898555386215     0.005321027195     1.007825032230
         H            1.992886305826    -0.642256613785     0.903812027195     1.007825032230
         H           -1.125364694174    -1.675994613785    -0.844333972805     1.007825032230
         H           -1.132992694174    -1.673297613785     0.834723027195     1.007825032230

  Basis Set: AUG-CC-PVTZ
    Blend: AUG-CC-PVTZ
  Basis Set: (AUG-CC-PVTZ AUX)
    Blend: AUG-CC-PVTZ-JKFIT
	 Reference Energy          =    -642.5569819136429714 [Eh]
	 Singles Energy            =      -0.0000000000000000 [Eh]
	 Same-Spin Energy          =      -0.3001552675110133 [Eh]
	 Opposite-Spin Energy      =      -0.8916265359360815 [Eh]
	 Correlation Energy        =      -1.1917818034470948 [Eh]
	 Total Energy              =    -643.7487637170900143 [Eh]

	 ================> DF-SCS-MP2 Energies <==================
	-----------------------------------------------------------
	 SCS Same-Spin Scale       =       0.3333333333333333 [-]
	 SCS Opposite-Spin Scale   =       1.2000000000000000 [-]
	 SCS Same-Spin Energy      =      -0.1000517558370044 [Eh]
	 SCS Opposite-Spin Energy  =      -1.0699518431232977 [Eh]
	 SCS Correlation Energy    =      -1.1700035989603021 [Eh]
	 SCS Total Energy          =    -643.7269855126032780 [Eh]
	-----------------------------------------------------------

  Dipole Moment: [D]
     X:     1.5777      Y:    -3.1080      Z:    -0.0045     Total:     3.4855

*** Psi4 exiting successfully. Buy a developer a beer!
