                               Psi4 1.3.2 release

  ==> Input File <==

--------------------------------------------------------------------------
#psi4
#
memory 32 gb

molecule  {
0 1
  S       -0.0598420     0.1064250    -0.0004010
  O       -0.4487500     0.7022520     1.2774130
  O       -0.4054098     0.7638742    -1.2603982
  N       -0.5549372    -1.4965422     0.0807023
  C        1.7021800    -0.0997450     0.0075480
  H        1.9984920    -0.6462440    -0.8867680
  H        2.1431120     0.8977760     0.0077280
  H        1.9907200    -0.6430360     0.9062190
  H       -1.1275310    -1.6767740    -0.8419270
  H       -1.1351590    -1.6740770     0.8371300
units angstrom
no_reorient  #important for SAPT in psi4, default
symmetry c1  #important for SAPT in psi4, default
}

set PROPERTIES_ORIGIN ["COM"]
properties('MP2/aug-cc-pvtz', properties = ['dipole'])
--------------------------------------------------------------------------

    Molecular point group: c1
  Charge       = 0
  Multiplicity = 1
  Basis Set: AUG-CC-PVTZ
    Blend: AUG-CC-PVTZ
  Basis Set: (AUG-CC-PVTZ AUX)
    Blend: AUG-CC-PVTZ-JKFIT

    Orbital Energies [Eh]
    ---------------------

    Doubly Occupied:

       1A    -92.208668     2A    -20.559601     3A    -20.548153
       4A    -15.619244     5A    -11.275897     6A     -9.174713
       7A     -6.859933     8A     -6.858919     9A     -6.858856
      10A     -1.458623    11A     -1.340842    12A     -1.224904
      13A     -1.042031    14A     -0.848384    15A     -0.724398
      16A     -0.701624    17A     -0.678149    18A     -0.644077
      19A     -0.604108    20A     -0.599010    21A     -0.542358
      22A     -0.500498    23A     -0.480332    24A     -0.475526
      25A     -0.461596

  @DF-RHF Final Energy:  -642.54645383782633

   => Energetics <=

    Nuclear Repulsion Energy =            276.8855483491423684
    One-Electron Energy =               -1434.2831179317395254
    Two-Electron Energy =                 514.8511157447707092
    Total Energy =                       -642.5464538378263342
  Basis Set: (AUG-CC-PVTZ AUX)
    Blend: AUG-CC-PVTZ-RI
    Molecular point group: c1

    Geometry (in Angstrom), charge = 0, multiplicity = 1:

       Center              X                  Y                   Z               Mass
    ------------   -----------------  -----------------  -----------------  -----------------
         S           -0.070154834709     0.096652570773    -0.016216558470    31.972071174400
         O           -0.459062834709     0.692479570773     1.261597441530    15.994914619570
         O           -0.415722634709     0.754101770773    -1.276213758470    15.994914619570
         N           -0.565250034709    -1.506314629227     0.064886741530    14.003074004430
         C            1.691867165291    -0.109517429227    -0.008267558470    12.000000000000
         H            1.988179165291    -0.656016429227    -0.902583558470     1.007825032230
         H            2.132799165291     0.888003570773    -0.008087558470     1.007825032230
         H            1.980407165291    -0.652808429227     0.890403441530     1.007825032230
         H           -1.137843834709    -1.686546429227    -0.857742558470     1.007825032230
         H           -1.145471834709    -1.683849429227     0.821314441530     1.007825032230

  Basis Set: AUG-CC-PVTZ
    Blend: AUG-CC-PVTZ
  Basis Set: (AUG-CC-PVTZ AUX)
    Blend: AUG-CC-PVTZ-JKFIT
	 Reference Energy          =    -642.5464538378263342 [Eh]
	 Singles Energy            =      -0.0000000000000000 [Eh]
	 Same-Spin Energy          =      -0.3005373871802929 [Eh]
	 Opposite-Spin Energy      =      -0.8927964119017446 [Eh]
	 Correlation Energy        =      -1.1933337990820374 [Eh]
	 Total Energy              =    -643.7397876369083178 [Eh]

	 ================> DF-SCS-MP2 Energies <==================
	-----------------------------------------------------------
	 SCS Same-Spin Scale       =       0.3333333333333333 [-]
	 SCS Opposite-Spin Scale   =       1.2000000000000000 [-]
	 SCS Same-Spin Energy      =      -0.1001791290600976 [Eh]
	 SCS Opposite-Spin Energy  =      -1.0713556942820934 [Eh]
	 SCS Correlation Energy    =      -1.1715348233421912 [Eh]
	 SCS Total Energy          =    -643.7179886611685333 [Eh]
	-----------------------------------------------------------

  Dipole Moment: [D]
     X:     1.3710      Y:    -3.2447      Z:    -0.2322     Total:     3.5301

*** Psi4 exiting successfully. Buy a developer a beer!
