                               Psi4 1.3.2 release

  ==> Input File <==

--------------------------------------------------------------------------
#psi4
#
memory 32 gb

molecule  {
0 1
  S       -0.1000756     0.1173258    -0.0778293
  O       -0.4487500     0.7022520     1.2774130
  O       -0.4374810     0.6982890    -1.2834970
  N       -0.5882700    -1.4879290    -0.0002140
  C        1.7021800    -0.0997450     0.0075480
  H        1.9984920    -0.6462440    -0.8867680
  H        2.1431120     0.8977760     0.0077280
  H        1.9907200    -0.6430360     0.9062190
  H       -1.1192619    -1.6263223    -0.8568589
  H       -1.1351590    -1.6740770     0.8371300
units angstrom
no_reorient  #important for SAPT in psi4, default
symmetry c1  #important for SAPT in psi4, default
}

set PROPERTIES_ORIGIN ["COM"]
properties('MP2/aug-cc-pvtz', properties = ['dipole'])
--------------------------------------------------------------------------

    Molecular point group: c1
  Charge       = 0
  Multiplicity = 1
  Basis Set: AUG-CC-PVTZ
    Blend: AUG-CC-PVTZ
  Basis Set: (AUG-CC-PVTZ AUX)
    Blend: AUG-CC-PVTZ-JKFIT

    Orbital Energies [Eh]
    ---------------------

    Doubly Occupied:

       1A    -92.205177     2A    -20.574828     3A    -20.540402
       4A    -15.612721     5A    -11.273066     6A     -9.172390
       7A     -6.857652     8A     -6.856914     9A     -6.856142
      10A     -1.491947    11A     -1.336343    12A     -1.223282
      13A     -1.027373    14A     -0.843334    15A     -0.732452
      16A     -0.710514    17A     -0.687164    18A     -0.649520
      19A     -0.602861    20A     -0.598828    21A     -0.546220
      22A     -0.514310    23A     -0.480200    24A     -0.468964
      25A     -0.451014

  @DF-RHF Final Energy:  -642.54419442532253

   => Energetics <=

    Nuclear Repulsion Energy =            277.4099466484416325
    One-Electron Energy =               -1435.2810477766997792
    Two-Electron Energy =                 515.3269067029355028
    Total Energy =                       -642.5441944253225302
  Basis Set: (AUG-CC-PVTZ AUX)
    Blend: AUG-CC-PVTZ-RI
    Molecular point group: c1

    Geometry (in Angstrom), charge = 0, multiplicity = 1:

       Center              X                  Y                   Z               Mass
    ------------   -----------------  -----------------  -----------------  -----------------
         S           -0.086623613004     0.113122085807    -0.051613702450    31.972071174400
         O           -0.435298013004     0.698048285807     1.303628597550    15.994914619570
         O           -0.424029013004     0.694085285807    -1.257281402450    15.994914619570
         N           -0.574818013004    -1.492132714193     0.026001597550    14.003074004430
         C            1.715631986996    -0.103948714193     0.033763597550    12.000000000000
         H            2.011943986996    -0.650447714193    -0.860552402450     1.007825032230
         H            2.156563986996     0.893572285807     0.033943597550     1.007825032230
         H            2.004171986996    -0.647239714193     0.932434597550     1.007825032230
         H           -1.105809913004    -1.630526014193    -0.830643302450     1.007825032230
         H           -1.121707013004    -1.678280714193     0.863345597550     1.007825032230

  Basis Set: AUG-CC-PVTZ
    Blend: AUG-CC-PVTZ
  Basis Set: (AUG-CC-PVTZ AUX)
    Blend: AUG-CC-PVTZ-JKFIT
	 Reference Energy          =    -642.5441944253225302 [Eh]
	 Singles Energy            =      -0.0000000000000000 [Eh]
	 Same-Spin Energy          =      -0.2995296414525730 [Eh]
	 Opposite-Spin Energy      =      -0.8910032975507982 [Eh]
	 Correlation Energy        =      -1.1905329390033712 [Eh]
	 Total Energy              =    -643.7347273643258632 [Eh]

	 ================> DF-SCS-MP2 Energies <==================
	-----------------------------------------------------------
	 SCS Same-Spin Scale       =       0.3333333333333333 [-]
	 SCS Opposite-Spin Scale   =       1.2000000000000000 [-]
	 SCS Same-Spin Energy      =      -0.0998432138175243 [Eh]
	 SCS Opposite-Spin Energy  =      -1.0692039570609577 [Eh]
	 SCS Correlation Energy    =      -1.1690471708784820 [Eh]
	 SCS Total Energy          =    -643.7132415962009873 [Eh]
	-----------------------------------------------------------

  Dipole Moment: [D]
     X:     1.2035      Y:    -3.0027      Z:    -0.7386     Total:     3.3182

*** Psi4 exiting successfully. Buy a developer a beer!
