                               Psi4 1.3.2 release

  ==> Input File <==

--------------------------------------------------------------------------
#psi4
#
memory 32 gb

molecule  {
0 1
  S       -0.0598420     0.1064250    -0.0004010
  O       -0.4487500     0.7022520     1.2774130
  O       -0.4374810     0.6982890    -1.2834970
  N       -0.5882700    -1.4879290    -0.0002140
  C        1.7021800    -0.0997450     0.0075480
  H        1.9984920    -0.6462440    -0.8867680
  H        2.1431120     0.8977760     0.0077280
  H        1.9907200    -0.6430360     0.9062190
  H       -1.1805389    -1.6953369    -0.9246650
  H       -1.1351590    -1.6740770     0.8371300
units angstrom
no_reorient  #important for SAPT in psi4, default
symmetry c1  #important for SAPT in psi4, default
}

set PROPERTIES_ORIGIN ["COM"]
properties('MP2/aug-cc-pvtz', properties = ['dipole'])
--------------------------------------------------------------------------

    Molecular point group: c1
  Charge       = 0
  Multiplicity = 1
  Basis Set: AUG-CC-PVTZ
    Blend: AUG-CC-PVTZ
  Basis Set: (AUG-CC-PVTZ AUX)
    Blend: AUG-CC-PVTZ-JKFIT

    Orbital Energies [Eh]
    ---------------------

    Doubly Occupied:

       1A    -92.208123     2A    -20.553951     3A    -20.553336
       4A    -15.618510     5A    -11.278180     6A     -9.173980
       7A     -6.859187     8A     -6.858204     9A     -6.858183
      10A     -1.457412    11A     -1.341770    12A     -1.208323
      13A     -1.042248    14A     -0.840884    15A     -0.713137
      16A     -0.699263    17A     -0.677653    18A     -0.643727
      19A     -0.604201    20A     -0.600873    21A     -0.536086
      22A     -0.500256    23A     -0.478053    24A     -0.476463
      25A     -0.458707

  @DF-RHF Final Energy:  -642.54740375940150

   => Energetics <=

    Nuclear Repulsion Energy =            276.4640705434316601
    One-Electron Energy =               -1433.5415288126018822
    Two-Electron Energy =                 514.5300545097686609
    Total Energy =                       -642.5474037594015044
  Basis Set: (AUG-CC-PVTZ AUX)
    Blend: AUG-CC-PVTZ-RI
    Molecular point group: c1

    Geometry (in Angstrom), charge = 0, multiplicity = 1:

       Center              X                  Y                   Z               Mass
    ------------   -----------------  -----------------  -----------------  -----------------
         S           -0.059279930742     0.106621893747     0.000476675879    31.972071174400
         O           -0.448187930742     0.702448893747     1.278290675879    15.994914619570
         O           -0.436918930742     0.698485893747    -1.282619324121    15.994914619570
         N           -0.587707930742    -1.487732106253     0.000663675879    14.003074004430
         C            1.702742069258    -0.099548106253     0.008425675879    12.000000000000
         H            1.999054069258    -0.646047106253    -0.885890324121     1.007825032230
         H            2.143674069258     0.897972893747     0.008605675879     1.007825032230
         H            1.991282069258    -0.642839106253     0.907096675879     1.007825032230
         H           -1.179976830742    -1.695140006253    -0.923787324121     1.007825032230
         H           -1.134596930742    -1.673880106253     0.838007675879     1.007825032230

  Basis Set: AUG-CC-PVTZ
    Blend: AUG-CC-PVTZ
  Basis Set: (AUG-CC-PVTZ AUX)
    Blend: AUG-CC-PVTZ-JKFIT
	 Reference Energy          =    -642.5474037594015044 [Eh]
	 Singles Energy            =      -0.0000000000000000 [Eh]
	 Same-Spin Energy          =      -0.3007800061269446 [Eh]
	 Opposite-Spin Energy      =      -0.8933269318120465 [Eh]
	 Correlation Energy        =      -1.1941069379389910 [Eh]
	 Total Energy              =    -643.7415106973404590 [Eh]

	 ================> DF-SCS-MP2 Energies <==================
	-----------------------------------------------------------
	 SCS Same-Spin Scale       =       0.3333333333333333 [-]
	 SCS Opposite-Spin Scale   =       1.2000000000000000 [-]
	 SCS Same-Spin Energy      =      -0.1002600020423149 [Eh]
	 SCS Opposite-Spin Energy  =      -1.0719923181744557 [Eh]
	 SCS Correlation Energy    =      -1.1722523202167705 [Eh]
	 SCS Total Energy          =    -643.7196560796182894 [Eh]
	-----------------------------------------------------------

  Dipole Moment: [D]
     X:     1.4953      Y:    -3.1448      Z:    -0.0672     Total:     3.4829

*** Psi4 exiting successfully. Buy a developer a beer!
