                               Psi4 1.3.2 release

  ==> Input File <==

--------------------------------------------------------------------------
#psi4
#
memory 32 gb

molecule  {
0 1
  S       -0.0598420     0.1064250    -0.0004010
  O       -0.4487500     0.7022520     1.2774130
  O       -0.4374810     0.6982890    -1.2834970
  N       -0.5882700    -1.4879290    -0.0002140
  C        1.7021800    -0.0997450     0.0075480
  H        1.9984920    -0.6462440    -0.8867680
  H        2.1431120     0.8977760     0.0077280
  H        1.9907200    -0.6430360     0.9062190
  H       -1.0745231    -1.6582111    -0.7591890
  H       -1.1351590    -1.6740770     0.8371300
units angstrom
no_reorient  #important for SAPT in psi4, default
symmetry c1  #important for SAPT in psi4, default
}

set PROPERTIES_ORIGIN ["COM"]
properties('MP2/aug-cc-pvtz', properties = ['dipole'])
--------------------------------------------------------------------------

    Molecular point group: c1
  Charge       = 0
  Multiplicity = 1
  Basis Set: AUG-CC-PVTZ
    Blend: AUG-CC-PVTZ
  Basis Set: (AUG-CC-PVTZ AUX)
    Blend: AUG-CC-PVTZ-JKFIT

    Orbital Energies [Eh]
    ---------------------

    Doubly Occupied:

       1A    -92.209882     2A    -20.555609     3A    -20.555075
       4A    -15.601701     5A    -11.278933     6A     -9.175750
       7A     -6.860970     8A     -6.859973     9A     -6.859961
      10A     -1.460004    11A     -1.343382    12A     -1.238945
      13A     -1.046200    14A     -0.852908    15A     -0.745688
      16A     -0.712199    17A     -0.679345    18A     -0.650747
      19A     -0.605766    20A     -0.602800    21A     -0.539899
      22A     -0.503158    23A     -0.481100    24A     -0.478683
      25A     -0.462008

  @DF-RHF Final Energy:  -642.55036015265011

   => Energetics <=

    Nuclear Repulsion Energy =            277.6015031518880960
    One-Electron Energy =               -1435.5823565303073792
    Two-Electron Energy =                 515.4304932257692826
    Total Energy =                       -642.5503601526501143
  Basis Set: (AUG-CC-PVTZ AUX)
    Blend: AUG-CC-PVTZ-RI
    Molecular point group: c1

    Geometry (in Angstrom), charge = 0, multiplicity = 1:

       Center              X                  Y                   Z               Mass
    ------------   -----------------  -----------------  -----------------  -----------------
         S           -0.060404570389     0.106228054842    -0.001278731054    31.972071174400
         O           -0.449312570389     0.702055054842     1.276535268946    15.994914619570
         O           -0.438043570389     0.698092054842    -1.284374731054    15.994914619570
         N           -0.588832570389    -1.488125945158    -0.001091731054    14.003074004430
         C            1.701617429611    -0.099941945158     0.006670268946    12.000000000000
         H            1.997929429611    -0.646440945158    -0.887645731054     1.007825032230
         H            2.142549429611     0.897579054842     0.006850268946     1.007825032230
         H            1.990157429611    -0.643232945158     0.905341268946     1.007825032230
         H           -1.075085670389    -1.658408045158    -0.760066731054     1.007825032230
         H           -1.135721570389    -1.674273945158     0.836252268946     1.007825032230

  Basis Set: AUG-CC-PVTZ
    Blend: AUG-CC-PVTZ
  Basis Set: (AUG-CC-PVTZ AUX)
    Blend: AUG-CC-PVTZ-JKFIT
	 Reference Energy          =    -642.5503601526501143 [Eh]
	 Singles Energy            =      -0.0000000000000000 [Eh]
	 Same-Spin Energy          =      -0.2995952468649892 [Eh]
	 Opposite-Spin Energy      =      -0.8903015381057768 [Eh]
	 Correlation Energy        =      -1.1898967849707660 [Eh]
	 Total Energy              =    -643.7402569376208703 [Eh]

	 ================> DF-SCS-MP2 Energies <==================
	-----------------------------------------------------------
	 SCS Same-Spin Scale       =       0.3333333333333333 [-]
	 SCS Opposite-Spin Scale   =       1.2000000000000000 [-]
	 SCS Same-Spin Energy      =      -0.0998650822883297 [Eh]
	 SCS Opposite-Spin Energy  =      -1.0683618457269322 [Eh]
	 SCS Correlation Energy    =      -1.1682269280152620 [Eh]
	 SCS Total Energy          =    -643.7185870806654293 [Eh]
	-----------------------------------------------------------

  Dipole Moment: [D]
     X:     1.5878      Y:    -3.0775      Z:     0.0887     Total:     3.4641

*** Psi4 exiting successfully. Buy a developer a beer!
