                               Psi4 1.3.2 release

  ==> Input File <==

--------------------------------------------------------------------------
#psi4
#
memory 32 gb

molecule  {
0 1
  S       -0.0664500     0.1085462    -0.0133115
  O       -0.4487500     0.7022520     1.2774130
  O       -0.4374810     0.6982890    -1.2834970
  N       -0.5882700    -1.4879290    -0.0002140
  C        1.7021800    -0.0997450     0.0075480
  H        1.9984920    -0.6462440    -0.8867680
  H        2.1431120     0.8977760     0.0077280
  H        1.9907200    -0.6430360     0.9062190
  H       -1.1262549    -1.6683976    -0.8445770
  H       -1.1351590    -1.6740770     0.8371300
units angstrom
no_reorient  #important for SAPT in psi4, default
symmetry c1  #important for SAPT in psi4, default
}

set PROPERTIES_ORIGIN ["COM"]
properties('MP2/aug-cc-pvtz', properties = ['dipole'])
--------------------------------------------------------------------------

    Molecular point group: c1
  Charge       = 0
  Multiplicity = 1
  Basis Set: AUG-CC-PVTZ
    Blend: AUG-CC-PVTZ
  Basis Set: (AUG-CC-PVTZ AUX)
    Blend: AUG-CC-PVTZ-JKFIT

    Orbital Energies [Eh]
    ---------------------

    Doubly Occupied:

       1A    -92.208600     2A    -20.557903     3A    -20.552123
       4A    -15.611148     5A    -11.277646     6A     -9.174508
       7A     -6.859718     8A     -6.858796     9A     -6.858671
      10A     -1.461031    11A     -1.344063    12A     -1.221754
      13A     -1.041290    14A     -0.845252    15A     -0.725747
      16A     -0.709293    17A     -0.679003    18A     -0.647769
      19A     -0.604281    20A     -0.601911    21A     -0.538976
      22A     -0.503201    23A     -0.479782    24A     -0.477506
      25A     -0.460265

  @DF-RHF Final Energy:  -642.55718793463438

   => Energetics <=

    Nuclear Repulsion Energy =            277.0499097930040762
    One-Electron Energy =               -1434.6137277564153010
    Two-Electron Energy =                 515.0066300287767262
    Total Energy =                       -642.5571879346343849
  Basis Set: (AUG-CC-PVTZ AUX)
    Blend: AUG-CC-PVTZ-RI
    Molecular point group: c1

    Geometry (in Angstrom), charge = 0, multiplicity = 1:

       Center              X                  Y                   Z               Mass
    ------------   -----------------  -----------------  -----------------  -----------------
         S           -0.064239973728     0.107743460482    -0.008938598808    31.972071174400
         O           -0.446539973728     0.701449260482     1.281785901192    15.994914619570
         O           -0.435270973728     0.697486260482    -1.279124098808    15.994914619570
         N           -0.586059973728    -1.488731739518     0.004158901192    14.003074004430
         C            1.704390026272    -0.100547739518     0.011920901192    12.000000000000
         H            2.000702026272    -0.647046739518    -0.882395098808     1.007825032230
         H            2.145322026272     0.896973260482     0.012100901192     1.007825032230
         H            1.992930026272    -0.643838739518     0.910591901192     1.007825032230
         H           -1.124044873728    -1.669200339518    -0.840204098808     1.007825032230
         H           -1.132948973728    -1.674879739518     0.841502901192     1.007825032230

  Basis Set: AUG-CC-PVTZ
    Blend: AUG-CC-PVTZ
  Basis Set: (AUG-CC-PVTZ AUX)
    Blend: AUG-CC-PVTZ-JKFIT
	 Reference Energy          =    -642.5571879346343849 [Eh]
	 Singles Energy            =      -0.0000000000000000 [Eh]
	 Same-Spin Energy          =      -0.3000670952416518 [Eh]
	 Opposite-Spin Energy      =      -0.8915278205116247 [Eh]
	 Correlation Energy        =      -1.1915949157532766 [Eh]
	 Total Energy              =    -643.7487828503876699 [Eh]

	 ================> DF-SCS-MP2 Energies <==================
	-----------------------------------------------------------
	 SCS Same-Spin Scale       =       0.3333333333333333 [-]
	 SCS Opposite-Spin Scale   =       1.2000000000000000 [-]
	 SCS Same-Spin Energy      =      -0.1000223650805506 [Eh]
	 SCS Opposite-Spin Energy  =      -1.0698333846139496 [Eh]
	 SCS Correlation Energy    =      -1.1698557496945001 [Eh]
	 SCS Total Energy          =    -643.7270436843289190 [Eh]
	-----------------------------------------------------------

  Dipole Moment: [D]
     X:     1.4850      Y:    -3.0922      Z:    -0.1143     Total:     3.4322

*** Psi4 exiting successfully. Buy a developer a beer!
