                               Psi4 1.3.2 release

  ==> Input File <==

--------------------------------------------------------------------------
#psi4
#
memory 32 gb

molecule  {
0 1
  S       -0.0598420     0.1064250    -0.0004010
  O       -0.4487500     0.7022520     1.2774130
  O       -0.4374810     0.6982890    -1.2834970
  N       -0.6709870    -1.4580885    -0.0006185
  C        1.7105558    -0.0072445     0.0074407
  H        1.9984920    -0.6462440    -0.8867680
  H        2.1431120     0.8977760     0.0077280
  H        1.9907200    -0.6430360     0.9062190
  H       -1.1275310    -1.6767740    -0.8419270
  H       -1.1351590    -1.6740770     0.8371300
units angstrom
no_reorient  #important for SAPT in psi4, default
symmetry c1  #important for SAPT in psi4, default
}

set PROPERTIES_ORIGIN ["COM"]
properties('MP2/aug-cc-pvtz', properties = ['dipole'])
--------------------------------------------------------------------------

    Molecular point group: c1
  Charge       = 0
  Multiplicity = 1
  Basis Set: AUG-CC-PVTZ
    Blend: AUG-CC-PVTZ
  Basis Set: (AUG-CC-PVTZ AUX)
    Blend: AUG-CC-PVTZ-JKFIT

    Orbital Energies [Eh]
    ---------------------

    Doubly Occupied:

       1A    -92.209863     2A    -20.550127     3A    -20.550103
       4A    -15.605636     5A    -11.282348     6A     -9.175224
       7A     -6.860509     8A     -6.859504     9A     -6.859438
      10A     -1.456710    11A     -1.339712    12A     -1.226438
      13A     -1.047015    14A     -0.852043    15A     -0.747876
      16A     -0.711381    17A     -0.683571    18A     -0.643788
      19A     -0.627608    20A     -0.584902    21A     -0.531111
      22A     -0.498686    23A     -0.478815    24A     -0.473344
      25A     -0.457275

  @DF-RHF Final Energy:  -642.54636528760000

   => Energetics <=

    Nuclear Repulsion Energy =            277.1712944141163462
    One-Electron Energy =               -1434.8092612111170183
    Two-Electron Energy =                 515.0916015094006752
    Total Energy =                       -642.5463652875999969
  Basis Set: (AUG-CC-PVTZ AUX)
    Blend: AUG-CC-PVTZ-RI
    Molecular point group: c1

    Geometry (in Angstrom), charge = 0, multiplicity = 1:

       Center              X                  Y                   Z               Mass
    ------------   -----------------  -----------------  -----------------  -----------------
         S           -0.048708176593     0.090342881663    -0.000327853446    31.972071174400
         O           -0.437616176593     0.686169881663     1.277486146554    15.994914619570
         O           -0.426347176593     0.682206881663    -1.283423853446    15.994914619570
         N           -0.659853176593    -1.474170618337    -0.000545353446    14.003074004430
         C            1.721689623407    -0.023326618337     0.007513846554    12.000000000000
         H            2.009625823407    -0.662326118337    -0.886694853446     1.007825032230
         H            2.154245823407     0.881693881663     0.007801146554     1.007825032230
         H            2.001853823407    -0.659118118337     0.906292146554     1.007825032230
         H           -1.116397176593    -1.692856118337    -0.841853853446     1.007825032230
         H           -1.124025176593    -1.690159118337     0.837203146554     1.007825032230

  Basis Set: AUG-CC-PVTZ
    Blend: AUG-CC-PVTZ
  Basis Set: (AUG-CC-PVTZ AUX)
    Blend: AUG-CC-PVTZ-JKFIT
	 Reference Energy          =    -642.5463652875999969 [Eh]
	 Singles Energy            =      -0.0000000000000000 [Eh]
	 Same-Spin Energy          =      -0.2997041497585891 [Eh]
	 Opposite-Spin Energy      =      -0.8905296032369969 [Eh]
	 Correlation Energy        =      -1.1902337529955860 [Eh]
	 Total Energy              =    -643.7365990405955927 [Eh]

	 ================> DF-SCS-MP2 Energies <==================
	-----------------------------------------------------------
	 SCS Same-Spin Scale       =       0.3333333333333333 [-]
	 SCS Opposite-Spin Scale   =       1.2000000000000000 [-]
	 SCS Same-Spin Energy      =      -0.0999013832528630 [Eh]
	 SCS Opposite-Spin Energy  =      -1.0686355238843963 [Eh]
	 SCS Correlation Energy    =      -1.1685369071372593 [Eh]
	 SCS Total Energy          =    -643.7149021947373058 [Eh]
	-----------------------------------------------------------

  Dipole Moment: [D]
     X:     1.7264      Y:    -3.2770      Z:     0.0127     Total:     3.7040

*** Psi4 exiting successfully. Buy a developer a beer!
