                               Psi4 1.3.2 release

  ==> Input File <==

--------------------------------------------------------------------------
#psi4
#
memory 32 gb

molecule  {
0 1
  O       -2.5211540    -0.5137840     0.0284240
  O       -0.0903380    -1.4616610     0.1717700
  N        0.9259230     0.4056680    -0.6455280
  C       -1.5147550     0.4028960    -0.3432490
  C        2.2711600    -0.1378510    -0.5222970
  C       -0.1583790    -0.2975740    -0.2472510
  C       -1.5844930     1.6236140     0.5658530
  C        2.8531060     0.0659690     0.8699860
  H       -1.6669500     0.7105100    -1.3901450
  H        2.2044940    -1.2028750    -0.7525030
  H        2.8934660     0.3357800    -1.2867330
  H        0.8058395     1.3611825    -0.9495087
  H       -1.3564630     1.3269670     1.5921410
  H       -2.5982940     2.0269070     0.5395510
  H       -0.8919110     2.4138320     0.2596650
  H        2.9042670     1.1289430     1.1200310
  H        2.2261210    -0.4398610     1.6074960
  H        3.8631580    -0.3501450     0.9292180
  H       -2.0326010    -1.3422410     0.2291570
units angstrom
no_reorient  #important for SAPT in psi4, default
symmetry c1  #important for SAPT in psi4, default
}

set PROPERTIES_ORIGIN ["COM"]
properties('MP2/aug-cc-pvtz', properties = ['dipole'])
--------------------------------------------------------------------------

    Molecular point group: c1
  Charge       = 0
  Multiplicity = 1
  Basis Set: AUG-CC-PVTZ
    Blend: AUG-CC-PVTZ
  Basis Set: (AUG-CC-PVTZ AUX)
    Blend: AUG-CC-PVTZ-JKFIT

    Orbital Energies [Eh]
    ---------------------

    Doubly Occupied:

       1A    -20.548456     2A    -20.533371     3A    -15.598618
       4A    -11.359178     5A    -11.298193     6A    -11.273809
       7A    -11.230991     8A    -11.224164     9A     -1.398378
      10A     -1.346681    11A     -1.245996    12A     -1.052778
      13A     -1.012812    14A     -0.902926    15A     -0.849159
      16A     -0.794796    17A     -0.744080    18A     -0.677327
      19A     -0.649658    20A     -0.642297    21A     -0.611845
      22A     -0.598034    23A     -0.575665    24A     -0.562921
      25A     -0.543996    26A     -0.534684    27A     -0.521030
      28A     -0.514957    29A     -0.502334    30A     -0.445991
      31A     -0.436034    32A     -0.403382

  @DF-RHF Final Energy:  -400.08782625903888

   => Energetics <=

    Nuclear Repulsion Energy =            400.4209261074153687
    One-Electron Energy =               -1339.7484258923868765
    Two-Electron Energy =                 539.2396735259326306
    Total Energy =                       -400.0878262590388204
  Basis Set: (AUG-CC-PVTZ AUX)
    Blend: AUG-CC-PVTZ-RI
    Molecular point group: c1

    Geometry (in Angstrom), charge = 0, multiplicity = 1:

       Center              X                  Y                   Z               Mass
    ------------   -----------------  -----------------  -----------------  -----------------
         O           -2.521117007802    -0.513646315403     0.028830241310    15.994914619570
         O           -0.090301007802    -1.461523315403     0.172176241310    15.994914619570
         N            0.925959992198     0.405805684597    -0.645121758690    14.003074004430
         C           -1.514718007802     0.403033684597    -0.342842758690    12.000000000000
         C            2.271196992198    -0.137713315403    -0.521890758690    12.000000000000
         C           -0.158342007802    -0.297436315403    -0.246844758690    12.000000000000
         C           -1.584456007802     1.623751684597     0.566259241310    12.000000000000
         C            2.853142992198     0.066106684597     0.870392241310    12.000000000000
         H           -1.666913007802     0.710647684597    -1.389738758690     1.007825032230
         H            2.204530992198    -1.202737315403    -0.752096758690     1.007825032230
         H            2.893502992198     0.335917684597    -1.286326758690     1.007825032230
         H            0.805876492198     1.361320184597    -0.949102458690     1.007825032230
         H           -1.356426007802     1.327104684597     1.592547241310     1.007825032230
         H           -2.598257007802     2.027044684597     0.539957241310     1.007825032230
         H           -0.891874007802     2.413969684597     0.260071241310     1.007825032230
         H            2.904303992198     1.129080684597     1.120437241310     1.007825032230
         H            2.226157992198    -0.439723315403     1.607902241310     1.007825032230
         H            3.863194992198    -0.350007315403     0.929624241310     1.007825032230
         H           -2.032564007802    -1.342103315403     0.229563241310     1.007825032230

  Basis Set: AUG-CC-PVTZ
    Blend: AUG-CC-PVTZ
  Basis Set: (AUG-CC-PVTZ AUX)
    Blend: AUG-CC-PVTZ-JKFIT
	 Reference Energy          =    -400.0878262590388772 [Eh]
	 Singles Energy            =      -0.0000000000000000 [Eh]
	 Same-Spin Energy          =      -0.4021004787404390 [Eh]
	 Opposite-Spin Energy      =      -1.3076111044508465 [Eh]
	 Correlation Energy        =      -1.7097115831912855 [Eh]
	 Total Energy              =    -401.7975378422301560 [Eh]

	 ================> DF-SCS-MP2 Energies <==================
	-----------------------------------------------------------
	 SCS Same-Spin Scale       =       0.3333333333333333 [-]
	 SCS Opposite-Spin Scale   =       1.2000000000000000 [-]
	 SCS Same-Spin Energy      =      -0.1340334929134797 [Eh]
	 SCS Opposite-Spin Energy  =      -1.5691333253410158 [Eh]
	 SCS Correlation Energy    =      -1.7031668182544955 [Eh]
	 SCS Total Energy          =    -401.7909930772933649 [Eh]
	-----------------------------------------------------------

  Dipole Moment: [D]
     X:     3.0972      Y:     3.1634      Z:    -1.1097     Total:     4.5641

*** Psi4 exiting successfully. Buy a developer a beer!
