                               Psi4 1.3.2 release

  ==> Input File <==

--------------------------------------------------------------------------
#psi4
#
memory 32 gb

molecule  {
0 1
  O       -2.5211540    -0.5137840     0.0284240
  O       -0.0903380    -1.4616610     0.1717700
  N        0.9259230     0.4056680    -0.6455280
  C       -1.4917604     0.4719209    -0.1569514
  C        2.2711600    -0.1378510    -0.5222970
  C       -0.1583790    -0.2975740    -0.2472510
  C       -1.5844930     1.6236140     0.5658530
  C        2.8531060     0.0659690     0.8699860
  H       -1.6669500     0.7105100    -1.3901450
  H        2.2044940    -1.2028750    -0.7525030
  H        2.8934660     0.3357800    -1.2867330
  H        0.8101310     1.3771570    -0.9023240
  H       -1.3564630     1.3269670     1.5921410
  H       -2.5982940     2.0269070     0.5395510
  H       -0.8919110     2.4138320     0.2596650
  H        2.9042670     1.1289430     1.1200310
  H        2.2261210    -0.4398610     1.6074960
  H        3.8631580    -0.3501450     0.9292180
  H       -2.0326010    -1.3422410     0.2291570
units angstrom
no_reorient  #important for SAPT in psi4, default
symmetry c1  #important for SAPT in psi4, default
}

set PROPERTIES_ORIGIN ["COM"]
properties('MP2/aug-cc-pvtz', properties = ['dipole'])
--------------------------------------------------------------------------

    Molecular point group: c1
  Charge       = 0
  Multiplicity = 1
  Basis Set: AUG-CC-PVTZ
    Blend: AUG-CC-PVTZ
  Basis Set: (AUG-CC-PVTZ AUX)
    Blend: AUG-CC-PVTZ-JKFIT

    Orbital Energies [Eh]
    ---------------------

    Doubly Occupied:

       1A    -20.549315     2A    -20.534273     3A    -15.598534
       4A    -11.362898     5A    -11.308001     6A    -11.273999
       7A    -11.228721     8A    -11.225131     9A     -1.397689
      10A     -1.341586    11A     -1.246279    12A     -1.082639
      13A     -1.026280    14A     -0.903181    15A     -0.841293
      16A     -0.791889    17A     -0.739228    18A     -0.675442
      19A     -0.654837    20A     -0.643946    21A     -0.614515
      22A     -0.602805    23A     -0.596026    24A     -0.574045
      25A     -0.542078    26A     -0.530636    27A     -0.520913
      28A     -0.507068    29A     -0.503348    30A     -0.447023
      31A     -0.418754    32A     -0.398328

  @DF-RHF Final Energy:  -400.04441812114385

   => Energetics <=

    Nuclear Repulsion Energy =            401.4145218511175131
    One-Electron Energy =               -1341.5564754838337649
    Two-Electron Energy =                 540.0975355115723460
    Total Energy =                       -400.0444181211438490
  Basis Set: (AUG-CC-PVTZ AUX)
    Blend: AUG-CC-PVTZ-RI
    Molecular point group: c1

    Geometry (in Angstrom), charge = 0, multiplicity = 1:

       Center              X                  Y                   Z               Mass
    ------------   -----------------  -----------------  -----------------  -----------------
         O           -2.523510778951    -0.520858526435     0.009329514970    15.994914619570
         O           -0.092694778951    -1.468735526435     0.152675514970    15.994914619570
         N            0.923566221049     0.398593473565    -0.664622485030    14.003074004430
         C           -1.494117178951     0.464846373565    -0.176045885030    12.000000000000
         C            2.268803221049    -0.144925526435    -0.541391485030    12.000000000000
         C           -0.160735778951    -0.304648526435    -0.266345485030    12.000000000000
         C           -1.586849778951     1.616539473565     0.546758514970    12.000000000000
         C            2.850749221049     0.058894473565     0.850891514970    12.000000000000
         H           -1.669306778951     0.703435473565    -1.409239485030     1.007825032230
         H            2.202137221049    -1.209949526435    -0.771597485030     1.007825032230
         H            2.891109221049     0.328705473565    -1.305827485030     1.007825032230
         H            0.807774221049     1.370082473565    -0.921418485030     1.007825032230
         H           -1.358819778951     1.319892473565     1.573046514970     1.007825032230
         H           -2.600650778951     2.019832473565     0.520456514970     1.007825032230
         H           -0.894267778951     2.406757473565     0.240570514970     1.007825032230
         H            2.901910221049     1.121868473565     1.100936514970     1.007825032230
         H            2.223764221049    -0.446935526435     1.588401514970     1.007825032230
         H            3.860801221049    -0.357219526435     0.910123514970     1.007825032230
         H           -2.034957778951    -1.349315526435     0.210062514970     1.007825032230

  Basis Set: AUG-CC-PVTZ
    Blend: AUG-CC-PVTZ
  Basis Set: (AUG-CC-PVTZ AUX)
    Blend: AUG-CC-PVTZ-JKFIT
	 Reference Energy          =    -400.0444181211438490 [Eh]
	 Singles Energy            =      -0.0000000000000000 [Eh]
	 Same-Spin Energy          =      -0.4043123600014739 [Eh]
	 Opposite-Spin Energy      =      -1.3113982001242102 [Eh]
	 Correlation Energy        =      -1.7157105601256841 [Eh]
	 Total Energy              =    -401.7601286812695207 [Eh]

	 ================> DF-SCS-MP2 Energies <==================
	-----------------------------------------------------------
	 SCS Same-Spin Scale       =       0.3333333333333333 [-]
	 SCS Opposite-Spin Scale   =       1.2000000000000000 [-]
	 SCS Same-Spin Energy      =      -0.1347707866671580 [Eh]
	 SCS Opposite-Spin Energy  =      -1.5736778401490521 [Eh]
	 SCS Correlation Energy    =      -1.7084486268162100 [Eh]
	 SCS Total Energy          =    -401.7528667479600699 [Eh]
	-----------------------------------------------------------

  Dipole Moment: [D]
     X:     3.1575      Y:     3.3424      Z:    -0.6751     Total:     4.6473

*** Psi4 exiting successfully. Buy a developer a beer!
