                               Psi4 1.3.2 release

  ==> Input File <==

--------------------------------------------------------------------------
#psi4
#
memory 32 gb

molecule  {
0 1
  O       -2.5211540    -0.5137840     0.0284240
  O       -0.0903380    -1.4616610     0.1717700
  N        0.9259230     0.4056680    -0.6455280
  C       -1.5147550     0.4028960    -0.3432490
  C        2.2711600    -0.1378510    -0.5222970
  C       -0.1583790    -0.2975740    -0.2472510
  C       -1.5844930     1.6236140     0.5658530
  C        2.8531060     0.0659690     0.8699860
  H       -1.6669500     0.7105100    -1.3901450
  H        2.2044940    -1.2028750    -0.7525030
  H        2.8934660     0.3357800    -1.2867330
  H        0.8015479     1.3452080    -0.9966934
  H       -1.3564630     1.3269670     1.5921410
  H       -2.5982940     2.0269070     0.5395510
  H       -0.8919110     2.4138320     0.2596650
  H        2.9042670     1.1289430     1.1200310
  H        2.2261210    -0.4398610     1.6074960
  H        3.8631580    -0.3501450     0.9292180
  H       -2.0326010    -1.3422410     0.2291570
units angstrom
no_reorient  #important for SAPT in psi4, default
symmetry c1  #important for SAPT in psi4, default
}

set PROPERTIES_ORIGIN ["COM"]
properties('MP2/aug-cc-pvtz', properties = ['dipole'])
--------------------------------------------------------------------------

    Molecular point group: c1
  Charge       = 0
  Multiplicity = 1
  Basis Set: AUG-CC-PVTZ
    Blend: AUG-CC-PVTZ
  Basis Set: (AUG-CC-PVTZ AUX)
    Blend: AUG-CC-PVTZ-JKFIT

    Orbital Energies [Eh]
    ---------------------

    Doubly Occupied:

       1A    -20.548417     2A    -20.533371     3A    -15.598712
       4A    -11.359177     5A    -11.298173     6A    -11.273840
       7A    -11.230569     8A    -11.223984     9A     -1.398349
      10A     -1.346642    11A     -1.245818    12A     -1.052600
      13A     -1.012683    14A     -0.902823    15A     -0.848828
      16A     -0.794618    17A     -0.743987    18A     -0.677432
      19A     -0.650000    20A     -0.642370    21A     -0.612507
      22A     -0.596524    23A     -0.575560    24A     -0.562492
      25A     -0.543994    26A     -0.534422    27A     -0.521070
      28A     -0.514803    29A     -0.502063    30A     -0.445914
      31A     -0.435966    32A     -0.403334

  @DF-RHF Final Energy:  -400.08772391841450

   => Energetics <=

    Nuclear Repulsion Energy =            400.3895884137029384
    One-Electron Energy =               -1339.6925387342491831
    Two-Electron Energy =                 539.2152264021317478
    Total Energy =                       -400.0877239184144400
  Basis Set: (AUG-CC-PVTZ AUX)
    Blend: AUG-CC-PVTZ-RI
    Molecular point group: c1

    Geometry (in Angstrom), charge = 0, multiplicity = 1:

       Center              X                  Y                   Z               Mass
    ------------   -----------------  -----------------  -----------------  -----------------
         O           -2.521080065373    -0.513508805654     0.029236410909    15.994914619570
         O           -0.090264065373    -1.461385805654     0.172582410909    15.994914619570
         N            0.925996934627     0.405943194346    -0.644715589091    14.003074004430
         C           -1.514681065373     0.403171194346    -0.342436589091    12.000000000000
         C            2.271233934627    -0.137575805654    -0.521484589091    12.000000000000
         C           -0.158305065373    -0.297298805654    -0.246438589091    12.000000000000
         C           -1.584419065373     1.623889194346     0.566665410909    12.000000000000
         C            2.853179934627     0.066244194346     0.870798410909    12.000000000000
         H           -1.666876065373     0.710785194346    -1.389332589091     1.007825032230
         H            2.204567934627    -1.202599805654    -0.751690589091     1.007825032230
         H            2.893539934627     0.336055194346    -1.285920589091     1.007825032230
         H            0.801621834627     1.345483194346    -0.995880989091     1.007825032230
         H           -1.356389065373     1.327242194346     1.592953410909     1.007825032230
         H           -2.598220065373     2.027182194346     0.540363410909     1.007825032230
         H           -0.891837065373     2.414107194346     0.260477410909     1.007825032230
         H            2.904340934627     1.129218194346     1.120843410909     1.007825032230
         H            2.226194934627    -0.439585805654     1.608308410909     1.007825032230
         H            3.863231934627    -0.349869805654     0.930030410909     1.007825032230
         H           -2.032527065373    -1.341965805654     0.229969410909     1.007825032230

  Basis Set: AUG-CC-PVTZ
    Blend: AUG-CC-PVTZ
  Basis Set: (AUG-CC-PVTZ AUX)
    Blend: AUG-CC-PVTZ-JKFIT
	 Reference Energy          =    -400.0877239184144969 [Eh]
	 Singles Energy            =      -0.0000000000000000 [Eh]
	 Same-Spin Energy          =      -0.4021025136205035 [Eh]
	 Opposite-Spin Energy      =      -1.3076317390141490 [Eh]
	 Correlation Energy        =      -1.7097342526346524 [Eh]
	 Total Energy              =    -401.7974581710491293 [Eh]

	 ================> DF-SCS-MP2 Energies <==================
	-----------------------------------------------------------
	 SCS Same-Spin Scale       =       0.3333333333333333 [-]
	 SCS Opposite-Spin Scale   =       1.2000000000000000 [-]
	 SCS Same-Spin Energy      =      -0.1340341712068345 [Eh]
	 SCS Opposite-Spin Energy  =      -1.5691580868169788 [Eh]
	 SCS Correlation Energy    =      -1.7031922580238132 [Eh]
	 SCS Total Energy          =    -401.7909161764383157 [Eh]
	-----------------------------------------------------------

  Dipole Moment: [D]
     X:     3.0966      Y:     3.1488      Z:    -1.1739     Total:     4.5697

*** Psi4 exiting successfully. Buy a developer a beer!
