                               Psi4 1.3.2 release

  ==> Input File <==

--------------------------------------------------------------------------
#psi4
#
memory 32 gb

molecule  {
0 1
  O       -2.5211540    -0.5137840     0.0284240
  O       -0.0903380    -1.4616610     0.1717700
  N        0.9259230     0.4056680    -0.6455280
  C       -1.5147550     0.4028960    -0.3432490
  C        2.2711600    -0.1378510    -0.5222970
  C       -0.1583790    -0.2975740    -0.2472510
  C       -1.5844930     1.6236140     0.5658530
  C        2.8531060     0.0659690     0.8699860
  H       -1.6669500     0.7105100    -1.3901450
  H        2.2044940    -1.2028750    -0.7525030
  H        2.8934660     0.3357800    -1.2867330
  H        0.7929648     1.3132589    -1.0910629
  H       -1.3564630     1.3269670     1.5921410
  H       -2.5982940     2.0269070     0.5395510
  H       -0.8919110     2.4138320     0.2596650
  H        2.9042670     1.1289430     1.1200310
  H        2.2261210    -0.4398610     1.6074960
  H        3.8631580    -0.3501450     0.9292180
  H       -2.0326010    -1.3422410     0.2291570
units angstrom
no_reorient  #important for SAPT in psi4, default
symmetry c1  #important for SAPT in psi4, default
}

set PROPERTIES_ORIGIN ["COM"]
properties('MP2/aug-cc-pvtz', properties = ['dipole'])
--------------------------------------------------------------------------

    Molecular point group: c1
  Charge       = 0
  Multiplicity = 1
  Basis Set: AUG-CC-PVTZ
    Blend: AUG-CC-PVTZ
  Basis Set: (AUG-CC-PVTZ AUX)
    Blend: AUG-CC-PVTZ-JKFIT

    Orbital Energies [Eh]
    ---------------------

    Doubly Occupied:

       1A    -20.548357     2A    -20.533637     3A    -15.599391
       4A    -11.359213     5A    -11.298134     6A    -11.273783
       7A    -11.229716     8A    -11.223656     9A     -1.398391
      10A     -1.346607    11A     -1.244754    12A     -1.052203
      13A     -1.012266    14A     -0.902562    15A     -0.848078
      16A     -0.792224    17A     -0.743765    18A     -0.677651
      19A     -0.650539    20A     -0.642487    21A     -0.613732
      22A     -0.593219    23A     -0.575287    24A     -0.561618
      25A     -0.543971    26A     -0.533887    27A     -0.521146
      28A     -0.514412    29A     -0.501463    30A     -0.445773
      31A     -0.435945    32A     -0.403352

  @DF-RHF Final Energy:  -400.08698857521938

   => Energetics <=

    Nuclear Repulsion Energy =            400.2913030886675188
    One-Electron Energy =               -1339.5141439111737327
    Two-Electron Energy =                 539.1358522472868344
    Total Energy =                       -400.0869885752193795
  Basis Set: (AUG-CC-PVTZ AUX)
    Blend: AUG-CC-PVTZ-RI
    Molecular point group: c1

    Geometry (in Angstrom), charge = 0, multiplicity = 1:

       Center              X                  Y                   Z               Mass
    ------------   -----------------  -----------------  -----------------  -----------------
         O           -2.521006181375    -0.513233785295     0.030048750968    15.994914619570
         O           -0.090190181375    -1.461110785295     0.173394750968    15.994914619570
         N            0.926070818625     0.406218214705    -0.643903249032    14.003074004430
         C           -1.514607181375     0.403446214705    -0.341624249032    12.000000000000
         C            2.271307818625    -0.137300785295    -0.520672249032    12.000000000000
         C           -0.158231181375    -0.297023785295    -0.245626249032    12.000000000000
         C           -1.584345181375     1.624164214705     0.567477750968    12.000000000000
         C            2.853253818625     0.066519214705     0.871610750968    12.000000000000
         H           -1.666802181375     0.711060214705    -1.388520249032     1.007825032230
         H            2.204641818625    -1.202324785295    -0.750878249032     1.007825032230
         H            2.893613818625     0.336330214705    -1.285108249032     1.007825032230
         H            0.793112618625     1.313809114705    -1.089438149032     1.007825032230
         H           -1.356315181375     1.327517214705     1.593765750968     1.007825032230
         H           -2.598146181375     2.027457214705     0.541175750968     1.007825032230
         H           -0.891763181375     2.414382214705     0.261289750968     1.007825032230
         H            2.904414818625     1.129493214705     1.121655750968     1.007825032230
         H            2.226268818625    -0.439310785295     1.609120750968     1.007825032230
         H            3.863305818625    -0.349594785295     0.930842750968     1.007825032230
         H           -2.032453181375    -1.341690785295     0.230781750968     1.007825032230

  Basis Set: AUG-CC-PVTZ
    Blend: AUG-CC-PVTZ
  Basis Set: (AUG-CC-PVTZ AUX)
    Blend: AUG-CC-PVTZ-JKFIT
	 Reference Energy          =    -400.0869885752193795 [Eh]
	 Singles Energy            =      -0.0000000000000000 [Eh]
	 Same-Spin Energy          =      -0.4021598020572552 [Eh]
	 Opposite-Spin Energy      =      -1.3078221118394053 [Eh]
	 Correlation Energy        =      -1.7099819138966605 [Eh]
	 Total Energy              =    -401.7969704891160632 [Eh]

	 ================> DF-SCS-MP2 Energies <==================
	-----------------------------------------------------------
	 SCS Same-Spin Scale       =       0.3333333333333333 [-]
	 SCS Opposite-Spin Scale   =       1.2000000000000000 [-]
	 SCS Same-Spin Energy      =      -0.1340532673524184 [Eh]
	 SCS Opposite-Spin Energy  =      -1.5693865342072864 [Eh]
	 SCS Correlation Energy    =      -1.7034398015597048 [Eh]
	 SCS Total Energy          =    -401.7904283767790616 [Eh]
	-----------------------------------------------------------

  Dipole Moment: [D]
     X:     3.0913      Y:     3.1094      Z:    -1.2982     Total:     4.5728

*** Psi4 exiting successfully. Buy a developer a beer!
