                               Psi4 1.3.2 release

  ==> Input File <==

--------------------------------------------------------------------------
#psi4
#
memory 32 gb

molecule  {
0 1
  O       -2.5211540    -0.5137840     0.0284240
  O       -0.0903380    -1.4616610     0.1717700
  N        0.9259230     0.4056680    -0.6455280
  C       -1.4860117     0.4891771    -0.1103769
  C        2.2711600    -0.1378510    -0.5222970
  C       -0.1583790    -0.2975740    -0.2472510
  C       -1.5844930     1.6236140     0.5658530
  C        2.8531060     0.0659690     0.8699860
  H       -1.6669500     0.7105100    -1.3901450
  H        2.2044940    -1.2028750    -0.7525030
  H        2.8934660     0.3357800    -1.2867330
  H        0.8101310     1.3771570    -0.9023240
  H       -1.3564630     1.3269670     1.5921410
  H       -2.5982940     2.0269070     0.5395510
  H       -0.8919110     2.4138320     0.2596650
  H        2.9042670     1.1289430     1.1200310
  H        2.2261210    -0.4398610     1.6074960
  H        3.8631580    -0.3501450     0.9292180
  H       -2.0326010    -1.3422410     0.2291570
units angstrom
no_reorient  #important for SAPT in psi4, default
symmetry c1  #important for SAPT in psi4, default
}

set PROPERTIES_ORIGIN ["COM"]
properties('MP2/aug-cc-pvtz', properties = ['dipole'])
--------------------------------------------------------------------------

    Molecular point group: c1
  Charge       = 0
  Multiplicity = 1
  Basis Set: AUG-CC-PVTZ
    Blend: AUG-CC-PVTZ
  Basis Set: (AUG-CC-PVTZ AUX)
    Blend: AUG-CC-PVTZ-JKFIT

    Orbital Energies [Eh]
    ---------------------

    Doubly Occupied:

       1A    -20.549929     2A    -20.534532     3A    -15.598363
       4A    -11.364741     5A    -11.311552     6A    -11.274042
       7A    -11.228406     8A    -11.225316     9A     -1.397375
      10A     -1.339560    11A     -1.246324    12A     -1.094817
      13A     -1.027945    14A     -0.902852    15A     -0.839371
      16A     -0.791340    17A     -0.738403    18A     -0.676472
      19A     -0.659187    20A     -0.644019    21A     -0.616548
      22A     -0.605171    23A     -0.598353    24A     -0.577157
      25A     -0.542252    26A     -0.531392    27A     -0.519042
      28A     -0.505085    29A     -0.502964    30A     -0.445870
      31A     -0.414037    32A     -0.392764

  @DF-RHF Final Energy:  -400.02026146087530

   => Energetics <=

    Nuclear Repulsion Energy =            401.6032074267806138
    One-Electron Energy =               -1341.8565672290421844
    Two-Electron Energy =                 540.2330983413862668
    Total Energy =                       -400.0202614608753038
  Basis Set: (AUG-CC-PVTZ AUX)
    Blend: AUG-CC-PVTZ-RI
    Molecular point group: c1

    Geometry (in Angstrom), charge = 0, multiplicity = 1:

       Center              X                  Y                   Z               Mass
    ------------   -----------------  -----------------  -----------------  -----------------
         O           -2.524099991471    -0.522627199193     0.004555865535    15.994914619570
         O           -0.093283991471    -1.470504199193     0.147901865535    15.994914619570
         N            0.922977008529     0.396824800807    -0.669396134465    14.003074004430
         C           -1.488957691471     0.480333900807    -0.134245034465    12.000000000000
         C            2.268214008529    -0.146694199193    -0.546165134465    12.000000000000
         C           -0.161324991471    -0.306417199193    -0.271119134465    12.000000000000
         C           -1.587438991471     1.614770800807     0.541984865535    12.000000000000
         C            2.850160008529     0.057125800807     0.846117865535    12.000000000000
         H           -1.669895991471     0.701666800807    -1.414013134465     1.007825032230
         H            2.201548008529    -1.211718199193    -0.776371134465     1.007825032230
         H            2.890520008529     0.326936800807    -1.310601134465     1.007825032230
         H            0.807185008529     1.368313800807    -0.926192134465     1.007825032230
         H           -1.359408991471     1.318123800807     1.568272865535     1.007825032230
         H           -2.601239991471     2.018063800807     0.515682865535     1.007825032230
         H           -0.894856991471     2.404988800807     0.235796865535     1.007825032230
         H            2.901321008529     1.120099800807     1.096162865535     1.007825032230
         H            2.223175008529    -0.448704199193     1.583627865535     1.007825032230
         H            3.860212008529    -0.358988199193     0.905349865535     1.007825032230
         H           -2.035546991471    -1.351084199193     0.205288865535     1.007825032230

  Basis Set: AUG-CC-PVTZ
    Blend: AUG-CC-PVTZ
  Basis Set: (AUG-CC-PVTZ AUX)
    Blend: AUG-CC-PVTZ-JKFIT
	 Reference Energy          =    -400.0202614608753038 [Eh]
	 Singles Energy            =      -0.0000000000000000 [Eh]
	 Same-Spin Energy          =      -0.4052598366297997 [Eh]
	 Opposite-Spin Energy      =      -1.3131388571625269 [Eh]
	 Correlation Energy        =      -1.7183986937923266 [Eh]
	 Total Energy              =    -401.7386601546676275 [Eh]

	 ================> DF-SCS-MP2 Energies <==================
	-----------------------------------------------------------
	 SCS Same-Spin Scale       =       0.3333333333333333 [-]
	 SCS Opposite-Spin Scale   =       1.2000000000000000 [-]
	 SCS Same-Spin Energy      =      -0.1350866122099332 [Eh]
	 SCS Opposite-Spin Energy  =      -1.5757666285950322 [Eh]
	 SCS Correlation Energy    =      -1.7108532408049655 [Eh]
	 SCS Total Energy          =    -401.7311147016802693 [Eh]
	-----------------------------------------------------------

  Dipole Moment: [D]
     X:     3.1681      Y:     3.3905      Z:    -0.5588     Total:     4.6739

*** Psi4 exiting successfully. Buy a developer a beer!
