                               Psi4 1.3.2 release

  ==> Input File <==

--------------------------------------------------------------------------
#psi4
#
memory 32 gb

molecule  {
0 1
  O       -2.5211540    -0.5137840     0.0284240
  O       -0.0903380    -1.4616610     0.1717700
  N        0.9259230     0.4056680    -0.6455280
  C       -1.5090063     0.4201522    -0.2966746
  C        2.2711600    -0.1378510    -0.5222970
  C       -0.1583790    -0.2975740    -0.2472510
  C       -1.5844930     1.6236140     0.5658530
  C        2.8531060     0.0659690     0.8699860
  H       -1.6669500     0.7105100    -1.3901450
  H        2.2044940    -1.2028750    -0.7525030
  H        2.8934660     0.3357800    -1.2867330
  H        0.8101310     1.3771570    -0.9023240
  H       -1.3564630     1.3269670     1.5921410
  H       -2.5982940     2.0269070     0.5395510
  H       -0.8919110     2.4138320     0.2596650
  H        2.9042670     1.1289430     1.1200310
  H        2.2261210    -0.4398610     1.6074960
  H        3.8631580    -0.3501450     0.9292180
  H       -2.0326010    -1.3422410     0.2291570
units angstrom
no_reorient  #important for SAPT in psi4, default
symmetry c1  #important for SAPT in psi4, default
}

set PROPERTIES_ORIGIN ["COM"]
properties('MP2/aug-cc-pvtz', properties = ['dipole'])
--------------------------------------------------------------------------

    Molecular point group: c1
  Charge       = 0
  Multiplicity = 1
  Basis Set: AUG-CC-PVTZ
    Blend: AUG-CC-PVTZ
  Basis Set: (AUG-CC-PVTZ AUX)
    Blend: AUG-CC-PVTZ-JKFIT

    Orbital Energies [Eh]
    ---------------------

    Doubly Occupied:

       1A    -20.548416     2A    -20.533628     3A    -15.598728
       4A    -11.359546     5A    -11.299944     6A    -11.273816
       7A    -11.230631     8A    -11.224555     9A     -1.398364
      10A     -1.345918    11A     -1.246045    12A     -1.057571
      13A     -1.017162    14A     -0.903246    15A     -0.847243
      16A     -0.793626    17A     -0.742769    18A     -0.676020
      19A     -0.647418    20A     -0.644572    21A     -0.611559
      22A     -0.599839    23A     -0.580979    24A     -0.565753
      25A     -0.543165    26A     -0.532119    27A     -0.522069
      28A     -0.513845    29A     -0.503017    30A     -0.447479
      31A     -0.433804    32A     -0.403151

  @DF-RHF Final Energy:  -400.08468639912337

   => Energetics <=

    Nuclear Repulsion Energy =            400.7195286616058070
    One-Electron Energy =               -1340.3164348709028673
    Two-Electron Energy =                 539.5122198101736330
    Total Energy =                       -400.0846863991233704
  Basis Set: (AUG-CC-PVTZ AUX)
    Blend: AUG-CC-PVTZ-RI
    Molecular point group: c1

    Geometry (in Angstrom), charge = 0, multiplicity = 1:

       Center              X                  Y                   Z               Mass
    ------------   -----------------  -----------------  -----------------  -----------------
         O           -2.521743161891    -0.515552497911     0.023650432526    15.994914619570
         O           -0.090927161891    -1.463429497911     0.166996432526    15.994914619570
         N            0.925333838109     0.403899502089    -0.650301567474    14.003074004430
         C           -1.509595461891     0.418383702089    -0.301448167474    12.000000000000
         C            2.270570838109    -0.139619497911    -0.527070567474    12.000000000000
         C           -0.158968161891    -0.299342497911    -0.252024567474    12.000000000000
         C           -1.585082161891     1.621845502089     0.561079432526    12.000000000000
         C            2.852516838109     0.064200502089     0.865212432526    12.000000000000
         H           -1.667539161891     0.708741502089    -1.394918567474     1.007825032230
         H            2.203904838109    -1.204643497911    -0.757276567474     1.007825032230
         H            2.892876838109     0.334011502089    -1.291506567474     1.007825032230
         H            0.809541838109     1.375388502089    -0.907097567474     1.007825032230
         H           -1.357052161891     1.325198502089     1.587367432526     1.007825032230
         H           -2.598883161891     2.025138502089     0.534777432526     1.007825032230
         H           -0.892500161891     2.412063502089     0.254891432526     1.007825032230
         H            2.903677838109     1.127174502089     1.115257432526     1.007825032230
         H            2.225531838109    -0.441629497911     1.602722432526     1.007825032230
         H            3.862568838109    -0.351913497911     0.924444432526     1.007825032230
         H           -2.033190161891    -1.344009497911     0.224383432526     1.007825032230

  Basis Set: AUG-CC-PVTZ
    Blend: AUG-CC-PVTZ
  Basis Set: (AUG-CC-PVTZ AUX)
    Blend: AUG-CC-PVTZ-JKFIT
	 Reference Energy          =    -400.0846863991233704 [Eh]
	 Singles Energy            =      -0.0000000000000000 [Eh]
	 Same-Spin Energy          =      -0.4024376301934670 [Eh]
	 Opposite-Spin Energy      =      -1.3080893023067621 [Eh]
	 Correlation Energy        =      -1.7105269325002290 [Eh]
	 Total Energy              =    -401.7952133316235859 [Eh]

	 ================> DF-SCS-MP2 Energies <==================
	-----------------------------------------------------------
	 SCS Same-Spin Scale       =       0.3333333333333333 [-]
	 SCS Opposite-Spin Scale   =       1.2000000000000000 [-]
	 SCS Same-Spin Energy      =      -0.1341458767311556 [Eh]
	 SCS Opposite-Spin Energy  =      -1.5697071627681145 [Eh]
	 SCS Correlation Energy    =      -1.7038530394992701 [Eh]
	 SCS Total Energy          =    -401.7885394386226494 [Eh]
	-----------------------------------------------------------

  Dipole Moment: [D]
     X:     3.1147      Y:     3.2149      Z:    -0.9639     Total:     4.5789

*** Psi4 exiting successfully. Buy a developer a beer!
