                               Psi4 1.3.2 release

  ==> Input File <==

--------------------------------------------------------------------------
#psi4
#
memory 32 gb

molecule  {
0 1
  O       -2.5211540    -0.5137840     0.0284240
  O       -0.0903380    -1.4616610     0.1717700
  N        0.9259230     0.4056680    -0.6455280
  C       -1.4802630     0.5064333    -0.0638025
  C        2.2711600    -0.1378510    -0.5222970
  C       -0.1583790    -0.2975740    -0.2472510
  C       -1.5844930     1.6236140     0.5658530
  C        2.8531060     0.0659690     0.8699860
  H       -1.6669500     0.7105100    -1.3901450
  H        2.2044940    -1.2028750    -0.7525030
  H        2.8934660     0.3357800    -1.2867330
  H        0.8101310     1.3771570    -0.9023240
  H       -1.3564630     1.3269670     1.5921410
  H       -2.5982940     2.0269070     0.5395510
  H       -0.8919110     2.4138320     0.2596650
  H        2.9042670     1.1289430     1.1200310
  H        2.2261210    -0.4398610     1.6074960
  H        3.8631580    -0.3501450     0.9292180
  H       -2.0326010    -1.3422410     0.2291570
units angstrom
no_reorient  #important for SAPT in psi4, default
symmetry c1  #important for SAPT in psi4, default
}

set PROPERTIES_ORIGIN ["COM"]
properties('MP2/aug-cc-pvtz', properties = ['dipole'])
--------------------------------------------------------------------------

    Molecular point group: c1
  Charge       = 0
  Multiplicity = 1
  Basis Set: AUG-CC-PVTZ
    Blend: AUG-CC-PVTZ
  Basis Set: (AUG-CC-PVTZ AUX)
    Blend: AUG-CC-PVTZ-JKFIT

    Orbital Energies [Eh]
    ---------------------

    Doubly Occupied:

       1A    -20.550665     2A    -20.534811     3A    -15.598136
       4A    -11.366921     5A    -11.315486     6A    -11.274075
       7A    -11.228390     8A    -11.225499     9A     -1.397048
      10A     -1.337291    11A     -1.246356    12A     -1.108617
      13A     -1.029127    14A     -0.902365    15A     -0.837425
      16A     -0.790778    17A     -0.737897    18A     -0.678601
      19A     -0.663578    20A     -0.644809    21A     -0.619288
      22A     -0.607513    23A     -0.599378    24A     -0.580401
      25A     -0.542664    26A     -0.531958    27A     -0.517090
      28A     -0.503989    29A     -0.501699    30A     -0.444399
      31A     -0.411217    32A     -0.383897

  @DF-RHF Final Energy:  -399.99043732742541

   => Energetics <=

    Nuclear Repulsion Energy =            401.7731723429163253
    One-Electron Energy =               -1342.1044845476492355
    Two-Electron Energy =                 540.3408748773075558
    Total Energy =                       -399.9904373274254112
  Basis Set: (AUG-CC-PVTZ AUX)
    Blend: AUG-CC-PVTZ-RI
    Molecular point group: c1

    Geometry (in Angstrom), charge = 0, multiplicity = 1:

       Center              X                  Y                   Z               Mass
    ------------   -----------------  -----------------  -----------------  -----------------
         O           -2.524689203991    -0.524395871951    -0.000217773650    15.994914619570
         O           -0.093873203991    -1.472272871951     0.143128226350    15.994914619570
         N            0.922387796009     0.395056128049    -0.674169773650    14.003074004430
         C           -1.483798203991     0.495821428049    -0.092444273650    12.000000000000
         C            2.267624796009    -0.148462871951    -0.550938773650    12.000000000000
         C           -0.161914203991    -0.308185871951    -0.275892773650    12.000000000000
         C           -1.588028203991     1.613002128049     0.537211226350    12.000000000000
         C            2.849570796009     0.055357128049     0.841344226350    12.000000000000
         H           -1.670485203991     0.699898128049    -1.418786773650     1.007825032230
         H            2.200958796009    -1.213486871951    -0.781144773650     1.007825032230
         H            2.889930796009     0.325168128049    -1.315374773650     1.007825032230
         H            0.806595796009     1.366545128049    -0.930965773650     1.007825032230
         H           -1.359998203991     1.316355128049     1.563499226350     1.007825032230
         H           -2.601829203991     2.016295128049     0.510909226350     1.007825032230
         H           -0.895446203991     2.403220128049     0.231023226350     1.007825032230
         H            2.900731796009     1.118331128049     1.091389226350     1.007825032230
         H            2.222585796009    -0.450472871951     1.578854226350     1.007825032230
         H            3.859622796009    -0.360756871951     0.900576226350     1.007825032230
         H           -2.036136203991    -1.352852871951     0.200515226350     1.007825032230

  Basis Set: AUG-CC-PVTZ
    Blend: AUG-CC-PVTZ
  Basis Set: (AUG-CC-PVTZ AUX)
    Blend: AUG-CC-PVTZ-JKFIT
	 Reference Energy          =    -399.9904373274254112 [Eh]
	 Singles Energy            =      -0.0000000000000000 [Eh]
	 Same-Spin Energy          =      -0.4063740242898928 [Eh]
	 Opposite-Spin Energy      =      -1.3151843601785582 [Eh]
	 Correlation Energy        =      -1.7215583844684510 [Eh]
	 Total Energy              =    -401.7119957118938487 [Eh]

	 ================> DF-SCS-MP2 Energies <==================
	-----------------------------------------------------------
	 SCS Same-Spin Scale       =       0.3333333333333333 [-]
	 SCS Opposite-Spin Scale   =       1.2000000000000000 [-]
	 SCS Same-Spin Energy      =      -0.1354580080966309 [Eh]
	 SCS Opposite-Spin Energy  =      -1.5782212322142699 [Eh]
	 SCS Correlation Energy    =      -1.7136792403109009 [Eh]
	 SCS Total Energy          =    -401.7041165677363210 [Eh]
	-----------------------------------------------------------

  Dipole Moment: [D]
     X:     3.1770      Y:     3.4438      Z:    -0.4295     Total:     4.7050

*** Psi4 exiting successfully. Buy a developer a beer!
