                               Psi4 1.3.2 release

  ==> Input File <==

--------------------------------------------------------------------------
#psi4
#
memory 32 gb

molecule  {
0 1
  O       -2.5211540    -0.5137840     0.0284240
  O       -0.0903380    -1.4616610     0.1717700
  N        0.9259230     0.4056680    -0.6455280
  C       -1.5147550     0.4028960    -0.3432490
  C        2.2711600    -0.1378510    -0.5222970
  C       -0.1583790    -0.2975740    -0.2472510
  C       -1.5844930     1.6236140     0.5658530
  C        2.8531060     0.0659690     0.8699860
  H       -1.6669500     0.7105100    -1.3901450
  H        2.2044940    -1.2028750    -0.7525030
  H        2.8934660     0.3357800    -1.2867330
  H        0.7972564     1.3292334    -1.0438781
  H       -1.3564630     1.3269670     1.5921410
  H       -2.5982940     2.0269070     0.5395510
  H       -0.8919110     2.4138320     0.2596650
  H        2.9042670     1.1289430     1.1200310
  H        2.2261210    -0.4398610     1.6074960
  H        3.8631580    -0.3501450     0.9292180
  H       -2.0326010    -1.3422410     0.2291570
units angstrom
no_reorient  #important for SAPT in psi4, default
symmetry c1  #important for SAPT in psi4, default
}

set PROPERTIES_ORIGIN ["COM"]
properties('MP2/aug-cc-pvtz', properties = ['dipole'])
--------------------------------------------------------------------------

    Molecular point group: c1
  Charge       = 0
  Multiplicity = 1
  Basis Set: AUG-CC-PVTZ
    Blend: AUG-CC-PVTZ
  Basis Set: (AUG-CC-PVTZ AUX)
    Blend: AUG-CC-PVTZ-JKFIT

    Orbital Energies [Eh]
    ---------------------

    Doubly Occupied:

       1A    -20.548384     2A    -20.533460     3A    -15.598971
       4A    -11.359189     5A    -11.298153     6A    -11.273831
       7A    -11.230143     8A    -11.223815     9A     -1.398354
      10A     -1.346618    11A     -1.245400    12A     -1.052408
      13A     -1.012501    14A     -0.902701    15A     -0.848462
      16A     -0.793758    17A     -0.743883    18A     -0.677541
      19A     -0.650297    20A     -0.642432    21A     -0.613142
      22A     -0.594908    23A     -0.575435    24A     -0.562057
      25A     -0.543986    26A     -0.534156    27A     -0.521110
      28A     -0.514619    29A     -0.501773    30A     -0.445842
      31A     -0.435937    32A     -0.403325

  @DF-RHF Final Energy:  -400.08745618869506

   => Energetics <=

    Nuclear Repulsion Energy =            400.3462758189768920
    One-Electron Energy =               -1339.6142807586766139
    Two-Electron Energy =                 539.1805487510046078
    Total Energy =                       -400.0874561886951142
  Basis Set: (AUG-CC-PVTZ AUX)
    Blend: AUG-CC-PVTZ-RI
    Molecular point group: c1

    Geometry (in Angstrom), charge = 0, multiplicity = 1:

       Center              X                  Y                   Z               Mass
    ------------   -----------------  -----------------  -----------------  -----------------
         O           -2.521043123804    -0.513371295044     0.029642580508    15.994914619570
         O           -0.090227123804    -1.461248295044     0.172988580508    15.994914619570
         N            0.926033876196     0.406080704956    -0.644309419492    14.003074004430
         C           -1.514644123804     0.403308704956    -0.342030419492    12.000000000000
         C            2.271270876196    -0.137438295044    -0.521078419492    12.000000000000
         C           -0.158268123804    -0.297161295044    -0.246032419492    12.000000000000
         C           -1.584382123804     1.624026704956     0.567071580508    12.000000000000
         C            2.853216876196     0.066381704956     0.871204580508    12.000000000000
         H           -1.666839123804     0.710922704956    -1.388926419492     1.007825032230
         H            2.204604876196    -1.202462295044    -0.751284419492     1.007825032230
         H            2.893576876196     0.336192704956    -1.285514419492     1.007825032230
         H            0.797367276196     1.329646104956    -1.042659519492     1.007825032230
         H           -1.356352123804     1.327379704956     1.593359580508     1.007825032230
         H           -2.598183123804     2.027319704956     0.540769580508     1.007825032230
         H           -0.891800123804     2.414244704956     0.260883580508     1.007825032230
         H            2.904377876196     1.129355704956     1.121249580508     1.007825032230
         H            2.226231876196    -0.439448295044     1.608714580508     1.007825032230
         H            3.863268876196    -0.349732295044     0.930436580508     1.007825032230
         H           -2.032490123804    -1.341828295044     0.230375580508     1.007825032230

  Basis Set: AUG-CC-PVTZ
    Blend: AUG-CC-PVTZ
  Basis Set: (AUG-CC-PVTZ AUX)
    Blend: AUG-CC-PVTZ-JKFIT
	 Reference Energy          =    -400.0874561886950573 [Eh]
	 Singles Energy            =      -0.0000000000000000 [Eh]
	 Same-Spin Energy          =      -0.4021224560822376 [Eh]
	 Opposite-Spin Energy      =      -1.3077024099986494 [Eh]
	 Correlation Energy        =      -1.7098248660808870 [Eh]
	 Total Energy              =    -401.7972810547759650 [Eh]

	 ================> DF-SCS-MP2 Energies <==================
	-----------------------------------------------------------
	 SCS Same-Spin Scale       =       0.3333333333333333 [-]
	 SCS Opposite-Spin Scale   =       1.2000000000000000 [-]
	 SCS Same-Spin Energy      =      -0.1340408186940792 [Eh]
	 SCS Opposite-Spin Energy  =      -1.5692428919983792 [Eh]
	 SCS Correlation Energy    =      -1.7032837106924583 [Eh]
	 SCS Total Energy          =    -401.7907398993875177 [Eh]
	-----------------------------------------------------------

  Dipole Moment: [D]
     X:     3.0946      Y:     3.1308      Z:    -1.2369     Total:     4.5725

*** Psi4 exiting successfully. Buy a developer a beer!
