                               Psi4 1.3.2 release

  ==> Input File <==

--------------------------------------------------------------------------
#psi4
#
memory 32 gb

molecule  {
0 1
  O       -2.5211540    -0.5137840     0.0284240
  O       -0.0903380    -1.4616610     0.1717700
  N        0.9259230     0.4056680    -0.6455280
  C       -1.5147550     0.4028960    -0.3432490
  C        2.2711600    -0.1378510    -0.5222970
  C       -0.1583790    -0.2975740    -0.2472510
  C       -1.5844930     1.6236140     0.5658530
  C        2.8531060     0.0659690     0.8699860
  H       -1.6669500     0.7105100    -1.3901450
  H        2.2044940    -1.2028750    -0.7525030
  H        2.8934660     0.3357800    -1.2867330
  H        0.7886733     1.2972844    -1.1382476
  H       -1.3564630     1.3269670     1.5921410
  H       -2.5982940     2.0269070     0.5395510
  H       -0.8919110     2.4138320     0.2596650
  H        2.9042670     1.1289430     1.1200310
  H        2.2261210    -0.4398610     1.6074960
  H        3.8631580    -0.3501450     0.9292180
  H       -2.0326010    -1.3422410     0.2291570
units angstrom
no_reorient  #important for SAPT in psi4, default
symmetry c1  #important for SAPT in psi4, default
}

set PROPERTIES_ORIGIN ["COM"]
properties('MP2/aug-cc-pvtz', properties = ['dipole'])
--------------------------------------------------------------------------

    Molecular point group: c1
  Charge       = 0
  Multiplicity = 1
  Basis Set: AUG-CC-PVTZ
    Blend: AUG-CC-PVTZ
  Basis Set: (AUG-CC-PVTZ AUX)
    Blend: AUG-CC-PVTZ-JKFIT

    Orbital Energies [Eh]
    ---------------------

    Doubly Occupied:

       1A    -20.548334     2A    -20.533898     3A    -15.599966
       4A    -11.359250     5A    -11.298114     6A    -11.273697
       7A    -11.229289     8A    -11.223509     9A     -1.398460
      10A     -1.346608    11A     -1.243897    12A     -1.051987
      13A     -1.011981    14A     -0.902406    15A     -0.847691
      16A     -0.790040    17A     -0.743629    18A     -0.677755
      19A     -0.650720    20A     -0.642538    21A     -0.614267
      22A     -0.591484    23A     -0.575112    24A     -0.561176
      25A     -0.543949    26A     -0.533616    27A     -0.521177
      28A     -0.514183    29A     -0.501132    30A     -0.445707
      31A     -0.435991    32A     -0.403416

  @DF-RHF Final Energy:  -400.08626429526487

   => Energetics <=

    Nuclear Repulsion Energy =            400.2251738391933031
    One-Electron Energy =               -1339.3929215895188918
    Two-Electron Energy =                 539.0814834550607202
    Total Energy =                       -400.0862642952648685
  Basis Set: (AUG-CC-PVTZ AUX)
    Blend: AUG-CC-PVTZ-RI
    Molecular point group: c1

    Geometry (in Angstrom), charge = 0, multiplicity = 1:

       Center              X                  Y                   Z               Mass
    ------------   -----------------  -----------------  -----------------  -----------------
         O           -2.520969239806    -0.513096275546     0.030454920567    15.994914619570
         O           -0.090153239806    -1.460973275546     0.173800920567    15.994914619570
         N            0.926107760194     0.406355724454    -0.643497079433    14.003074004430
         C           -1.514570239806     0.403583724454    -0.341218079433    12.000000000000
         C            2.271344760194    -0.137163275546    -0.520266079433    12.000000000000
         C           -0.158194239806    -0.296886275546    -0.245220079433    12.000000000000
         C           -1.584308239806     1.624301724454     0.567883920567    12.000000000000
         C            2.853290760194     0.066656724454     0.872016920567    12.000000000000
         H           -1.666765239806     0.711197724454    -1.388114079433     1.007825032230
         H            2.204678760194    -1.202187275546    -0.750472079433     1.007825032230
         H            2.893650760194     0.336467724454    -1.284702079433     1.007825032230
         H            0.788858060194     1.297972124454    -1.136216679433     1.007825032230
         H           -1.356278239806     1.327654724454     1.594171920567     1.007825032230
         H           -2.598109239806     2.027594724454     0.541581920567     1.007825032230
         H           -0.891726239806     2.414519724454     0.261695920567     1.007825032230
         H            2.904451760194     1.129630724454     1.122061920567     1.007825032230
         H            2.226305760194    -0.439173275546     1.609526920567     1.007825032230
         H            3.863342760194    -0.349457275546     0.931248920567     1.007825032230
         H           -2.032416239806    -1.341553275546     0.231187920567     1.007825032230

  Basis Set: AUG-CC-PVTZ
    Blend: AUG-CC-PVTZ
  Basis Set: (AUG-CC-PVTZ AUX)
    Blend: AUG-CC-PVTZ-JKFIT
	 Reference Energy          =    -400.0862642952648685 [Eh]
	 Singles Energy            =      -0.0000000000000000 [Eh]
	 Same-Spin Energy          =      -0.4022139688547209 [Eh]
	 Opposite-Spin Energy      =      -1.3079898985966163 [Eh]
	 Correlation Energy        =      -1.7102038674513371 [Eh]
	 Total Energy              =    -401.7964681627162236 [Eh]

	 ================> DF-SCS-MP2 Energies <==================
	-----------------------------------------------------------
	 SCS Same-Spin Scale       =       0.3333333333333333 [-]
	 SCS Opposite-Spin Scale   =       1.2000000000000000 [-]
	 SCS Same-Spin Energy      =      -0.1340713229515736 [Eh]
	 SCS Opposite-Spin Energy  =      -1.5695878783159396 [Eh]
	 SCS Correlation Energy    =      -1.7036592012675131 [Eh]
	 SCS Total Energy          =    -401.7899234965323672 [Eh]
	-----------------------------------------------------------

  Dipole Moment: [D]
     X:     3.0868      Y:     3.0850      Z:    -1.3579     Total:     4.5705

*** Psi4 exiting successfully. Buy a developer a beer!
