                               Psi4 1.3.2 release

  ==> Input File <==

--------------------------------------------------------------------------
#psi4
#
memory 32 gb

molecule  {
0 1
  O       -2.5211540    -0.5137840     0.0284240
  O       -0.0903380    -1.4616610     0.1717700
  N        0.9259230     0.4056680    -0.6455280
  C       -1.5032577     0.4374084    -0.2501002
  C        2.2711600    -0.1378510    -0.5222970
  C       -0.1583790    -0.2975740    -0.2472510
  C       -1.5844930     1.6236140     0.5658530
  C        2.8531060     0.0659690     0.8699860
  H       -1.6669500     0.7105100    -1.3901450
  H        2.2044940    -1.2028750    -0.7525030
  H        2.8934660     0.3357800    -1.2867330
  H        0.8101310     1.3771570    -0.9023240
  H       -1.3564630     1.3269670     1.5921410
  H       -2.5982940     2.0269070     0.5395510
  H       -0.8919110     2.4138320     0.2596650
  H        2.9042670     1.1289430     1.1200310
  H        2.2261210    -0.4398610     1.6074960
  H        3.8631580    -0.3501450     0.9292180
  H       -2.0326010    -1.3422410     0.2291570
units angstrom
no_reorient  #important for SAPT in psi4, default
symmetry c1  #important for SAPT in psi4, default
}

set PROPERTIES_ORIGIN ["COM"]
properties('MP2/aug-cc-pvtz', properties = ['dipole'])
--------------------------------------------------------------------------

    Molecular point group: c1
  Charge       = 0
  Multiplicity = 1
  Basis Set: AUG-CC-PVTZ
    Blend: AUG-CC-PVTZ
  Basis Set: (AUG-CC-PVTZ AUX)
    Blend: AUG-CC-PVTZ-JKFIT

    Orbital Energies [Eh]
    ---------------------

    Doubly Occupied:

       1A    -20.548537     2A    -20.533819     3A    -15.598715
       4A    -11.360288     5A    -11.302168     6A    -11.273886
       7A    -11.229897     8A    -11.224751     9A     -1.398203
      10A     -1.344782    11A     -1.246141    12A     -1.063944
      13A     -1.020937    14A     -0.903367    15A     -0.845186
      16A     -0.793013    17A     -0.741466    18A     -0.675322
      19A     -0.647585    20A     -0.645642    21A     -0.612176
      22A     -0.600440    23A     -0.586511    24A     -0.568336
      25A     -0.542553    26A     -0.530290    27A     -0.522888
      28A     -0.511763    29A     -0.503282    30A     -0.448016
      31A     -0.429822    32A     -0.402478

  @DF-RHF Final Energy:  -400.07648620773142

   => Energetics <=

    Nuclear Repulsion Energy =            400.9742056031407742
    One-Electron Energy =               -1340.7889723260004757
    Two-Electron Energy =                 539.7382805151282810
    Total Energy =                       -400.0764862077314774
  Basis Set: (AUG-CC-PVTZ AUX)
    Blend: AUG-CC-PVTZ-RI
    Molecular point group: c1

    Geometry (in Angstrom), charge = 0, multiplicity = 1:

       Center              X                  Y                   Z               Mass
    ------------   -----------------  -----------------  -----------------  -----------------
         O           -2.522332364161    -0.517321170669     0.018876793340    15.994914619570
         O           -0.091516364161    -1.465198170669     0.162222793340    15.994914619570
         N            0.924744635839     0.402130829331    -0.655075206660    14.003074004430
         C           -1.504436064161     0.433871229331    -0.259647406660    12.000000000000
         C            2.269981635839    -0.141388170669    -0.531844206660    12.000000000000
         C           -0.159557364161    -0.301111170669    -0.256798206660    12.000000000000
         C           -1.585671364161     1.620076829331     0.556305793340    12.000000000000
         C            2.851927635839     0.062431829331     0.860438793340    12.000000000000
         H           -1.668128364161     0.706972829331    -1.399692206660     1.007825032230
         H            2.203315635839    -1.206412170669    -0.762050206660     1.007825032230
         H            2.892287635839     0.332242829331    -1.296280206660     1.007825032230
         H            0.808952635839     1.373619829331    -0.911871206660     1.007825032230
         H           -1.357641364161     1.323429829331     1.582593793340     1.007825032230
         H           -2.599472364161     2.023369829331     0.530003793340     1.007825032230
         H           -0.893089364161     2.410294829331     0.250117793340     1.007825032230
         H            2.903088635839     1.125405829331     1.110483793340     1.007825032230
         H            2.224942635839    -0.443398170669     1.597948793340     1.007825032230
         H            3.861979635839    -0.353682170669     0.919670793340     1.007825032230
         H           -2.033779364161    -1.345778170669     0.219609793340     1.007825032230

  Basis Set: AUG-CC-PVTZ
    Blend: AUG-CC-PVTZ
  Basis Set: (AUG-CC-PVTZ AUX)
    Blend: AUG-CC-PVTZ-JKFIT
	 Reference Energy          =    -400.0764862077314206 [Eh]
	 Singles Energy            =      -0.0000000000000000 [Eh]
	 Same-Spin Energy          =      -0.4029065688503172 [Eh]
	 Opposite-Spin Energy      =      -1.3088676535809554 [Eh]
	 Correlation Energy        =      -1.7117742224312726 [Eh]
	 Total Energy              =    -401.7882604301626657 [Eh]

	 ================> DF-SCS-MP2 Energies <==================
	-----------------------------------------------------------
	 SCS Same-Spin Scale       =       0.3333333333333333 [-]
	 SCS Opposite-Spin Scale   =       1.2000000000000000 [-]
	 SCS Same-Spin Energy      =      -0.1343021896167724 [Eh]
	 SCS Opposite-Spin Energy  =      -1.5706411842971464 [Eh]
	 SCS Correlation Energy    =      -1.7049433739139188 [Eh]
	 SCS Total Energy          =    -401.7814295816453409 [Eh]
	-----------------------------------------------------------

  Dipole Moment: [D]
     X:     3.1309      Y:     3.2557      Z:    -0.8762     Total:     4.6011

*** Psi4 exiting successfully. Buy a developer a beer!
