                               Psi4 1.3.2 release

  ==> Input File <==

--------------------------------------------------------------------------
#psi4
#
memory 32 gb

molecule  {
0 1
  O       -2.5211540    -0.5137840     0.0284240
  O       -0.0903380    -1.4616610     0.1717700
  N        0.9259230     0.4056680    -0.6455280
  C       -1.5147550     0.4028960    -0.3432490
  C        2.2711600    -0.1378510    -0.5222970
  C       -0.1583790    -0.2975740    -0.2472510
  C       -1.5844930     1.6236140     0.5658530
  C        2.8531060     0.0659690     0.8699860
  H       -1.6669500     0.7105100    -1.3901450
  H        2.2044940    -1.2028750    -0.7525030
  H        2.8934660     0.3357800    -1.2867330
  H        0.7843817     1.2813099    -1.1854323
  H       -1.3564630     1.3269670     1.5921410
  H       -2.5982940     2.0269070     0.5395510
  H       -0.8919110     2.4138320     0.2596650
  H        2.9042670     1.1289430     1.1200310
  H        2.2261210    -0.4398610     1.6074960
  H        3.8631580    -0.3501450     0.9292180
  H       -2.0326010    -1.3422410     0.2291570
units angstrom
no_reorient  #important for SAPT in psi4, default
symmetry c1  #important for SAPT in psi4, default
}

set PROPERTIES_ORIGIN ["COM"]
properties('MP2/aug-cc-pvtz', properties = ['dipole'])
--------------------------------------------------------------------------

    Molecular point group: c1
  Charge       = 0
  Multiplicity = 1
  Basis Set: AUG-CC-PVTZ
    Blend: AUG-CC-PVTZ
  Basis Set: (AUG-CC-PVTZ AUX)
    Blend: AUG-CC-PVTZ-JKFIT

    Orbital Energies [Eh]
    ---------------------

    Doubly Occupied:

       1A    -20.548316     2A    -20.534239     3A    -15.600686
       4A    -11.359298     5A    -11.298091     6A    -11.273578
       7A    -11.228866     8A    -11.223374     9A     -1.398561
      10A     -1.346622    11A     -1.242852    12A     -1.051762
      13A     -1.011651    14A     -0.902235    15A     -0.847313
      16A     -0.787251    17A     -0.743466    18A     -0.677850
      19A     -0.650832    20A     -0.642586    21A     -0.614741
      22A     -0.589726    23A     -0.574901    24A     -0.560733
      25A     -0.543920    26A     -0.533344    27A     -0.521198
      28A     -0.513935    29A     -0.500778    30A     -0.445643
      31A     -0.436069    32A     -0.403513

  @DF-RHF Final Energy:  -400.08521085740551

   => Energetics <=

    Nuclear Repulsion Energy =            400.1485515333798162
    One-Electron Energy =               -1339.2516670640743541
    Two-Electron Energy =                 539.0179046732890811
    Total Energy =                       -400.0852108574055137
  Basis Set: (AUG-CC-PVTZ AUX)
    Blend: AUG-CC-PVTZ-RI
    Molecular point group: c1

    Geometry (in Angstrom), charge = 0, multiplicity = 1:

       Center              X                  Y                   Z               Mass
    ------------   -----------------  -----------------  -----------------  -----------------
         O           -2.520932297377    -0.512958765797     0.030861090166    15.994914619570
         O           -0.090116297377    -1.460835765797     0.174207090166    15.994914619570
         N            0.926144702623     0.406493234203    -0.643090909834    14.003074004430
         C           -1.514533297377     0.403721234203    -0.340811909834    12.000000000000
         C            2.271381702623    -0.137025765797    -0.519859909834    12.000000000000
         C           -0.158157297377    -0.296748765797    -0.244813909834    12.000000000000
         C           -1.584271297377     1.624439234203     0.568290090166    12.000000000000
         C            2.853327702623     0.066794234203     0.872423090166    12.000000000000
         H           -1.666728297377     0.711335234203    -1.387707909834     1.007825032230
         H            2.204715702623    -1.202049765797    -0.750065909834     1.007825032230
         H            2.893687702623     0.336605234203    -1.284295909834     1.007825032230
         H            0.784603402623     1.282135134203    -1.182995209834     1.007825032230
         H           -1.356241297377     1.327792234203     1.594578090166     1.007825032230
         H           -2.598072297377     2.027732234203     0.541988090166     1.007825032230
         H           -0.891689297377     2.414657234203     0.262102090166     1.007825032230
         H            2.904488702623     1.129768234203     1.122468090166     1.007825032230
         H            2.226342702623    -0.439035765797     1.609933090166     1.007825032230
         H            3.863379702623    -0.349319765797     0.931655090166     1.007825032230
         H           -2.032379297377    -1.341415765797     0.231594090166     1.007825032230

  Basis Set: AUG-CC-PVTZ
    Blend: AUG-CC-PVTZ
  Basis Set: (AUG-CC-PVTZ AUX)
    Blend: AUG-CC-PVTZ-JKFIT
	 Reference Energy          =    -400.0852108574055137 [Eh]
	 Singles Energy            =      -0.0000000000000000 [Eh]
	 Same-Spin Energy          =      -0.4022842975962379 [Eh]
	 Opposite-Spin Energy      =      -1.3082049848716486 [Eh]
	 Correlation Energy        =      -1.7104892824678866 [Eh]
	 Total Energy              =    -401.7957001398734178 [Eh]

	 ================> DF-SCS-MP2 Energies <==================
	-----------------------------------------------------------
	 SCS Same-Spin Scale       =       0.3333333333333333 [-]
	 SCS Opposite-Spin Scale   =       1.2000000000000000 [-]
	 SCS Same-Spin Energy      =      -0.1340947658654126 [Eh]
	 SCS Opposite-Spin Energy  =      -1.5698459818459782 [Eh]
	 SCS Correlation Energy    =      -1.7039407477113908 [Eh]
	 SCS Total Energy          =    -401.7891516051168992 [Eh]
	-----------------------------------------------------------

  Dipole Moment: [D]
     X:     3.0814      Y:     3.0575      Z:    -1.4155     Total:     4.5659

*** Psi4 exiting successfully. Buy a developer a beer!
