                               Psi4 1.3.2 release

  ==> Input File <==

--------------------------------------------------------------------------
#psi4
#
memory 32 gb

molecule  {
0 1
  O       -2.5211540    -0.5137840     0.0284240
  O       -0.0903380    -1.4616610     0.1717700
  N        0.9259230     0.4056680    -0.6455280
  C       -1.4975090     0.4546646    -0.2035258
  C        2.2711600    -0.1378510    -0.5222970
  C       -0.1583790    -0.2975740    -0.2472510
  C       -1.5844930     1.6236140     0.5658530
  C        2.8531060     0.0659690     0.8699860
  H       -1.6669500     0.7105100    -1.3901450
  H        2.2044940    -1.2028750    -0.7525030
  H        2.8934660     0.3357800    -1.2867330
  H        0.8101310     1.3771570    -0.9023240
  H       -1.3564630     1.3269670     1.5921410
  H       -2.5982940     2.0269070     0.5395510
  H       -0.8919110     2.4138320     0.2596650
  H        2.9042670     1.1289430     1.1200310
  H        2.2261210    -0.4398610     1.6074960
  H        3.8631580    -0.3501450     0.9292180
  H       -2.0326010    -1.3422410     0.2291570
units angstrom
no_reorient  #important for SAPT in psi4, default
symmetry c1  #important for SAPT in psi4, default
}

set PROPERTIES_ORIGIN ["COM"]
properties('MP2/aug-cc-pvtz', properties = ['dipole'])
--------------------------------------------------------------------------

    Molecular point group: c1
  Charge       = 0
  Multiplicity = 1
  Basis Set: AUG-CC-PVTZ
    Blend: AUG-CC-PVTZ
  Basis Set: (AUG-CC-PVTZ AUX)
    Blend: AUG-CC-PVTZ-JKFIT

    Orbital Energies [Eh]
    ---------------------

    Doubly Occupied:

       1A    -20.548843     2A    -20.534035     3A    -15.598651
       4A    -11.361410     5A    -11.304862     6A    -11.273947
       7A    -11.229243     8A    -11.224943     9A     -1.397971
      10A     -1.343334    11A     -1.246219    12A     -1.072297
      13A     -1.023983    14A     -0.903351    15A     -0.843219
      16A     -0.792441    17A     -0.740271    18A     -0.675116
      19A     -0.650912    20A     -0.644531    21A     -0.613118
      22A     -0.601309    23A     -0.591819    24A     -0.571101
      25A     -0.542181    26A     -0.529988    27A     -0.522420
      28A     -0.509392    29A     -0.503398    30A     -0.447790
      31A     -0.424526    32A     -0.401129

  @DF-RHF Final Energy:  -400.06310407164807

   => Energetics <=

    Nuclear Repulsion Energy =            401.2053939132696883
    One-Electron Energy =               -1341.2015007460347533
    Two-Electron Energy =                 539.9330027611168816
    Total Energy =                       -400.0631040716481266
  Basis Set: (AUG-CC-PVTZ AUX)
    Blend: AUG-CC-PVTZ-RI
    Molecular point group: c1

    Geometry (in Angstrom), charge = 0, multiplicity = 1:

       Center              X                  Y                   Z               Mass
    ------------   -----------------  -----------------  -----------------  -----------------
         O           -2.522921576681    -0.519089843427     0.014103154155    15.994914619570
         O           -0.092105576681    -1.466966843427     0.157449154155    15.994914619570
         N            0.924155423319     0.400362156573    -0.659848845845    14.003074004430
         C           -1.499276576681     0.449358756573    -0.217846645845    12.000000000000
         C            2.269392423319    -0.143156843427    -0.536617845845    12.000000000000
         C           -0.160146576681    -0.302879843427    -0.261571845845    12.000000000000
         C           -1.586260576681     1.618308156573     0.551532154155    12.000000000000
         C            2.851338423319     0.060663156573     0.855665154155    12.000000000000
         H           -1.668717576681     0.705204156573    -1.404465845845     1.007825032230
         H            2.202726423319    -1.208180843427    -0.766823845845     1.007825032230
         H            2.891698423319     0.330474156573    -1.301053845845     1.007825032230
         H            0.808363423319     1.371851156573    -0.916644845845     1.007825032230
         H           -1.358230576681     1.321661156573     1.577820154155     1.007825032230
         H           -2.600061576681     2.021601156573     0.525230154155     1.007825032230
         H           -0.893678576681     2.408526156573     0.245344154155     1.007825032230
         H            2.902499423319     1.123637156573     1.105710154155     1.007825032230
         H            2.224353423319    -0.445166843427     1.593175154155     1.007825032230
         H            3.861390423319    -0.355450843427     0.914897154155     1.007825032230
         H           -2.034368576681    -1.347546843427     0.214836154155     1.007825032230

  Basis Set: AUG-CC-PVTZ
    Blend: AUG-CC-PVTZ
  Basis Set: (AUG-CC-PVTZ AUX)
    Blend: AUG-CC-PVTZ-JKFIT
	 Reference Energy          =    -400.0631040716480697 [Eh]
	 Singles Energy            =      -0.0000000000000000 [Eh]
	 Same-Spin Energy          =      -0.4035295186317654 [Eh]
	 Opposite-Spin Energy      =      -1.3099722022349003 [Eh]
	 Correlation Energy        =      -1.7135017208666659 [Eh]
	 Total Energy              =    -401.7766057925147152 [Eh]

	 ================> DF-SCS-MP2 Energies <==================
	-----------------------------------------------------------
	 SCS Same-Spin Scale       =       0.3333333333333333 [-]
	 SCS Opposite-Spin Scale   =       1.2000000000000000 [-]
	 SCS Same-Spin Energy      =      -0.1345098395439218 [Eh]
	 SCS Opposite-Spin Energy  =      -1.5719666426818804 [Eh]
	 SCS Correlation Energy    =      -1.7064764822258023 [Eh]
	 SCS Total Energy          =    -401.7695805538738796 [Eh]
	-----------------------------------------------------------

  Dipole Moment: [D]
     X:     3.1451      Y:     3.2979      Z:    -0.7804     Total:     4.6235

*** Psi4 exiting successfully. Buy a developer a beer!
