                               Psi4 1.3.2 release

  ==> Input File <==

--------------------------------------------------------------------------
#psi4
#
memory 32 gb

molecule  {
0 1
  C        0.2607240     1.2023270    -0.0000750
  C       -1.1358940     1.2178730     0.0000410
  C       -1.8563260     0.0234010    -0.0000200
  C       -1.1685880    -1.1938670     0.0000370
  C        0.2242660    -1.2218040    -0.0000490
  C        0.9354461    -0.1637347    -0.0000344
  O        2.3096620    -0.1122440    -0.0000150
  H        0.8193600     2.1376290    -0.0000120
  H       -1.6578230     2.1717680    -0.0000430
  H       -2.9427200     0.0394300     0.0001070
  H       -1.7202150    -2.1309040    -0.0000080
  H        0.7759750    -2.1575980     0.0000070
  H        2.6774850     0.7888930     0.0003320
units angstrom
no_reorient  #important for SAPT in psi4, default
symmetry c1  #important for SAPT in psi4, default
}

set PROPERTIES_ORIGIN ["COM"]
properties('MP2/aug-cc-pvtz', properties = ['dipole'])
--------------------------------------------------------------------------

    Molecular point group: c1
  Charge       = 0
  Multiplicity = 1
  Basis Set: AUG-CC-PVTZ
    Blend: AUG-CC-PVTZ
  Basis Set: (AUG-CC-PVTZ AUX)
    Blend: AUG-CC-PVTZ-JKFIT

    Orbital Energies [Eh]
    ---------------------

    Doubly Occupied:

       1A    -20.587922     2A    -11.303662     3A    -11.248530
       4A    -11.246039     5A    -11.244133     6A    -11.231318
       7A    -11.215539     8A     -1.395730     9A     -1.151072
      10A     -1.036703    11A     -0.995240    12A     -0.852718
      13A     -0.810886    14A     -0.739050    15A     -0.683101
      16A     -0.655602    17A     -0.620230    18A     -0.588617
      19A     -0.587892    20A     -0.561061    21A     -0.523029
      22A     -0.484037    23A     -0.476185    24A     -0.353465
      25A     -0.313348

  @DF-RHF Final Energy:  -305.64433057929165

   => Energetics <=

    Nuclear Repulsion Energy =            270.7508818116415341
    One-Electron Energy =                -950.9802086580607465
    Two-Electron Energy =                 374.5849962671275648
    Total Energy =                       -305.6443305792916476
  Basis Set: (AUG-CC-PVTZ AUX)
    Blend: AUG-CC-PVTZ-RI
    Molecular point group: c1

    Geometry (in Angstrom), charge = 0, multiplicity = 1:

       Center              X                  Y                   Z               Mass
    ------------   -----------------  -----------------  -----------------  -----------------
         C            0.239516205863     1.229645965266    -0.000063741964    12.000000000000
         C           -1.157101794137     1.245191965266     0.000052258036    12.000000000000
         C           -1.877533794137     0.050719965266    -0.000008741964    12.000000000000
         C           -1.189795794137    -1.166548034734     0.000048258036    12.000000000000
         C            0.203058205863    -1.194485034734    -0.000037741964    12.000000000000
         C            0.914238305863    -0.136415734734    -0.000023141964    12.000000000000
         O            2.288454205863    -0.084925034734    -0.000003741964    15.994914619570
         H            0.798152205863     2.164947965266    -0.000000741964     1.007825032230
         H           -1.679030794137     2.199086965266    -0.000031741964     1.007825032230
         H           -2.963927794137     0.066748965266     0.000118258036     1.007825032230
         H           -1.741422794137    -2.103585034734     0.000003258036     1.007825032230
         H            0.754767205863    -2.130279034734     0.000018258036     1.007825032230
         H            2.656277205863     0.816211965266     0.000343258036     1.007825032230

  Basis Set: AUG-CC-PVTZ
    Blend: AUG-CC-PVTZ
  Basis Set: (AUG-CC-PVTZ AUX)
    Blend: AUG-CC-PVTZ-JKFIT
	 Reference Energy          =    -305.6443305792916476 [Eh]
	 Singles Energy            =      -0.0000000000000000 [Eh]
	 Same-Spin Energy          =      -0.3246294064942430 [Eh]
	 Opposite-Spin Energy      =      -1.0072172635417305 [Eh]
	 Correlation Energy        =      -1.3318466700359735 [Eh]
	 Total Energy              =    -306.9761772493276339 [Eh]

	 ================> DF-SCS-MP2 Energies <==================
	-----------------------------------------------------------
	 SCS Same-Spin Scale       =       0.3333333333333333 [-]
	 SCS Opposite-Spin Scale   =       1.2000000000000000 [-]
	 SCS Same-Spin Energy      =      -0.1082098021647477 [Eh]
	 SCS Opposite-Spin Energy  =      -1.2086607162500764 [Eh]
	 SCS Correlation Energy    =      -1.3168705184148242 [Eh]
	 SCS Total Energy          =    -306.9612010977064642 [Eh]
	-----------------------------------------------------------

  Dipole Moment: [D]
     X:    -0.1574      Y:     1.2505      Z:     0.0006     Total:     1.2603

*** Psi4 exiting successfully. Buy a developer a beer!
