                               Psi4 1.4a3.dev225

  ==> Input File <==

--------------------------------------------------------------------------
#psi4
#
memory 32 gb

molecule  {
0 1
  C        0.2606960     1.2022910    -0.0000270
  C       -1.1358900     1.2179210     0.0000200
  C       -1.8563270     0.0234090    -0.0000150
  C       -1.1686000    -1.1938320     0.0000190
  C        0.2243100    -1.2218560    -0.0000260
  C        0.9375760    -0.0198920     0.0000150
  O        2.3296519    -0.1135201     0.0000089
  H        0.8194350     2.1375370     0.0000180
  H       -1.6578250     2.1718150    -0.0000190
  H       -2.9427270     0.0394130     0.0000350
  H       -1.7202280    -2.1308750    -0.0000170
  H        0.7758460    -2.1577480     0.0000080
  H        2.6773420     0.7890330    -0.0000190
units angstrom
no_reorient  #important for SAPT in psi4, default
symmetry c1  #important for SAPT in psi4, default
}

set PROPERTIES_ORIGIN ["COM"]
properties('MP2/aug-cc-pvtz', properties = ['dipole'])
--------------------------------------------------------------------------

    Molecular point group: c1
  Charge       = 0
  Multiplicity = 1
  Basis Set: AUG-CC-PVTZ
    Blend: AUG-CC-PVTZ
  Basis Set: (AUG-CC-PVTZ AUX)
    Blend: AUG-CC-PVTZ-JKFIT

    Orbital Energies [Eh]
    ---------------------

    Doubly Occupied:

       1A    -20.592177     2A    -11.307359     3A    -11.246331
       4A    -11.244201     5A    -11.239364     6A    -11.232726
       7A    -11.231774     8A     -1.395150     9A     -1.148592
      10A     -1.021514    11A     -1.006207    12A     -0.845695
      13A     -0.822103    14A     -0.728258    15A     -0.685230
      16A     -0.650990    17A     -0.609945    18A     -0.593131
      19A     -0.585099    20A     -0.571086    21A     -0.517523
      22A     -0.497030    23A     -0.485121    24A     -0.344571
      25A     -0.319424

  @DF-RHF Final Energy:  -305.66942955187261

   => Energetics <=

    Nuclear Repulsion Energy =            270.1120881913389553
    One-Electron Energy =                -949.7218363396059431
    Two-Electron Energy =                 373.9403185963944338
    Total Energy =                       -305.6694295518726108
  Basis Set: (AUG-CC-PVTZ AUX)
    Blend: AUG-CC-PVTZ-RI
    Molecular point group: c1

    Geometry (in Angstrom), charge = 0, multiplicity = 1:

       Center              X                  Y                   Z               Mass
    ------------   -----------------  -----------------  -----------------  -----------------
         C            0.235817938044     1.211472362865    -0.000026791600    12.000000000000
         C           -1.160768061956     1.227102362865     0.000020208400    12.000000000000
         C           -1.881205061956     0.032590362865    -0.000014791600    12.000000000000
         C           -1.193478061956    -1.184650637135     0.000019208400    12.000000000000
         C            0.199431938044    -1.212674637135    -0.000025791600    12.000000000000
         C            0.912697938044    -0.010710637135     0.000015208400    12.000000000000
         O            2.304773838044    -0.104338737135     0.000009108400    15.994914619570
         H            0.794556938044     2.146718362865     0.000018208400     1.007825032230
         H           -1.682703061956     2.180996362865    -0.000018791600     1.007825032230
         H           -2.967605061956     0.048594362865     0.000035208400     1.007825032230
         H           -1.745106061956    -2.121693637135    -0.000016791600     1.007825032230
         H            0.750967938044    -2.148566637135     0.000008208400     1.007825032230
         H            2.652463938044     0.798214362865    -0.000018791600     1.007825032230

  Basis Set: AUG-CC-PVTZ
    Blend: AUG-CC-PVTZ
  Basis Set: (AUG-CC-PVTZ AUX)
    Blend: AUG-CC-PVTZ-JKFIT
	 Reference Energy          =    -305.6694295518726108 [Eh]
	 Singles Energy            =      -0.0000000000000000 [Eh]
	 Same-Spin Energy          =      -0.3254283320341557 [Eh]
	 Opposite-Spin Energy      =      -1.0072744622230463 [Eh]
	 Correlation Energy        =      -1.3327027942572021 [Eh]
	 Total Energy              =    -307.0021323461298266 [Eh]

	 ================> DF-SCS-MP2 Energies <==================
	-----------------------------------------------------------
	 SCS Same-Spin Scale       =       0.3333333333333333 [-]
	 SCS Opposite-Spin Scale   =       1.2000000000000000 [-]
	 SCS Same-Spin Energy      =      -0.1084761106780519 [Eh]
	 SCS Opposite-Spin Energy  =      -1.2087293546676554 [Eh]
	 SCS Correlation Energy    =      -1.3172054653457073 [Eh]
	 SCS Total Energy          =    -306.9866350172183047 [Eh]
	-----------------------------------------------------------

  Dipole Moment: [D]
     X:    -0.2297      Y:     1.2818      Z:    -0.0000     Total:     1.3022

*** Psi4 exiting successfully. Buy a developer a beer!
