                               Psi4 1.4a3.dev225

  ==> Input File <==

--------------------------------------------------------------------------
#psi4
#
memory 32 gb

molecule  {
0 1
  C        0.2606960     1.2022910    -0.0000270
  C       -1.1358900     1.2179210     0.0000200
  C       -1.8563270     0.0234090    -0.0000150
  C       -1.1686000    -1.1938320     0.0000190
  C        0.2243100    -1.2218560    -0.0000260
  C        0.9375760    -0.0198920     0.0000150
  O        2.3096970    -0.1121780     0.0000090
  H        0.8194350     2.1375370     0.0000180
  H       -1.6578250     2.1718150    -0.0000190
  H       -2.9427270     0.0394130     0.0000350
  H       -1.7202280    -2.1308750    -0.0000170
  H        0.7758460    -2.1577480     0.0000080
  H        2.6697875     0.7705146    -0.0000184
units angstrom
no_reorient  #important for SAPT in psi4, default
symmetry c1  #important for SAPT in psi4, default
}

set PROPERTIES_ORIGIN ["COM"]
properties('MP2/aug-cc-pvtz', properties = ['dipole'])
--------------------------------------------------------------------------

    Molecular point group: c1
  Charge       = 0
  Multiplicity = 1
  Basis Set: AUG-CC-PVTZ
    Blend: AUG-CC-PVTZ
  Basis Set: (AUG-CC-PVTZ AUX)
    Blend: AUG-CC-PVTZ-JKFIT

    Orbital Energies [Eh]
    ---------------------

    Doubly Occupied:

       1A    -20.591892     2A    -11.306330     3A    -11.245621
       4A    -11.243504     5A    -11.237778     6A    -11.231213
       7A    -11.230391     8A     -1.406499     9A     -1.147698
      10A     -1.020803    11A     -1.005877    12A     -0.847561
      13A     -0.823316    14A     -0.733632    15A     -0.685664
      16A     -0.652831    17A     -0.610269    18A     -0.592270
      19A     -0.590419    20A     -0.571142    21A     -0.517460
      22A     -0.495882    23A     -0.484424    24A     -0.343897
      25A     -0.317398

  @DF-RHF Final Energy:  -305.67116999896086

   => Energetics <=

    Nuclear Repulsion Energy =            270.7432517471661981
    One-Electron Energy =                -950.9612988049163960
    Two-Electron Energy =                 374.5468770587893914
    Total Energy =                       -305.6711699989608633
  Basis Set: (AUG-CC-PVTZ AUX)
    Blend: AUG-CC-PVTZ-RI
    Molecular point group: c1

    Geometry (in Angstrom), charge = 0, multiplicity = 1:

       Center              X                  Y                   Z               Mass
    ------------   -----------------  -----------------  -----------------  -----------------
         C            0.239292885469     1.211442552016    -0.000026815039    12.000000000000
         C           -1.157293114531     1.227072552016     0.000020184961    12.000000000000
         C           -1.877730114531     0.032560552016    -0.000014815039    12.000000000000
         C           -1.190003114531    -1.184680447984     0.000019184961    12.000000000000
         C            0.202906885469    -1.212704447984    -0.000025815039    12.000000000000
         C            0.916172885469    -0.010740447984     0.000015184961    12.000000000000
         O            2.288293885469    -0.103026447984     0.000009184961    15.994914619570
         H            0.798031885469     2.146688552016     0.000018184961     1.007825032230
         H           -1.679228114531     2.180966552016    -0.000018815039     1.007825032230
         H           -2.964130114531     0.048564552016     0.000035184961     1.007825032230
         H           -1.741631114531    -2.121723447984    -0.000016815039     1.007825032230
         H            0.754442885469    -2.148596447984     0.000008184961     1.007825032230
         H            2.648384385469     0.779666152016    -0.000018215039     1.007825032230

  Basis Set: AUG-CC-PVTZ
    Blend: AUG-CC-PVTZ
  Basis Set: (AUG-CC-PVTZ AUX)
    Blend: AUG-CC-PVTZ-JKFIT
	 Reference Energy          =    -305.6711699989608633 [Eh]
	 Singles Energy            =      -0.0000000000000000 [Eh]
	 Same-Spin Energy          =      -0.3251871245739788 [Eh]
	 Opposite-Spin Energy      =      -1.0063013036025912 [Eh]
	 Correlation Energy        =      -1.3314884281765700 [Eh]
	 Total Energy              =    -307.0026584271374190 [Eh]

	 ================> DF-SCS-MP2 Energies <==================
	-----------------------------------------------------------
	 SCS Same-Spin Scale       =       0.3333333333333333 [-]
	 SCS Opposite-Spin Scale   =       1.2000000000000000 [-]
	 SCS Same-Spin Energy      =      -0.1083957081913263 [Eh]
	 SCS Opposite-Spin Energy  =      -1.2075615643231095 [Eh]
	 SCS Correlation Energy    =      -1.3159572725144357 [Eh]
	 SCS Total Energy          =    -306.9871272714752877 [Eh]
	-----------------------------------------------------------

  Dipole Moment: [D]
     X:    -0.0998      Y:     1.2688      Z:    -0.0000     Total:     1.2727

*** Psi4 exiting successfully. Buy a developer a beer!
