                               Psi4 1.3.2 release

  ==> Input File <==

--------------------------------------------------------------------------
#psi4
#
memory 32 gb

molecule  {
0 1
  C        0.3476246     1.2465659    -0.0000821
  C       -1.1358940     1.2178730     0.0000410
  C       -1.8563260     0.0234010    -0.0000200
  C       -1.1685880    -1.1938670     0.0000370
  C        0.2242660    -1.2218040    -0.0000490
  C        0.9375920    -0.0198080     0.0000210
  O        2.3096620    -0.1122440    -0.0000150
  H        0.8193600     2.1376290    -0.0000120
  H       -1.6578230     2.1717680    -0.0000430
  H       -2.9427200     0.0394300     0.0001070
  H       -1.7202150    -2.1309040    -0.0000080
  H        0.7759750    -2.1575980     0.0000070
  H        2.6774850     0.7888930     0.0003320
units angstrom
no_reorient  #important for SAPT in psi4, default
symmetry c1  #important for SAPT in psi4, default
}

set PROPERTIES_ORIGIN ["COM"]
properties('MP2/aug-cc-pvtz', properties = ['dipole'])
--------------------------------------------------------------------------

    Molecular point group: c1
  Charge       = 0
  Multiplicity = 1
  Basis Set: AUG-CC-PVTZ
    Blend: AUG-CC-PVTZ
  Basis Set: (AUG-CC-PVTZ AUX)
    Blend: AUG-CC-PVTZ-JKFIT

    Orbital Energies [Eh]
    ---------------------

    Doubly Occupied:

       1A    -20.588630     2A    -11.308073     3A    -11.254951
       4A    -11.246684     5A    -11.237360     6A    -11.232802
       7A    -11.231527     8A     -1.400148     9A     -1.139725
      10A     -1.014942    11A     -1.005928    12A     -0.854252
      13A     -0.816759    14A     -0.731349    15A     -0.684127
      16A     -0.661125    17A     -0.616772    18A     -0.593091
      19A     -0.587295    20A     -0.563834    21A     -0.517184
      22A     -0.496296    23A     -0.478325    24A     -0.336170
      25A     -0.320266

  @DF-RHF Final Energy:  -305.65720268735089

   => Energetics <=

    Nuclear Repulsion Energy =            269.5703044051256256
    One-Electron Energy =                -948.6197854139098808
    Two-Electron Energy =                 373.3922783214333663
    Total Energy =                       -305.6572026873508889
  Basis Set: (AUG-CC-PVTZ AUX)
    Blend: AUG-CC-PVTZ-RI
    Molecular point group: c1

    Geometry (in Angstrom), charge = 0, multiplicity = 1:

       Center              X                  Y                   Z               Mass
    ------------   -----------------  -----------------  -----------------  -----------------
         C            0.315054228120     1.249874418381    -0.000077005176    12.000000000000
         C           -1.168464371880     1.221181518381     0.000046094824    12.000000000000
         C           -1.888896371880     0.026709518381    -0.000014905176    12.000000000000
         C           -1.201158371880    -1.190558481619     0.000042094824    12.000000000000
         C            0.191695628120    -1.218495481619    -0.000043905176    12.000000000000
         C            0.905021628120    -0.016499481619     0.000026094824    12.000000000000
         O            2.277091628120    -0.108935481619    -0.000009905176    15.994914619570
         H            0.786789628120     2.140937518381    -0.000006905176     1.007825032230
         H           -1.690393371880     2.175076518381    -0.000037905176     1.007825032230
         H           -2.975290371880     0.042738518381     0.000112094824     1.007825032230
         H           -1.752785371880    -2.127595481619    -0.000002905176     1.007825032230
         H            0.743404628120    -2.154289481619     0.000012094824     1.007825032230
         H            2.644914628120     0.792201518381     0.000337094824     1.007825032230

  Basis Set: AUG-CC-PVTZ
    Blend: AUG-CC-PVTZ
  Basis Set: (AUG-CC-PVTZ AUX)
    Blend: AUG-CC-PVTZ-JKFIT
	 Reference Energy          =    -305.6572026873508889 [Eh]
	 Singles Energy            =      -0.0000000000000000 [Eh]
	 Same-Spin Energy          =      -0.3252376233473264 [Eh]
	 Opposite-Spin Energy      =      -1.0078168274281929 [Eh]
	 Correlation Energy        =      -1.3330544507755193 [Eh]
	 Total Energy              =    -306.9902571381264238 [Eh]

	 ================> DF-SCS-MP2 Energies <==================
	-----------------------------------------------------------
	 SCS Same-Spin Scale       =       0.3333333333333333 [-]
	 SCS Opposite-Spin Scale   =       1.2000000000000000 [-]
	 SCS Same-Spin Energy      =      -0.1084125411157755 [Eh]
	 SCS Opposite-Spin Energy  =      -1.2093801929138315 [Eh]
	 SCS Correlation Energy    =      -1.3177927340296069 [Eh]
	 SCS Total Energy          =    -306.9749954213804699 [Eh]
	-----------------------------------------------------------

  Dipole Moment: [D]
     X:    -0.1392      Y:     1.2436      Z:     0.0006     Total:     1.2514

*** Psi4 exiting successfully. Buy a developer a beer!
