                               Psi4 1.3.2 release

  ==> Input File <==

--------------------------------------------------------------------------
#psi4
#
memory 32 gb

molecule  {
0 1
  C        0.2607240     1.2023270    -0.0000750
  C       -1.1358940     1.2178730     0.0000410
  C       -1.8563260     0.0234010    -0.0000200
  C       -1.1685880    -1.1938670     0.0000370
  C        0.2242660    -1.2218040    -0.0000490
  C        0.9547705     0.1231060     0.0000760
  O        2.3096620    -0.1122440    -0.0000150
  H        0.8193600     2.1376290    -0.0000120
  H       -1.6578230     2.1717680    -0.0000430
  H       -2.9427200     0.0394300     0.0001070
  H       -1.7202150    -2.1309040    -0.0000080
  H        0.7759750    -2.1575980     0.0000070
  H        2.6774850     0.7888930     0.0003320
units angstrom
no_reorient  #important for SAPT in psi4, default
symmetry c1  #important for SAPT in psi4, default
}

set PROPERTIES_ORIGIN ["COM"]
properties('MP2/aug-cc-pvtz', properties = ['dipole'])
--------------------------------------------------------------------------

    Molecular point group: c1
  Charge       = 0
  Multiplicity = 1
  Basis Set: AUG-CC-PVTZ
    Blend: AUG-CC-PVTZ
  Basis Set: (AUG-CC-PVTZ AUX)
    Blend: AUG-CC-PVTZ-JKFIT

    Orbital Energies [Eh]
    ---------------------

    Doubly Occupied:

       1A    -20.599440     2A    -11.303493     3A    -11.245347
       4A    -11.242955     5A    -11.239373     6A    -11.231753
       7A    -11.224093     8A     -1.408177     9A     -1.149140
      10A     -1.033147    11A     -0.994443    12A     -0.845384
      13A     -0.822811    14A     -0.724639    15A     -0.691817
      16A     -0.649250    17A     -0.609963    18A     -0.594227
      19A     -0.582056    20A     -0.577720    21A     -0.521302
      22A     -0.484957    23A     -0.480965    24A     -0.354565
      25A     -0.311050

  @DF-RHF Final Energy:  -305.64279088346495

   => Energetics <=

    Nuclear Repulsion Energy =            270.5816568936264730
    One-Electron Energy =                -950.6047645486650026
    Two-Electron Energy =                 374.3803167715735754
    Total Energy =                       -305.6427908834649543
  Basis Set: (AUG-CC-PVTZ AUX)
    Blend: AUG-CC-PVTZ-RI
    Molecular point group: c1

    Geometry (in Angstrom), charge = 0, multiplicity = 1:

       Center              X                  Y                   Z               Mass
    ------------   -----------------  -----------------  -----------------  -----------------
         C            0.237050359397     1.193044304858    -0.000077829307    12.000000000000
         C           -1.159567640603     1.208590304858     0.000038170693    12.000000000000
         C           -1.879999640603     0.014118304858    -0.000022829307    12.000000000000
         C           -1.192261640603    -1.203149695142     0.000034170693    12.000000000000
         C            0.200592359397    -1.231086695142    -0.000051829307    12.000000000000
         C            0.931096859397     0.113823304858     0.000073170693    12.000000000000
         O            2.285988359397    -0.121526695142    -0.000017829307    15.994914619570
         H            0.795686359397     2.128346304858    -0.000014829307     1.007825032230
         H           -1.681496640603     2.162485304858    -0.000045829307     1.007825032230
         H           -2.966393640603     0.030147304858     0.000104170693     1.007825032230
         H           -1.743888640603    -2.140186695142    -0.000010829307     1.007825032230
         H            0.752301359397    -2.166880695142     0.000004170693     1.007825032230
         H            2.653811359397     0.779610304858     0.000329170693     1.007825032230

  Basis Set: AUG-CC-PVTZ
    Blend: AUG-CC-PVTZ
  Basis Set: (AUG-CC-PVTZ AUX)
    Blend: AUG-CC-PVTZ-JKFIT
	 Reference Energy          =    -305.6427908834649543 [Eh]
	 Singles Energy            =      -0.0000000000000000 [Eh]
	 Same-Spin Energy          =      -0.3250107230943248 [Eh]
	 Opposite-Spin Energy      =      -1.0087245771549072 [Eh]
	 Correlation Energy        =      -1.3337353002492320 [Eh]
	 Total Energy              =    -306.9765261837142134 [Eh]

	 ================> DF-SCS-MP2 Energies <==================
	-----------------------------------------------------------
	 SCS Same-Spin Scale       =       0.3333333333333333 [-]
	 SCS Opposite-Spin Scale   =       1.2000000000000000 [-]
	 SCS Same-Spin Energy      =      -0.1083369076981083 [Eh]
	 SCS Opposite-Spin Energy  =      -1.2104694925858885 [Eh]
	 SCS Correlation Energy    =      -1.3188064002839968 [Eh]
	 SCS Total Energy          =    -306.9615972837489721 [Eh]
	-----------------------------------------------------------

  Dipole Moment: [D]
     X:    -0.0183      Y:     1.3115      Z:     0.0006     Total:     1.3117

*** Psi4 exiting successfully. Buy a developer a beer!
