                               Psi4 1.3.2 release

  ==> Input File <==

--------------------------------------------------------------------------
#psi4
#
memory 32 gb

molecule  {
0 1
  C        0.2607240     1.2023270    -0.0000750
  C       -1.1358940     1.2178730     0.0000410
  C       -1.8563260     0.0234010    -0.0000200
  C       -1.1685880    -1.1938670     0.0000370
  C        0.2242660    -1.2218040    -0.0000490
  C        0.9361877    -0.0437680     0.0000118
  O        2.3096620    -0.1122440    -0.0000150
  H        0.8193600     2.1376290    -0.0000120
  H       -1.6578230     2.1717680    -0.0000430
  H       -2.9427200     0.0394300     0.0001070
  H       -1.7202150    -2.1309040    -0.0000080
  H        0.7759750    -2.1575980     0.0000070
  H        2.6774850     0.7888930     0.0003320
units angstrom
no_reorient  #important for SAPT in psi4, default
symmetry c1  #important for SAPT in psi4, default
}

set PROPERTIES_ORIGIN ["COM"]
properties('MP2/aug-cc-pvtz', properties = ['dipole'])
--------------------------------------------------------------------------

    Molecular point group: c1
  Charge       = 0
  Multiplicity = 1
  Basis Set: AUG-CC-PVTZ
    Blend: AUG-CC-PVTZ
  Basis Set: (AUG-CC-PVTZ AUX)
    Blend: AUG-CC-PVTZ-JKFIT

    Orbital Energies [Eh]
    ---------------------

    Doubly Occupied:

       1A    -20.592619     2A    -11.306108     3A    -11.245422
       4A    -11.243960     5A    -11.239687     6A    -11.230230
       7A    -11.228648     8A     -1.401094     9A     -1.147528
      10A     -1.021783    11A     -1.004403    12A     -0.847501
      13A     -0.820866    14A     -0.732197    15A     -0.683980
      16A     -0.653344    17A     -0.611774    18A     -0.591626
      19A     -0.589361    20A     -0.568382    21A     -0.517864
      22A     -0.494394    23A     -0.484092    24A     -0.343934
      25A     -0.317242

  @DF-RHF Final Energy:  -305.66971461604362

   => Energetics <=

    Nuclear Repulsion Energy =            270.6414496021826039
    One-Electron Energy =                -950.7862526961133653
    Two-Electron Energy =                 374.4750884778870841
    Total Energy =                       -305.6697146160436205
  Basis Set: (AUG-CC-PVTZ AUX)
    Blend: AUG-CC-PVTZ-RI
    Molecular point group: c1

    Geometry (in Angstrom), charge = 0, multiplicity = 1:

       Center              X                  Y                   Z               Mass
    ------------   -----------------  -----------------  -----------------  -----------------
         C            0.239421575668     1.214337885158    -0.000069637210    12.000000000000
         C           -1.157196424332     1.229883885158     0.000046362790    12.000000000000
         C           -1.877628424332     0.035411885158    -0.000014637210    12.000000000000
         C           -1.189890424332    -1.181856114842     0.000042362790    12.000000000000
         C            0.202963575668    -1.209793114842    -0.000043637210    12.000000000000
         C            0.914885275668    -0.031757114842     0.000017162790    12.000000000000
         O            2.288359575668    -0.100233114842    -0.000009637210    15.994914619570
         H            0.798057575668     2.149639885158    -0.000006637210     1.007825032230
         H           -1.679125424332     2.183778885158    -0.000037637210     1.007825032230
         H           -2.964022424332     0.051440885158     0.000112362790     1.007825032230
         H           -1.741517424332    -2.118893114842    -0.000002637210     1.007825032230
         H            0.754672575668    -2.145587114842     0.000012362790     1.007825032230
         H            2.656182575668     0.800903885158     0.000337362790     1.007825032230

  Basis Set: AUG-CC-PVTZ
    Blend: AUG-CC-PVTZ
  Basis Set: (AUG-CC-PVTZ AUX)
    Blend: AUG-CC-PVTZ-JKFIT
	 Reference Energy          =    -305.6697146160436205 [Eh]
	 Singles Energy            =      -0.0000000000000000 [Eh]
	 Same-Spin Energy          =      -0.3253943246385656 [Eh]
	 Opposite-Spin Energy      =      -1.0068310671290084 [Eh]
	 Correlation Energy        =      -1.3322253917675739 [Eh]
	 Total Energy              =    -307.0019400078111858 [Eh]

	 ================> DF-SCS-MP2 Energies <==================
	-----------------------------------------------------------
	 SCS Same-Spin Scale       =       0.3333333333333333 [-]
	 SCS Opposite-Spin Scale   =       1.2000000000000000 [-]
	 SCS Same-Spin Energy      =      -0.1084647748795219 [Eh]
	 SCS Opposite-Spin Energy  =      -1.2081972805548100 [Eh]
	 SCS Correlation Energy    =      -1.3166620554343318 [Eh]
	 SCS Total Energy          =    -306.9863766714779558 [Eh]
	-----------------------------------------------------------

  Dipole Moment: [D]
     X:    -0.0946      Y:     1.2804      Z:     0.0006     Total:     1.2839

*** Psi4 exiting successfully. Buy a developer a beer!
