                               Psi4 1.3.2 release

  ==> Input File <==

--------------------------------------------------------------------------
#psi4
#
memory 32 gb

molecule  {
0 1
  C        0.2607240     1.2023270    -0.0000750
  C       -1.1358940     1.2178730     0.0000410
  C       -1.8563260     0.0234010    -0.0000200
  C       -1.1685880    -1.1938670     0.0000370
  C        0.2242660    -1.2218040    -0.0000490
  C        0.9375920    -0.0198080     0.0000210
  O        2.3096620    -0.1122440    -0.0000150
  H        0.8193600     2.1376290    -0.0000120
  H       -1.6578230     2.1717680    -0.0000430
  H       -2.9427200     0.0394300     0.0001070
  H       -1.7202150    -2.1309040    -0.0000080
  H        0.7759750    -2.1575980     0.0000070
  H        2.7152758     0.8814773     0.0003677
units angstrom
no_reorient  #important for SAPT in psi4, default
symmetry c1  #important for SAPT in psi4, default
}

set PROPERTIES_ORIGIN ["COM"]
properties('MP2/aug-cc-pvtz', properties = ['dipole'])
--------------------------------------------------------------------------

    Molecular point group: c1
  Charge       = 0
  Multiplicity = 1
  Basis Set: AUG-CC-PVTZ
    Blend: AUG-CC-PVTZ
  Basis Set: (AUG-CC-PVTZ AUX)
    Blend: AUG-CC-PVTZ-JKFIT

    Orbital Energies [Eh]
    ---------------------

    Doubly Occupied:

       1A    -20.600815     2A    -11.305395     3A    -11.245004
       4A    -11.243087     5A    -11.236809     6A    -11.230622
       7A    -11.229545     8A     -1.384092     9A     -1.145564
      10A     -1.020002    11A     -1.001446    12A     -0.842658
      13A     -0.818161    14A     -0.718925    15A     -0.679935
      16A     -0.650929    17A     -0.607292    18A     -0.591601
      19A     -0.586997    20A     -0.562630    21A     -0.516538
      22A     -0.494208    23A     -0.482936    24A     -0.343377
      25A     -0.316001

  @DF-RHF Final Energy:  -305.65668305366910

   => Energetics <=

    Nuclear Repulsion Energy =            270.0889844197453158
    One-Electron Energy =                -949.7821957698578217
    Two-Electron Energy =                 374.0365282964434073
    Total Energy =                       -305.6566830536690986
  Basis Set: (AUG-CC-PVTZ AUX)
    Blend: AUG-CC-PVTZ-RI
    Molecular point group: c1

    Geometry (in Angstrom), charge = 0, multiplicity = 1:

       Center              X                  Y                   Z               Mass
    ------------   -----------------  -----------------  -----------------  -----------------
         C            0.238837387824     1.210288318767    -0.000071193744    12.000000000000
         C           -1.157780612176     1.225834318767     0.000044806256    12.000000000000
         C           -1.878212612176     0.031362318767    -0.000016193744    12.000000000000
         C           -1.190474612176    -1.185905681233     0.000040806256    12.000000000000
         C            0.202379387824    -1.213842681233    -0.000045193744    12.000000000000
         C            0.915705387824    -0.011846681233     0.000024806256    12.000000000000
         O            2.287775387824    -0.104282681233    -0.000011193744    15.994914619570
         H            0.797473387824     2.145590318767    -0.000008193744     1.007825032230
         H           -1.679709612176     2.179729318767    -0.000039193744     1.007825032230
         H           -2.964606612176     0.047391318767     0.000110806256     1.007825032230
         H           -1.742101612176    -2.122942681233    -0.000004193744     1.007825032230
         H            0.754088387824    -2.149636681233     0.000010806256     1.007825032230
         H            2.693389187824     0.889438618767     0.000371506256     1.007825032230

  Basis Set: AUG-CC-PVTZ
    Blend: AUG-CC-PVTZ
  Basis Set: (AUG-CC-PVTZ AUX)
    Blend: AUG-CC-PVTZ-JKFIT
	 Reference Energy          =    -305.6566830536690986 [Eh]
	 Singles Energy            =      -0.0000000000000000 [Eh]
	 Same-Spin Energy          =      -0.3266826489145402 [Eh]
	 Opposite-Spin Energy      =      -1.0102334465961660 [Eh]
	 Correlation Energy        =      -1.3369160955107062 [Eh]
	 Total Energy              =    -306.9935991491798291 [Eh]

	 ================> DF-SCS-MP2 Energies <==================
	-----------------------------------------------------------
	 SCS Same-Spin Scale       =       0.3333333333333333 [-]
	 SCS Opposite-Spin Scale   =       1.2000000000000000 [-]
	 SCS Same-Spin Energy      =      -0.1088942163048467 [Eh]
	 SCS Opposite-Spin Energy  =      -1.2122801359153992 [Eh]
	 SCS Correlation Energy    =      -1.3211743522202459 [Eh]
	 SCS Total Energy          =    -306.9778574058893241 [Eh]
	-----------------------------------------------------------

  Dipole Moment: [D]
     X:    -0.0092      Y:     1.3569      Z:     0.0006     Total:     1.3569

*** Psi4 exiting successfully. Buy a developer a beer!
