                               Psi4 1.3.2 release

  ==> Input File <==

--------------------------------------------------------------------------
#psi4
#
memory 32 gb

molecule  {
0 1
  C        0.2607240     1.2023270    -0.0000750
  C       -1.1358940     1.2178730     0.0000410
  C       -1.8563260     0.0234010    -0.0000200
  C       -1.1685880    -1.1938670     0.0000370
  C        0.2242660    -1.2218040    -0.0000490
  C        0.9375920    -0.0198080     0.0000210
  O        2.1101143    -0.0988005    -0.0000098
  H        0.8193600     2.1376290    -0.0000120
  H       -1.6578230     2.1717680    -0.0000430
  H       -2.9427200     0.0394300     0.0001070
  H       -1.7202150    -2.1309040    -0.0000080
  H        0.7759750    -2.1575980     0.0000070
  H        2.6774850     0.7888930     0.0003320
units angstrom
no_reorient  #important for SAPT in psi4, default
symmetry c1  #important for SAPT in psi4, default
}

set PROPERTIES_ORIGIN ["COM"]
properties('MP2/aug-cc-pvtz', properties = ['dipole'])
--------------------------------------------------------------------------

    Molecular point group: c1
  Charge       = 0
  Multiplicity = 1
  Basis Set: AUG-CC-PVTZ
    Blend: AUG-CC-PVTZ
  Basis Set: (AUG-CC-PVTZ AUX)
    Blend: AUG-CC-PVTZ-JKFIT

    Orbital Energies [Eh]
    ---------------------

    Doubly Occupied:

       1A    -20.612357     2A    -11.295115     3A    -11.236792
       4A    -11.234947     5A    -11.217000     6A    -11.211823
       7A    -11.211441     8A     -1.501595     9A     -1.132736
      10A     -1.012408    11A     -0.991118    12A     -0.867088
      13A     -0.830466    14A     -0.750937    15A     -0.684861
      16A     -0.668065    17A     -0.654635    18A     -0.604964
      19A     -0.580540    20A     -0.552636    21A     -0.509195
      22A     -0.476559    23A     -0.471988    24A     -0.335806
      25A     -0.290697

  @DF-RHF Final Energy:  -305.62608804110675

   => Energetics <=

    Nuclear Repulsion Energy =            276.3604384711808848
    One-Electron Energy =                -962.1015145939279591
    Two-Electron Energy =                 380.1149880816402629
    Total Energy =                       -305.6260880411067546
  Basis Set: (AUG-CC-PVTZ AUX)
    Blend: AUG-CC-PVTZ-RI
    Molecular point group: c1

    Geometry (in Angstrom), charge = 0, multiplicity = 1:

       Center              X                  Y                   Z               Mass
    ------------   -----------------  -----------------  -----------------  -----------------
         C            0.273182037887     1.208994013727    -0.000071695587    12.000000000000
         C           -1.123435962113     1.224540013727     0.000044304413    12.000000000000
         C           -1.843867962113     0.030068013727    -0.000016695587    12.000000000000
         C           -1.156129962113    -1.187199986273     0.000040304413    12.000000000000
         C            0.236724037887    -1.215136986273    -0.000045695587    12.000000000000
         C            0.950050037887    -0.013140986273     0.000024304413    12.000000000000
         O            2.122572337887    -0.092133486273    -0.000006495587    15.994914619570
         H            0.831818037887     2.144296013727    -0.000008695587     1.007825032230
         H           -1.645364962113     2.178435013727    -0.000039695587     1.007825032230
         H           -2.930261962113     0.046097013727     0.000110304413     1.007825032230
         H           -1.707756962113    -2.124236986273    -0.000004695587     1.007825032230
         H            0.788433037887    -2.150930986273     0.000010304413     1.007825032230
         H            2.689943037887     0.795560013727     0.000335304413     1.007825032230

  Basis Set: AUG-CC-PVTZ
    Blend: AUG-CC-PVTZ
  Basis Set: (AUG-CC-PVTZ AUX)
    Blend: AUG-CC-PVTZ-JKFIT
	 Reference Energy          =    -305.6260880411067546 [Eh]
	 Singles Energy            =      -0.0000000000000000 [Eh]
	 Same-Spin Energy          =      -0.3262279826541843 [Eh]
	 Opposite-Spin Energy      =      -1.0052096973030535 [Eh]
	 Correlation Energy        =      -1.3314376799572378 [Eh]
	 Total Energy              =    -306.9575257210639734 [Eh]

	 ================> DF-SCS-MP2 Energies <==================
	-----------------------------------------------------------
	 SCS Same-Spin Scale       =       0.3333333333333333 [-]
	 SCS Opposite-Spin Scale   =       1.2000000000000000 [-]
	 SCS Same-Spin Energy      =      -0.1087426608847281 [Eh]
	 SCS Opposite-Spin Energy  =      -1.2062516367636642 [Eh]
	 SCS Correlation Energy    =      -1.3149942976483924 [Eh]
	 SCS Total Energy          =    -306.9410823387551659 [Eh]
	-----------------------------------------------------------

  Dipole Moment: [D]
     X:     1.5844      Y:     1.2795      Z:     0.0006     Total:     2.0365

*** Psi4 exiting successfully. Buy a developer a beer!
