                               Psi4 1.3.2 release

  ==> Input File <==

--------------------------------------------------------------------------
#psi4
#
memory 32 gb

molecule  {
0 1
  C        0.2607240     1.2023270    -0.0000750
  C       -1.1358940     1.2178730     0.0000410
  C       -1.8563260     0.0234010    -0.0000200
  C       -1.1685880    -1.1938670     0.0000370
  C        0.2242660    -1.2218040    -0.0000490
  C        0.9375920    -0.0198080     0.0000210
  O        2.4094358    -0.1189657    -0.0000176
  H        0.8193600     2.1376290    -0.0000120
  H       -1.6578230     2.1717680    -0.0000430
  H       -2.9427200     0.0394300     0.0001070
  H       -1.7202150    -2.1309040    -0.0000080
  H        0.7759750    -2.1575980     0.0000070
  H        2.6774850     0.7888930     0.0003320
units angstrom
no_reorient  #important for SAPT in psi4, default
symmetry c1  #important for SAPT in psi4, default
}

set PROPERTIES_ORIGIN ["COM"]
properties('MP2/aug-cc-pvtz', properties = ['dipole'])
--------------------------------------------------------------------------

    Molecular point group: c1
  Charge       = 0
  Multiplicity = 1
  Basis Set: AUG-CC-PVTZ
    Blend: AUG-CC-PVTZ
  Basis Set: (AUG-CC-PVTZ AUX)
    Blend: AUG-CC-PVTZ-JKFIT

    Orbital Energies [Eh]
    ---------------------

    Doubly Occupied:

       1A    -20.587396     2A    -11.312204     3A    -11.249512
       4A    -11.247168     5A    -11.245881     6A    -11.238743
       7A    -11.237363     8A     -1.371351     9A     -1.153452
      10A     -1.024888    11A     -1.010563    12A     -0.843997
      13A     -0.821581    14A     -0.718342    15A     -0.684934
      16A     -0.646561    17A     -0.610440    18A     -0.596496
      19A     -0.574494    20A     -0.568996    21A     -0.517034
      22A     -0.502003    23A     -0.488457    24A     -0.347560
      25A     -0.327839

  @DF-RHF Final Energy:  -305.66068191144376

   => Energetics <=

    Nuclear Repulsion Energy =            268.1457621974181507
    One-Electron Energy =                -945.7583749651093967
    Two-Electron Energy =                 371.9519308562474293
    Total Energy =                       -305.6606819114437599
  Basis Set: (AUG-CC-PVTZ AUX)
    Blend: AUG-CC-PVTZ-RI
    Molecular point group: c1

    Geometry (in Angstrom), charge = 0, multiplicity = 1:

       Center              X                  Y                   Z               Mass
    ------------   -----------------  -----------------  -----------------  -----------------
         C            0.222272564263     1.212423769751    -0.000070368940    12.000000000000
         C           -1.174345435737     1.227969769751     0.000045631060    12.000000000000
         C           -1.894777435737     0.033497769751    -0.000015368940    12.000000000000
         C           -1.207039435737    -1.183770230249     0.000041631060    12.000000000000
         C            0.185814564263    -1.211707230249    -0.000044368940    12.000000000000
         C            0.899140564263    -0.009711230249     0.000025631060    12.000000000000
         O            2.370984364263    -0.108868930249    -0.000012968940    15.994914619570
         H            0.780908564263     2.147725769751    -0.000007368940     1.007825032230
         H           -1.696274435737     2.181864769751    -0.000038368940     1.007825032230
         H           -2.981171435737     0.049526769751     0.000111631060     1.007825032230
         H           -1.758666435737    -2.120807230249    -0.000003368940     1.007825032230
         H            0.737523564263    -2.147501230249     0.000011631060     1.007825032230
         H            2.639033564263     0.798989769751     0.000336631060     1.007825032230

  Basis Set: AUG-CC-PVTZ
    Blend: AUG-CC-PVTZ
  Basis Set: (AUG-CC-PVTZ AUX)
    Blend: AUG-CC-PVTZ-JKFIT
	 Reference Energy          =    -305.6606819114437599 [Eh]
	 Singles Energy            =      -0.0000000000000000 [Eh]
	 Same-Spin Energy          =      -0.3255355693824077 [Eh]
	 Opposite-Spin Energy      =      -1.0090155235945251 [Eh]
	 Correlation Energy        =      -1.3345510929769329 [Eh]
	 Total Energy              =    -306.9952330044206974 [Eh]

	 ================> DF-SCS-MP2 Energies <==================
	-----------------------------------------------------------
	 SCS Same-Spin Scale       =       0.3333333333333333 [-]
	 SCS Opposite-Spin Scale   =       1.2000000000000000 [-]
	 SCS Same-Spin Energy      =      -0.1085118564608026 [Eh]
	 SCS Opposite-Spin Energy  =      -1.2108186283134301 [Eh]
	 SCS Correlation Energy    =      -1.3193304847742326 [Eh]
	 SCS Total Energy          =    -306.9800123962180010 [Eh]
	-----------------------------------------------------------

  Dipole Moment: [D]
     X:    -0.7768      Y:     1.2723      Z:     0.0006     Total:     1.4907

*** Psi4 exiting successfully. Buy a developer a beer!
