                               Psi4 1.4a3.dev225

  ==> Input File <==

--------------------------------------------------------------------------
#psi4
#
memory 32 gb

molecule  {
0 1
  C        0.2606960     1.2022910    -0.0000270
  C       -1.1358900     1.2179210     0.0000200
  C       -1.8563270     0.0234090    -0.0000150
  C       -1.1686000    -1.1938320     0.0000190
  C        0.2243100    -1.2218560    -0.0000260
  C        0.9375760    -0.0198920     0.0000150
  O        2.3096970    -0.1121780     0.0000090
  H        0.8194350     2.1375370     0.0000180
  H       -1.6578250     2.1718150    -0.0000190
  H       -2.9427270     0.0394130     0.0000350
  H       -1.7202280    -2.1308750    -0.0000170
  H        0.7758460    -2.1577480     0.0000080
  H        2.6584558     0.7427371    -0.0000176
units angstrom
no_reorient  #important for SAPT in psi4, default
symmetry c1  #important for SAPT in psi4, default
}

set PROPERTIES_ORIGIN ["COM"]
properties('MP2/aug-cc-pvtz', properties = ['dipole'])
--------------------------------------------------------------------------

    Molecular point group: c1
  Charge       = 0
  Multiplicity = 1
  Basis Set: AUG-CC-PVTZ
    Blend: AUG-CC-PVTZ
  Basis Set: (AUG-CC-PVTZ AUX)
    Blend: AUG-CC-PVTZ-JKFIT

    Orbital Energies [Eh]
    ---------------------

    Doubly Occupied:

       1A    -20.589223     2A    -11.306592     3A    -11.245787
       4A    -11.243625     5A    -11.238051     6A    -11.231401
       7A    -11.230625     8A     -1.413639     9A     -1.148330
      10A     -1.021042    11A     -1.007232    12A     -0.849358
      13A     -0.824710    14A     -0.737676    15A     -0.686703
      16A     -0.653342    17A     -0.610983    18A     -0.592459
      19A     -0.591413    20A     -0.572950    21A     -0.517718
      22A     -0.496260    23A     -0.484846    24A     -0.344043
      25A     -0.317788

  @DF-RHF Final Energy:  -305.67098512760168

   => Energetics <=

    Nuclear Repulsion Energy =            270.9277663472902873
    One-Electron Energy =                -951.2859099901022546
    Two-Electron Energy =                 374.6871585152102284
    Total Energy =                       -305.6709851276016821
  Basis Set: (AUG-CC-PVTZ AUX)
    Blend: AUG-CC-PVTZ-RI
    Molecular point group: c1

    Geometry (in Angstrom), charge = 0, multiplicity = 1:

       Center              X                  Y                   Z               Mass
    ------------   -----------------  -----------------  -----------------  -----------------
         C            0.239414324691     1.211740237094    -0.000026823612    12.000000000000
         C           -1.157171675309     1.227370237094     0.000020176388    12.000000000000
         C           -1.877608675309     0.032858237094    -0.000014823612    12.000000000000
         C           -1.189881675309    -1.184382762906     0.000019176388    12.000000000000
         C            0.203028324691    -1.212406762906    -0.000025823612    12.000000000000
         C            0.916294324691    -0.010442762906     0.000015176388    12.000000000000
         O            2.288415324691    -0.102728762906     0.000009176388    15.994914619570
         H            0.798153324691     2.146986237094     0.000018176388     1.007825032230
         H           -1.679106675309     2.181264237094    -0.000018823612     1.007825032230
         H           -2.964008675309     0.048862237094     0.000035176388     1.007825032230
         H           -1.741509675309    -2.121425762906    -0.000016823612     1.007825032230
         H            0.754564324691    -2.148298762906     0.000008176388     1.007825032230
         H            2.637174124691     0.752186337094    -0.000017423612     1.007825032230

  Basis Set: AUG-CC-PVTZ
    Blend: AUG-CC-PVTZ
  Basis Set: (AUG-CC-PVTZ AUX)
    Blend: AUG-CC-PVTZ-JKFIT
	 Reference Energy          =    -305.6709851276016821 [Eh]
	 Singles Energy            =      -0.0000000000000000 [Eh]
	 Same-Spin Energy          =      -0.3248077457032918 [Eh]
	 Opposite-Spin Energy      =      -1.0053836044184545 [Eh]
	 Correlation Energy        =      -1.3301913501217464 [Eh]
	 Total Energy              =    -307.0011764777234475 [Eh]

	 ================> DF-SCS-MP2 Energies <==================
	-----------------------------------------------------------
	 SCS Same-Spin Scale       =       0.3333333333333333 [-]
	 SCS Opposite-Spin Scale   =       1.2000000000000000 [-]
	 SCS Same-Spin Energy      =      -0.1082692485677639 [Eh]
	 SCS Opposite-Spin Energy  =      -1.2064603253021453 [Eh]
	 SCS Correlation Energy    =      -1.3147295738699092 [Eh]
	 SCS Total Energy          =    -306.9857147014715792 [Eh]
	-----------------------------------------------------------

  Dipole Moment: [D]
     X:    -0.1254      Y:     1.2462      Z:    -0.0000     Total:     1.2525

*** Psi4 exiting successfully. Buy a developer a beer!
