                               Psi4 1.3.2 release

  ==> Input File <==

--------------------------------------------------------------------------
#psi4
#
memory 32 gb

molecule  {
0 1
  C        0.2607240     1.2023270    -0.0000750
  C       -1.1358940     1.2178730     0.0000410
  C       -1.8563260     0.0234010    -0.0000200
  C       -1.1685880    -1.1938670     0.0000370
  C        0.2242660    -1.2218040    -0.0000490
  C        0.9375920    -0.0198080     0.0000210
  O        2.5092097    -0.1256875    -0.0000202
  H        0.8193600     2.1376290    -0.0000120
  H       -1.6578230     2.1717680    -0.0000430
  H       -2.9427200     0.0394300     0.0001070
  H       -1.7202150    -2.1309040    -0.0000080
  H        0.7759750    -2.1575980     0.0000070
  H        2.6774850     0.7888930     0.0003320
units angstrom
no_reorient  #important for SAPT in psi4, default
symmetry c1  #important for SAPT in psi4, default
}

set PROPERTIES_ORIGIN ["COM"]
properties('MP2/aug-cc-pvtz', properties = ['dipole'])
--------------------------------------------------------------------------

    Molecular point group: c1
  Charge       = 0
  Multiplicity = 1
  Basis Set: AUG-CC-PVTZ
    Blend: AUG-CC-PVTZ
  Basis Set: (AUG-CC-PVTZ AUX)
    Blend: AUG-CC-PVTZ-JKFIT

    Orbital Energies [Eh]
    ---------------------

    Doubly Occupied:

       1A    -20.582965     2A    -11.318323     3A    -11.253799
       4A    -11.252598     5A    -11.250664     6A    -11.245327
       7A    -11.243337     8A     -1.348268     9A     -1.158902
      10A     -1.028936    11A     -1.015387    12A     -0.844217
      13A     -0.822211    14A     -0.711769    15A     -0.679186
      16A     -0.644236    17A     -0.611969    18A     -0.599447
      19A     -0.574967    20A     -0.554104    21A     -0.512708
      22A     -0.506936    23A     -0.491238    24A     -0.351136
      25A     -0.336926

  @DF-RHF Final Energy:  -305.64137782767267

   => Energetics <=

    Nuclear Repulsion Energy =            265.8483863400599603
    One-Electron Energy =                -941.1004158159995541
    Two-Electron Energy =                 369.6106516482669235
    Total Energy =                       -305.6413778276726703
  Basis Set: (AUG-CC-PVTZ AUX)
    Blend: AUG-CC-PVTZ-RI
    Molecular point group: c1

    Geometry (in Angstrom), charge = 0, multiplicity = 1:

       Center              X                  Y                   Z               Mass
    ------------   -----------------  -----------------  -----------------  -----------------
         C            0.205302728382     1.213567033097    -0.000069926725    12.000000000000
         C           -1.191315271618     1.229113033097     0.000046073275    12.000000000000
         C           -1.911747271618     0.034641033097    -0.000014926725    12.000000000000
         C           -1.224009271618    -1.182626966903     0.000042073275    12.000000000000
         C            0.168844728382    -1.210563966903    -0.000043926725    12.000000000000
         C            0.882170728382    -0.008567966903     0.000026073275    12.000000000000
         O            2.453788428382    -0.114447466903    -0.000015126725    15.994914619570
         H            0.763938728382     2.148869033097    -0.000006926725     1.007825032230
         H           -1.713244271618     2.183008033097    -0.000037926725     1.007825032230
         H           -2.998141271618     0.050670033097     0.000112073275     1.007825032230
         H           -1.775636271618    -2.119663966903    -0.000002926725     1.007825032230
         H            0.720553728382    -2.146357966903     0.000012073275     1.007825032230
         H            2.622063728382     0.800133033097     0.000337073275     1.007825032230

  Basis Set: AUG-CC-PVTZ
    Blend: AUG-CC-PVTZ
  Basis Set: (AUG-CC-PVTZ AUX)
    Blend: AUG-CC-PVTZ-JKFIT
	 Reference Energy          =    -305.6413778276726703 [Eh]
	 Singles Energy            =      -0.0000000000000000 [Eh]
	 Same-Spin Energy          =      -0.3260243883950794 [Eh]
	 Opposite-Spin Energy      =      -1.0120088164066292 [Eh]
	 Correlation Energy        =      -1.3380332048017087 [Eh]
	 Total Energy              =    -306.9794110324743883 [Eh]

	 ================> DF-SCS-MP2 Energies <==================
	-----------------------------------------------------------
	 SCS Same-Spin Scale       =       0.3333333333333333 [-]
	 SCS Opposite-Spin Scale   =       1.2000000000000000 [-]
	 SCS Same-Spin Energy      =      -0.1086747961316931 [Eh]
	 SCS Opposite-Spin Energy  =      -1.2144105796879550 [Eh]
	 SCS Correlation Energy    =      -1.3230853758196481 [Eh]
	 SCS Total Energy          =    -306.9644632034923006 [Eh]
	-----------------------------------------------------------

  Dipole Moment: [D]
     X:    -1.3839      Y:     1.2582      Z:     0.0006     Total:     1.8704

*** Psi4 exiting successfully. Buy a developer a beer!
