                               Psi4 1.4a3.dev225

  ==> Input File <==

--------------------------------------------------------------------------
#psi4
#
memory 32 gb

molecule  {
0 1
  C        0.2606960     1.2022910    -0.0000270
  C       -1.1358900     1.2179210     0.0000200
  C       -1.8563270     0.0234090    -0.0000150
  C       -1.1686000    -1.1938320     0.0000190
  C        0.2243100    -1.2218560    -0.0000260
  C        0.9375760    -0.0198920     0.0000150
  O        2.3595843    -0.1155333     0.0000088
  H        0.8194350     2.1375370     0.0000180
  H       -1.6578250     2.1718150    -0.0000190
  H       -2.9427270     0.0394130     0.0000350
  H       -1.7202280    -2.1308750    -0.0000170
  H        0.7758460    -2.1577480     0.0000080
  H        2.6773420     0.7890330    -0.0000190
units angstrom
no_reorient  #important for SAPT in psi4, default
symmetry c1  #important for SAPT in psi4, default
}

set PROPERTIES_ORIGIN ["COM"]
properties('MP2/aug-cc-pvtz', properties = ['dipole'])
--------------------------------------------------------------------------

    Molecular point group: c1
  Charge       = 0
  Multiplicity = 1
  Basis Set: AUG-CC-PVTZ
    Blend: AUG-CC-PVTZ
  Basis Set: (AUG-CC-PVTZ AUX)
    Blend: AUG-CC-PVTZ-JKFIT

    Orbital Energies [Eh]
    ---------------------

    Doubly Occupied:

       1A    -20.590240     2A    -11.309168     3A    -11.247540
       4A    -11.245337     5A    -11.241906     6A    -11.235074
       7A    -11.233969     8A     -1.385511     9A     -1.150472
      10A     -1.022794    11A     -1.007903    12A     -0.844791
      13A     -0.821789    14A     -0.724267    15A     -0.685479
      16A     -0.649026    17A     -0.610129    18A     -0.594505
      19A     -0.578579    20A     -0.572654    21A     -0.517614
      22A     -0.499013    23A     -0.486476    24A     -0.345707
      25A     -0.322710

  @DF-RHF Final Energy:  -305.66707846905348

   => Energetics <=

    Nuclear Repulsion Energy =            269.3589042678507326
    One-Electron Energy =                -948.2066575929802639
    Two-Electron Energy =                 373.1806748560761093
    Total Energy =                       -305.6670784690534788
  Basis Set: (AUG-CC-PVTZ AUX)
    Blend: AUG-CC-PVTZ-RI
    Molecular point group: c1

    Geometry (in Angstrom), charge = 0, multiplicity = 1:

       Center              X                  Y                   Z               Mass
    ------------   -----------------  -----------------  -----------------  -----------------
         C            0.230726948161     1.211814773792    -0.000026774592    12.000000000000
         C           -1.165859051839     1.227444773792     0.000020225408    12.000000000000
         C           -1.886296051839     0.032932773792    -0.000014774592    12.000000000000
         C           -1.198569051839    -1.184308226208     0.000019225408    12.000000000000
         C            0.194340948161    -1.212332226208    -0.000025774592    12.000000000000
         C            0.907606948161    -0.010368226208     0.000015225408    12.000000000000
         O            2.329615248161    -0.106009526208     0.000009025408    15.994914619570
         H            0.789465948161     2.147060773792     0.000018225408     1.007825032230
         H           -1.687794051839     2.181338773792    -0.000018774592     1.007825032230
         H           -2.972696051839     0.048936773792     0.000035225408     1.007825032230
         H           -1.750197051839    -2.121351226208    -0.000016774592     1.007825032230
         H            0.745876948161    -2.148224226208     0.000008225408     1.007825032230
         H            2.647372948161     0.798556773792    -0.000018774592     1.007825032230

  Basis Set: AUG-CC-PVTZ
    Blend: AUG-CC-PVTZ
  Basis Set: (AUG-CC-PVTZ AUX)
    Blend: AUG-CC-PVTZ-JKFIT
	 Reference Energy          =    -305.6670784690534788 [Eh]
	 Singles Energy            =      -0.0000000000000000 [Eh]
	 Same-Spin Energy          =      -0.3254394893799932 [Eh]
	 Opposite-Spin Energy      =      -1.0078604445620063 [Eh]
	 Correlation Energy        =      -1.3332999339419995 [Eh]
	 Total Energy              =    -307.0003784029954659 [Eh]

	 ================> DF-SCS-MP2 Energies <==================
	-----------------------------------------------------------
	 SCS Same-Spin Scale       =       0.3333333333333333 [-]
	 SCS Opposite-Spin Scale   =       1.2000000000000000 [-]
	 SCS Same-Spin Energy      =      -0.1084798297933311 [Eh]
	 SCS Opposite-Spin Energy  =      -1.2094325334744076 [Eh]
	 SCS Correlation Energy    =      -1.3179123632677388 [Eh]
	 SCS Total Energy          =    -306.9849908323212162 [Eh]
	-----------------------------------------------------------

  Dipole Moment: [D]
     X:    -0.4420      Y:     1.2785      Z:    -0.0000     Total:     1.3527

*** Psi4 exiting successfully. Buy a developer a beer!
