                               Psi4 1.3.2 release

  ==> Input File <==

--------------------------------------------------------------------------
#psi4
#
memory 32 gb

molecule  {
0 1
  C        0.2607240     1.2023270    -0.0000750
  C       -1.1358940     1.2178730     0.0000410
  C       -1.8563260     0.0234010    -0.0000200
  C       -1.1685880    -1.1938670     0.0000370
  C        0.2242660    -1.2218040    -0.0000490
  C        0.9473823     0.0756776     0.0000578
  O        2.3096620    -0.1122440    -0.0000150
  H        0.8193600     2.1376290    -0.0000120
  H       -1.6578230     2.1717680    -0.0000430
  H       -2.9427200     0.0394300     0.0001070
  H       -1.7202150    -2.1309040    -0.0000080
  H        0.7759750    -2.1575980     0.0000070
  H        2.6774850     0.7888930     0.0003320
units angstrom
no_reorient  #important for SAPT in psi4, default
symmetry c1  #important for SAPT in psi4, default
}

set PROPERTIES_ORIGIN ["COM"]
properties('MP2/aug-cc-pvtz', properties = ['dipole'])
--------------------------------------------------------------------------

    Molecular point group: c1
  Charge       = 0
  Multiplicity = 1
  Basis Set: AUG-CC-PVTZ
    Blend: AUG-CC-PVTZ
  Basis Set: (AUG-CC-PVTZ AUX)
    Blend: AUG-CC-PVTZ-JKFIT

    Orbital Energies [Eh]
    ---------------------

    Doubly Occupied:

       1A    -20.597414     2A    -11.304812     3A    -11.245529
       4A    -11.241152     5A    -11.239357     6A    -11.230995
       7A    -11.228603     8A     -1.406149     9A     -1.147921
      10A     -1.027160    11A     -0.998913    12A     -0.844618
      13A     -0.824597    14A     -0.726580    15A     -0.689392
      16A     -0.649819    17A     -0.607475    18A     -0.592392
      19A     -0.587769    20A     -0.575316    21A     -0.519225
      22A     -0.489442    23A     -0.484579    24A     -0.349431
      25A     -0.313591

  @DF-RHF Final Energy:  -305.65771947371849

   => Energetics <=

    Nuclear Repulsion Energy =            270.5901290222253692
    One-Electron Energy =                -950.6512355403325500
    Two-Electron Energy =                 374.4033870443886940
    Total Energy =                       -305.6577194737184868
  Basis Set: (AUG-CC-PVTZ AUX)
    Blend: AUG-CC-PVTZ-RI
    Molecular point group: c1

    Geometry (in Angstrom), charge = 0, multiplicity = 1:

       Center              X                  Y                   Z               Mass
    ------------   -----------------  -----------------  -----------------  -----------------
         C            0.237993113990     1.199096298841    -0.000075506937    12.000000000000
         C           -1.158624886010     1.214642298841     0.000040493063    12.000000000000
         C           -1.879056886010     0.020170298841    -0.000020506937    12.000000000000
         C           -1.191318886010    -1.197097701159     0.000036493063    12.000000000000
         C            0.201535113990    -1.225034701159    -0.000049506937    12.000000000000
         C            0.924651413990     0.072446898841     0.000057293063    12.000000000000
         O            2.286931113990    -0.115474701159    -0.000015506937    15.994914619570
         H            0.796629113990     2.134398298841    -0.000012506937     1.007825032230
         H           -1.680553886010     2.168537298841    -0.000043506937     1.007825032230
         H           -2.965450886010     0.036199298841     0.000106493063     1.007825032230
         H           -1.742945886010    -2.134134701159    -0.000008506937     1.007825032230
         H            0.753244113990    -2.160828701159     0.000006493063     1.007825032230
         H            2.654754113990     0.785662298841     0.000331493063     1.007825032230

  Basis Set: AUG-CC-PVTZ
    Blend: AUG-CC-PVTZ
  Basis Set: (AUG-CC-PVTZ AUX)
    Blend: AUG-CC-PVTZ-JKFIT
	 Reference Energy          =    -305.6577194737184868 [Eh]
	 Singles Energy            =      -0.0000000000000000 [Eh]
	 Same-Spin Energy          =      -0.3252372942636245 [Eh]
	 Opposite-Spin Energy      =      -1.0078999192927705 [Eh]
	 Correlation Energy        =      -1.3331372135563950 [Eh]
	 Total Energy              =    -306.9908566872748565 [Eh]

	 ================> DF-SCS-MP2 Energies <==================
	-----------------------------------------------------------
	 SCS Same-Spin Scale       =       0.3333333333333333 [-]
	 SCS Opposite-Spin Scale   =       1.2000000000000000 [-]
	 SCS Same-Spin Energy      =      -0.1084124314212082 [Eh]
	 SCS Opposite-Spin Energy  =      -1.2094799031513246 [Eh]
	 SCS Correlation Energy    =      -1.3178923345725329 [Eh]
	 SCS Total Energy          =    -306.9756118082910348 [Eh]
	-----------------------------------------------------------

  Dipole Moment: [D]
     X:    -0.0392      Y:     1.2992      Z:     0.0006     Total:     1.2997

*** Psi4 exiting successfully. Buy a developer a beer!
