                               Psi4 1.3.2 release

  ==> Input File <==

--------------------------------------------------------------------------
#psi4
#
memory 32 gb

molecule  {
0 1
  C        0.2184844     1.1779602    -0.0000713
  C       -1.1358940     1.2178730     0.0000410
  C       -1.8563260     0.0234010    -0.0000200
  C       -1.1685880    -1.1938670     0.0000370
  C        0.2242660    -1.2218040    -0.0000490
  C        0.9375920    -0.0198080     0.0000210
  O        2.3096620    -0.1122440    -0.0000150
  H        0.8193600     2.1376290    -0.0000120
  H       -1.6578230     2.1717680    -0.0000430
  H       -2.9427200     0.0394300     0.0001070
  H       -1.7202150    -2.1309040    -0.0000080
  H        0.7759750    -2.1575980     0.0000070
  H        2.6774850     0.7888930     0.0003320
units angstrom
no_reorient  #important for SAPT in psi4, default
symmetry c1  #important for SAPT in psi4, default
}

set PROPERTIES_ORIGIN ["COM"]
properties('MP2/aug-cc-pvtz', properties = ['dipole'])
--------------------------------------------------------------------------

    Molecular point group: c1
  Charge       = 0
  Multiplicity = 1
  Basis Set: AUG-CC-PVTZ
    Blend: AUG-CC-PVTZ
  Basis Set: (AUG-CC-PVTZ AUX)
    Blend: AUG-CC-PVTZ-JKFIT

    Orbital Energies [Eh]
    ---------------------

    Doubly Occupied:

       1A    -20.596011     2A    -11.305773     3A    -11.242000
       4A    -11.240627     5A    -11.237788     6A    -11.230475
       7A    -11.229819     8A     -1.403217     9A     -1.152253
      10A     -1.024467    11A     -1.004472    12A     -0.843158
      13A     -0.825744    14A     -0.731818    15A     -0.686937
      16A     -0.649309    17A     -0.607257    18A     -0.591239
      19A     -0.588980    20A     -0.573311    21A     -0.519511
      22A     -0.488987    23A     -0.487879    24A     -0.348000
      25A     -0.315818

  @DF-RHF Final Energy:  -305.66713360888400

   => Energetics <=

    Nuclear Repulsion Energy =            271.2134241763257023
    One-Electron Energy =                -951.9114161716601075
    Two-Electron Energy =                 375.0308583864504044
    Total Energy =                       -305.6671336088840008
  Basis Set: (AUG-CC-PVTZ AUX)
    Blend: AUG-CC-PVTZ-RI
    Molecular point group: c1

    Geometry (in Angstrom), charge = 0, multiplicity = 1:

       Center              X                  Y                   Z               Mass
    ------------   -----------------  -----------------  -----------------  -----------------
         C            0.202392672000     1.190022993955    -0.000067583286    12.000000000000
         C           -1.151985728000     1.229935793955     0.000044716714    12.000000000000
         C           -1.872417728000     0.035463793955    -0.000016283286    12.000000000000
         C           -1.184679728000    -1.181804206045     0.000040716714    12.000000000000
         C            0.208174272000    -1.209741206045    -0.000045283286    12.000000000000
         C            0.921500272000    -0.007745206045     0.000024716714    12.000000000000
         O            2.293570272000    -0.100181206045    -0.000011283286    15.994914619570
         H            0.803268272000     2.149691793955    -0.000008283286     1.007825032230
         H           -1.673914728000     2.183830793955    -0.000039283286     1.007825032230
         H           -2.958811728000     0.051492793955     0.000110716714     1.007825032230
         H           -1.736306728000    -2.118841206045    -0.000004283286     1.007825032230
         H            0.759883272000    -2.145535206045     0.000010716714     1.007825032230
         H            2.661393272000     0.800955793955     0.000335716714     1.007825032230

  Basis Set: AUG-CC-PVTZ
    Blend: AUG-CC-PVTZ
  Basis Set: (AUG-CC-PVTZ AUX)
    Blend: AUG-CC-PVTZ-JKFIT
	 Reference Energy          =    -305.6671336088840008 [Eh]
	 Singles Energy            =      -0.0000000000000000 [Eh]
	 Same-Spin Energy          =      -0.3256605490784037 [Eh]
	 Opposite-Spin Energy      =      -1.0070316389967311 [Eh]
	 Correlation Energy        =      -1.3326921880751348 [Eh]
	 Total Energy              =    -306.9998257969591577 [Eh]

	 ================> DF-SCS-MP2 Energies <==================
	-----------------------------------------------------------
	 SCS Same-Spin Scale       =       0.3333333333333333 [-]
	 SCS Opposite-Spin Scale   =       1.2000000000000000 [-]
	 SCS Same-Spin Energy      =      -0.1085535163594679 [Eh]
	 SCS Opposite-Spin Energy  =      -1.2084379667960772 [Eh]
	 SCS Correlation Energy    =      -1.3169914831555452 [Eh]
	 SCS Total Energy          =    -306.9841250920395623 [Eh]
	-----------------------------------------------------------

  Dipole Moment: [D]
     X:    -0.0680      Y:     1.2872      Z:     0.0006     Total:     1.2890

*** Psi4 exiting successfully. Buy a developer a beer!
