                               Psi4 1.3.2 release

  ==> Input File <==

--------------------------------------------------------------------------
#psi4
#
memory 32 gb

molecule  {
0 1
  C        0.2394979     1.1903279    -0.0000731
  C       -1.1358940     1.2178730     0.0000410
  C       -1.8563260     0.0234010    -0.0000200
  C       -1.1685880    -1.1938670     0.0000370
  C        0.2242660    -1.2218040    -0.0000490
  C        0.9375920    -0.0198080     0.0000210
  O        2.3096620    -0.1122440    -0.0000150
  H        0.8193600     2.1376290    -0.0000120
  H       -1.6578230     2.1717680    -0.0000430
  H       -2.9427200     0.0394300     0.0001070
  H       -1.7202150    -2.1309040    -0.0000080
  H        0.7759750    -2.1575980     0.0000070
  H        2.6774850     0.7888930     0.0003320
units angstrom
no_reorient  #important for SAPT in psi4, default
symmetry c1  #important for SAPT in psi4, default
}

set PROPERTIES_ORIGIN ["COM"]
properties('MP2/aug-cc-pvtz', properties = ['dipole'])
--------------------------------------------------------------------------

    Molecular point group: c1
  Charge       = 0
  Multiplicity = 1
  Basis Set: AUG-CC-PVTZ
    Blend: AUG-CC-PVTZ
  Basis Set: (AUG-CC-PVTZ AUX)
    Blend: AUG-CC-PVTZ-JKFIT

    Orbital Energies [Eh]
    ---------------------

    Doubly Occupied:

       1A    -20.594798     2A    -11.305918     3A    -11.243036
       4A    -11.242689     5A    -11.237714     6A    -11.230761
       7A    -11.230002     8A     -1.402670     9A     -1.149671
      10A     -1.022487    11A     -1.004752    12A     -0.844792
      13A     -0.824040    14A     -0.731329    15A     -0.685820
      16A     -0.650780    17A     -0.608273    18A     -0.590861
      19A     -0.590503    20A     -0.571590    21A     -0.518387
      22A     -0.492663    23A     -0.485941    24A     -0.345873
      25A     -0.316454

  @DF-RHF Final Energy:  -305.66950729451185

   => Energetics <=

    Nuclear Repulsion Energy =            270.9153041526454899
    One-Electron Energy =                -951.3260142549204375
    Two-Electron Energy =                 374.7412028077631021
    Total Energy =                       -305.6695072945118454
  Basis Set: (AUG-CC-PVTZ AUX)
    Blend: AUG-CC-PVTZ-RI
    Molecular point group: c1

    Geometry (in Angstrom), charge = 0, multiplicity = 1:

       Center              X                  Y                   Z               Mass
    ------------   -----------------  -----------------  -----------------  -----------------
         C            0.220724791739     1.200812541498    -0.000069153601    12.000000000000
         C           -1.154667108261     1.228357641498     0.000044946399    12.000000000000
         C           -1.875099108261     0.033885641498    -0.000016053601    12.000000000000
         C           -1.187361108261    -1.183382358502     0.000040946399    12.000000000000
         C            0.205492891739    -1.211319358502    -0.000045053601    12.000000000000
         C            0.918818891739    -0.009323358502     0.000024946399    12.000000000000
         O            2.290888891739    -0.101759358502    -0.000011053601    15.994914619570
         H            0.800586891739     2.148113641498    -0.000008053601     1.007825032230
         H           -1.676596108261     2.182252641498    -0.000039053601     1.007825032230
         H           -2.961493108261     0.049914641498     0.000110946399     1.007825032230
         H           -1.738988108261    -2.120419358502    -0.000004053601     1.007825032230
         H            0.757201891739    -2.147113358502     0.000010946399     1.007825032230
         H            2.658711891739     0.799377641498     0.000335946399     1.007825032230

  Basis Set: AUG-CC-PVTZ
    Blend: AUG-CC-PVTZ
  Basis Set: (AUG-CC-PVTZ AUX)
    Blend: AUG-CC-PVTZ-JKFIT
	 Reference Energy          =    -305.6695072945118454 [Eh]
	 Singles Energy            =      -0.0000000000000000 [Eh]
	 Same-Spin Energy          =      -0.3255402464838660 [Eh]
	 Opposite-Spin Energy      =      -1.0069346209142847 [Eh]
	 Correlation Energy        =      -1.3324748673981506 [Eh]
	 Total Energy              =    -307.0019821619100071 [Eh]

	 ================> DF-SCS-MP2 Energies <==================
	-----------------------------------------------------------
	 SCS Same-Spin Scale       =       0.3333333333333333 [-]
	 SCS Opposite-Spin Scale   =       1.2000000000000000 [-]
	 SCS Same-Spin Energy      =      -0.1085134154946220 [Eh]
	 SCS Opposite-Spin Energy  =      -1.2083215450971416 [Eh]
	 SCS Correlation Energy    =      -1.3168349605917635 [Eh]
	 SCS Total Energy          =    -306.9863422551036365 [Eh]
	-----------------------------------------------------------

  Dipole Moment: [D]
     X:    -0.0741      Y:     1.2870      Z:     0.0006     Total:     1.2892

*** Psi4 exiting successfully. Buy a developer a beer!
