                               Psi4 1.4a3.dev225

  ==> Input File <==

--------------------------------------------------------------------------
#psi4
#
memory 32 gb

molecule  {
0 1
  C        0.2606960     1.2022910    -0.0000270
  C       -1.1358900     1.2179210     0.0000200
  C       -1.8563270     0.0234090    -0.0000150
  C       -1.1686000    -1.1938320     0.0000190
  C        0.2243100    -1.2218560    -0.0000260
  C        0.9375760    -0.0198920     0.0000150
  O        2.3096970    -0.1121780     0.0000090
  H        0.8194350     2.1375370     0.0000180
  H       -1.6578250     2.1718150    -0.0000190
  H       -2.9427270     0.0394130     0.0000350
  H       -1.7202280    -2.1308750    -0.0000170
  H        0.7758460    -2.1577480     0.0000080
  H        2.6848965     0.8075514    -0.0000196
units angstrom
no_reorient  #important for SAPT in psi4, default
symmetry c1  #important for SAPT in psi4, default
}

set PROPERTIES_ORIGIN ["COM"]
properties('MP2/aug-cc-pvtz', properties = ['dipole'])
--------------------------------------------------------------------------

    Molecular point group: c1
  Charge       = 0
  Multiplicity = 1
  Basis Set: AUG-CC-PVTZ
    Blend: AUG-CC-PVTZ
  Basis Set: (AUG-CC-PVTZ AUX)
    Blend: AUG-CC-PVTZ-JKFIT

    Orbital Energies [Eh]
    ---------------------

    Doubly Occupied:

       1A    -20.595168     2A    -11.305998     3A    -11.245408
       4A    -11.243353     5A    -11.237435     6A    -11.230988
       7A    -11.230093     8A     -1.398010     9A     -1.146919
      10A     -1.020511    11A     -1.004230    12A     -0.845574
      13A     -0.821491    14A     -0.728358    15A     -0.684057
      16A     -0.652172    17A     -0.609293    18A     -0.592033
      19A     -0.589179    20A     -0.568546    21A     -0.517133
      22A     -0.495360    23A     -0.483891    24A     -0.343711
      25A     -0.316902

  @DF-RHF Final Energy:  -305.66861631126142

   => Energetics <=

    Nuclear Repulsion Energy =            270.5110414398158696
    One-Electron Energy =                -950.5476901676888701
    Two-Electron Energy =                 374.3680324166115270
    Total Energy =                       -305.6686163112614167
  Basis Set: (AUG-CC-PVTZ AUX)
    Blend: AUG-CC-PVTZ-RI
    Molecular point group: c1

    Geometry (in Angstrom), charge = 0, multiplicity = 1:

       Center              X                  Y                   Z               Mass
    ------------   -----------------  -----------------  -----------------  -----------------
         C            0.239130965791     1.211045637150    -0.000026802178    12.000000000000
         C           -1.157455034209     1.226675637150     0.000020197822    12.000000000000
         C           -1.877892034209     0.032163637150    -0.000014802178    12.000000000000
         C           -1.190165034209    -1.185077362850     0.000019197822    12.000000000000
         C            0.202744965791    -1.213101362850    -0.000025802178    12.000000000000
         C            0.916010965791    -0.011137362850     0.000015197822    12.000000000000
         O            2.288131965791    -0.103423362850     0.000009197822    15.994914619570
         H            0.797869965791     2.146291637150     0.000018197822     1.007825032230
         H           -1.679390034209     2.180569637150    -0.000018802178     1.007825032230
         H           -2.964292034209     0.048167637150     0.000035197822     1.007825032230
         H           -1.741793034209    -2.122120362850    -0.000016802178     1.007825032230
         H            0.754280965791    -2.148993362850     0.000008197822     1.007825032230
         H            2.663331465791     0.816306037150    -0.000019402178     1.007825032230

  Basis Set: AUG-CC-PVTZ
    Blend: AUG-CC-PVTZ
  Basis Set: (AUG-CC-PVTZ AUX)
    Blend: AUG-CC-PVTZ-JKFIT
	 Reference Energy          =    -305.6686163112614167 [Eh]
	 Singles Energy            =      -0.0000000000000000 [Eh]
	 Same-Spin Energy          =      -0.3256916637263114 [Eh]
	 Opposite-Spin Energy      =      -1.0075667602068124 [Eh]
	 Correlation Energy        =      -1.3332584239331238 [Eh]
	 Total Energy              =    -307.0018747351945194 [Eh]

	 ================> DF-SCS-MP2 Energies <==================
	-----------------------------------------------------------
	 SCS Same-Spin Scale       =       0.3333333333333333 [-]
	 SCS Opposite-Spin Scale   =       1.2000000000000000 [-]
	 SCS Same-Spin Energy      =      -0.1085638879087705 [Eh]
	 SCS Opposite-Spin Energy  =      -1.2090801122481747 [Eh]
	 SCS Correlation Energy    =      -1.3176440001569452 [Eh]
	 SCS Total Energy          =    -306.9862603114183344 [Eh]
	-----------------------------------------------------------

  Dipole Moment: [D]
     X:    -0.0675      Y:     1.2986      Z:    -0.0000     Total:     1.3004

*** Psi4 exiting successfully. Buy a developer a beer!
