                               Psi4 1.3.2 release

  ==> Input File <==

--------------------------------------------------------------------------
#psi4
#
memory 32 gb

molecule  {
0 1
  C        0.1771210     1.1521340    -0.0000674
  C       -1.1358940     1.2178730     0.0000410
  C       -1.8563260     0.0234010    -0.0000200
  C       -1.1685880    -1.1938670     0.0000370
  C        0.2242660    -1.2218040    -0.0000490
  C        0.9375920    -0.0198080     0.0000210
  O        2.3096620    -0.1122440    -0.0000150
  H        0.8193600     2.1376290    -0.0000120
  H       -1.6578230     2.1717680    -0.0000430
  H       -2.9427200     0.0394300     0.0001070
  H       -1.7202150    -2.1309040    -0.0000080
  H        0.7759750    -2.1575980     0.0000070
  H        2.6774850     0.7888930     0.0003320
units angstrom
no_reorient  #important for SAPT in psi4, default
symmetry c1  #important for SAPT in psi4, default
}

set PROPERTIES_ORIGIN ["COM"]
properties('MP2/aug-cc-pvtz', properties = ['dipole'])
--------------------------------------------------------------------------

    Molecular point group: c1
  Charge       = 0
  Multiplicity = 1
  Basis Set: AUG-CC-PVTZ
    Blend: AUG-CC-PVTZ
  Basis Set: (AUG-CC-PVTZ AUX)
    Blend: AUG-CC-PVTZ-JKFIT

    Orbital Energies [Eh]
    ---------------------

    Doubly Occupied:

       1A    -20.598395     2A    -11.305780     3A    -11.240755
       4A    -11.238771     5A    -11.235145     6A    -11.230059
       7A    -11.229622     8A     -1.404331     9A     -1.158077
      10A     -1.028819    11A     -1.003934    12A     -0.840213
      13A     -0.829235    14A     -0.733146    15A     -0.689607
      16A     -0.647048    17A     -0.606807    18A     -0.592801
      19A     -0.583998    20A     -0.576449    21A     -0.521569
      22A     -0.492233    23A     -0.479816    24A     -0.352398
      25A     -0.314713

  @DF-RHF Final Energy:  -305.65746680866170

   => Energetics <=

    Nuclear Repulsion Energy =            271.8374902617621842
    One-Electron Energy =                -953.1224734749624758
    Two-Electron Energy =                 375.6275164045386532
    Total Energy =                       -305.6574668086616953
  Basis Set: (AUG-CC-PVTZ AUX)
    Blend: AUG-CC-PVTZ-RI
    Molecular point group: c1

    Geometry (in Angstrom), charge = 0, multiplicity = 1:

       Center              X                  Y                   Z               Mass
    ------------   -----------------  -----------------  -----------------  -----------------
         C            0.166307355340     1.167492287941    -0.000064180937    12.000000000000
         C           -1.146707644660     1.233231287941     0.000044219063    12.000000000000
         C           -1.867139644660     0.038759287941    -0.000016780937    12.000000000000
         C           -1.179401644660    -1.178508712059     0.000040219063    12.000000000000
         C            0.213452355340    -1.206445712059    -0.000045780937    12.000000000000
         C            0.926778355340    -0.004449712059     0.000024219063    12.000000000000
         O            2.298848355340    -0.096885712059    -0.000011780937    15.994914619570
         H            0.808546355340     2.152987287941    -0.000008780937     1.007825032230
         H           -1.668636644660     2.187126287941    -0.000039780937     1.007825032230
         H           -2.953533644660     0.054788287941     0.000110219063     1.007825032230
         H           -1.731028644660    -2.115545712059    -0.000004780937     1.007825032230
         H            0.765161355340    -2.142239712059     0.000010219063     1.007825032230
         H            2.666671355340     0.804251287941     0.000335219063     1.007825032230

  Basis Set: AUG-CC-PVTZ
    Blend: AUG-CC-PVTZ
  Basis Set: (AUG-CC-PVTZ AUX)
    Blend: AUG-CC-PVTZ-JKFIT
	 Reference Energy          =    -305.6574668086616953 [Eh]
	 Singles Energy            =      -0.0000000000000000 [Eh]
	 Same-Spin Energy          =      -0.3259597533359208 [Eh]
	 Opposite-Spin Energy      =      -1.0074770855866286 [Eh]
	 Correlation Energy        =      -1.3334368389225495 [Eh]
	 Total Energy              =    -306.9909036475842186 [Eh]

	 ================> DF-SCS-MP2 Energies <==================
	-----------------------------------------------------------
	 SCS Same-Spin Scale       =       0.3333333333333333 [-]
	 SCS Opposite-Spin Scale   =       1.2000000000000000 [-]
	 SCS Same-Spin Energy      =      -0.1086532511119736 [Eh]
	 SCS Opposite-Spin Energy  =      -1.2089725027039544 [Eh]
	 SCS Correlation Energy    =      -1.3176257538159279 [Eh]
	 SCS Total Energy          =    -306.9750925624776414 [Eh]
	-----------------------------------------------------------

  Dipole Moment: [D]
     X:    -0.0651      Y:     1.2770      Z:     0.0006     Total:     1.2786

*** Psi4 exiting successfully. Buy a developer a beer!
