                               Psi4 1.4a3.dev225

  ==> Input File <==

--------------------------------------------------------------------------
#psi4
#
memory 32 gb

molecule  {
0 1
  C        0.2606960     1.2022910    -0.0000270
  C       -1.1358900     1.2179210     0.0000200
  C       -1.8563270     0.0234090    -0.0000150
  C       -1.1686000    -1.1938320     0.0000190
  C        0.2243100    -1.2218560    -0.0000260
  C        0.9375760    -0.0198920     0.0000150
  O        2.3096970    -0.1121780     0.0000090
  H        0.8194350     2.1375370     0.0000180
  H       -1.6578250     2.1718150    -0.0000190
  H       -2.9427270     0.0394130     0.0000350
  H       -1.7202280    -2.1308750    -0.0000170
  H        0.7758460    -2.1577480     0.0000080
  H        2.6962282     0.8353289    -0.0000204
units angstrom
no_reorient  #important for SAPT in psi4, default
symmetry c1  #important for SAPT in psi4, default
}

set PROPERTIES_ORIGIN ["COM"]
properties('MP2/aug-cc-pvtz', properties = ['dipole'])
--------------------------------------------------------------------------

    Molecular point group: c1
  Charge       = 0
  Multiplicity = 1
  Basis Set: AUG-CC-PVTZ
    Blend: AUG-CC-PVTZ
  Basis Set: (AUG-CC-PVTZ AUX)
    Blend: AUG-CC-PVTZ-JKFIT

    Orbital Energies [Eh]
    ---------------------

    Doubly Occupied:

       1A    -20.597420     2A    -11.305763     3A    -11.245255
       4A    -11.243248     5A    -11.237192     6A    -11.230839
       7A    -11.229882     8A     -1.392342     9A     -1.146380
      10A     -1.020311    11A     -1.003110    12A     -0.844339
      13A     -0.820180    14A     -0.724597    15A     -0.682661
      16A     -0.651693    17A     -0.608548    18A     -0.591865
      19A     -0.588311    20A     -0.566447    21A     -0.516899
      22A     -0.494950    23A     -0.483516    24A     -0.343580
      25A     -0.316552

  @DF-RHF Final Energy:  -305.66503506583183

   => Energetics <=

    Nuclear Repulsion Energy =            270.3462568842108453
    One-Electron Energy =                -950.2508267864968730
    Two-Electron Energy =                 374.2395348364542542
    Total Energy =                       -305.6650350658318303
  Basis Set: (AUG-CC-PVTZ AUX)
    Blend: AUG-CC-PVTZ-RI
    Molecular point group: c1

    Geometry (in Angstrom), charge = 0, multiplicity = 1:

       Center              X                  Y                   Z               Mass
    ------------   -----------------  -----------------  -----------------  -----------------
         C            0.239009526569     1.210747952073    -0.000026793605    12.000000000000
         C           -1.157576473431     1.226377952073     0.000020206395    12.000000000000
         C           -1.878013473431     0.031865952073    -0.000014793605    12.000000000000
         C           -1.190286473431    -1.185375047927     0.000019206395    12.000000000000
         C            0.202623526569    -1.213399047927    -0.000025793605    12.000000000000
         C            0.915889526569    -0.011435047927     0.000015206395    12.000000000000
         O            2.288010526569    -0.103721047927     0.000009206395    15.994914619570
         H            0.797748526569     2.145993952073     0.000018206395     1.007825032230
         H           -1.679511473431     2.180271952073    -0.000018793605     1.007825032230
         H           -2.964413473431     0.047869952073     0.000035206395     1.007825032230
         H           -1.741914473431    -2.122418047927    -0.000016793605     1.007825032230
         H            0.754159526569    -2.149291047927     0.000008206395     1.007825032230
         H            2.674541726569     0.843785852073    -0.000020193605     1.007825032230

  Basis Set: AUG-CC-PVTZ
    Blend: AUG-CC-PVTZ
  Basis Set: (AUG-CC-PVTZ AUX)
    Blend: AUG-CC-PVTZ-JKFIT
	 Reference Energy          =    -305.6650350658318303 [Eh]
	 Singles Energy            =      -0.0000000000000000 [Eh]
	 Same-Spin Energy          =      -0.3260668360981397 [Eh]
	 Opposite-Spin Energy      =      -1.0085462087841690 [Eh]
	 Correlation Energy        =      -1.3346130448823088 [Eh]
	 Total Energy              =    -306.9996481107141335 [Eh]

	 ================> DF-SCS-MP2 Energies <==================
	-----------------------------------------------------------
	 SCS Same-Spin Scale       =       0.3333333333333333 [-]
	 SCS Opposite-Spin Scale   =       1.2000000000000000 [-]
	 SCS Same-Spin Energy      =      -0.1086889453660466 [Eh]
	 SCS Opposite-Spin Energy  =      -1.2102554505410028 [Eh]
	 SCS Correlation Energy    =      -1.3189443959070495 [Eh]
	 SCS Total Energy          =    -306.9839794617388975 [Eh]
	-----------------------------------------------------------

  Dipole Moment: [D]
     X:    -0.0448      Y:     1.3208      Z:    -0.0000     Total:     1.3215

*** Psi4 exiting successfully. Buy a developer a beer!
