                               Psi4 1.3.2 release

  ==> Input File <==

--------------------------------------------------------------------------
#psi4
#
memory 32 gb

molecule  {
0 1
  C        0.1366841     1.1248800    -0.0000634
  C       -1.1358940     1.2178730     0.0000410
  C       -1.8563260     0.0234010    -0.0000200
  C       -1.1685880    -1.1938670     0.0000370
  C        0.2242660    -1.2218040    -0.0000490
  C        0.9375920    -0.0198080     0.0000210
  O        2.3096620    -0.1122440    -0.0000150
  H        0.8193600     2.1376290    -0.0000120
  H       -1.6578230     2.1717680    -0.0000430
  H       -2.9427200     0.0394300     0.0001070
  H       -1.7202150    -2.1309040    -0.0000080
  H        0.7759750    -2.1575980     0.0000070
  H        2.6774850     0.7888930     0.0003320
units angstrom
no_reorient  #important for SAPT in psi4, default
symmetry c1  #important for SAPT in psi4, default
}

set PROPERTIES_ORIGIN ["COM"]
properties('MP2/aug-cc-pvtz', properties = ['dipole'])
--------------------------------------------------------------------------

    Molecular point group: c1
  Charge       = 0
  Multiplicity = 1
  Basis Set: AUG-CC-PVTZ
    Blend: AUG-CC-PVTZ
  Basis Set: (AUG-CC-PVTZ AUX)
    Blend: AUG-CC-PVTZ-JKFIT

    Orbital Energies [Eh]
    ---------------------

    Doubly Occupied:

       1A    -20.600712     2A    -11.306201     3A    -11.239726
       4A    -11.239452     5A    -11.230694     6A    -11.229876
       7A    -11.229411     8A     -1.405459     9A     -1.164818
      10A     -1.033644    11A     -1.003475    12A     -0.837980
      13A     -0.832487    14A     -0.734848    15A     -0.692739
      16A     -0.645508    17A     -0.607941    18A     -0.594495
      19A     -0.581267    20A     -0.576326    21A     -0.523269
      22A     -0.497267    23A     -0.468485    24A     -0.356951
      25A     -0.313875

  @DF-RHF Final Energy:  -305.64122795934219

   => Energetics <=

    Nuclear Repulsion Energy =            272.4966653554941445
    One-Electron Energy =                -954.3819804984224220
    Two-Electron Energy =                 376.2440871835860321
    Total Energy =                       -305.6412279593421886
  Basis Set: (AUG-CC-PVTZ AUX)
    Blend: AUG-CC-PVTZ-RI
    Molecular point group: c1

    Geometry (in Angstrom), charge = 0, multiplicity = 1:

       Center              X                  Y                   Z               Mass
    ------------   -----------------  -----------------  -----------------  -----------------
         C            0.131030314739     1.143715973126    -0.000060691348    12.000000000000
         C           -1.141547785261     1.236708973126     0.000043708652    12.000000000000
         C           -1.861979785261     0.042236973126    -0.000017291348    12.000000000000
         C           -1.174241785261    -1.175031026874     0.000039708652    12.000000000000
         C            0.218612214739    -1.202968026874    -0.000046291348    12.000000000000
         C            0.931938214739    -0.000972026874     0.000023708652    12.000000000000
         O            2.304008214739    -0.093408026874    -0.000012291348    15.994914619570
         H            0.813706214739     2.156464973126    -0.000009291348     1.007825032230
         H           -1.663476785261     2.190603973126    -0.000040291348     1.007825032230
         H           -2.948373785261     0.058265973126     0.000109708652     1.007825032230
         H           -1.725868785261    -2.112068026874    -0.000005291348     1.007825032230
         H            0.770321214739    -2.138762026874     0.000009708652     1.007825032230
         H            2.671831214739     0.807728973126     0.000334708652     1.007825032230

  Basis Set: AUG-CC-PVTZ
    Blend: AUG-CC-PVTZ
  Basis Set: (AUG-CC-PVTZ AUX)
    Blend: AUG-CC-PVTZ-JKFIT
	 Reference Energy          =    -305.6412279593421886 [Eh]
	 Singles Energy            =      -0.0000000000000000 [Eh]
	 Same-Spin Energy          =      -0.3263383950437233 [Eh]
	 Opposite-Spin Energy      =      -1.0082290932000553 [Eh]
	 Correlation Energy        =      -1.3345674882437786 [Eh]
	 Total Energy              =    -306.9757954475859947 [Eh]

	 ================> DF-SCS-MP2 Energies <==================
	-----------------------------------------------------------
	 SCS Same-Spin Scale       =       0.3333333333333333 [-]
	 SCS Opposite-Spin Scale   =       1.2000000000000000 [-]
	 SCS Same-Spin Energy      =      -0.1087794650145744 [Eh]
	 SCS Opposite-Spin Energy  =      -1.2098749118400662 [Eh]
	 SCS Correlation Energy    =      -1.3186543768546406 [Eh]
	 SCS Total Energy          =    -306.9598823361968130 [Eh]
	-----------------------------------------------------------

  Dipole Moment: [D]
     X:    -0.0762      Y:     1.2511      Z:     0.0006     Total:     1.2534

*** Psi4 exiting successfully. Buy a developer a beer!
