                               Psi4 1.3.2 release

  ==> Input File <==

--------------------------------------------------------------------------
#psi4
#
memory 32 gb

molecule  {
0 1
  C        0.2821563     1.2139538    -0.0000768
  C       -1.1358940     1.2178730     0.0000410
  C       -1.8563260     0.0234010    -0.0000200
  C       -1.1685880    -1.1938670     0.0000370
  C        0.2242660    -1.2218040    -0.0000490
  C        0.9375920    -0.0198080     0.0000210
  O        2.3096620    -0.1122440    -0.0000150
  H        0.8193600     2.1376290    -0.0000120
  H       -1.6578230     2.1717680    -0.0000430
  H       -2.9427200     0.0394300     0.0001070
  H       -1.7202150    -2.1309040    -0.0000080
  H        0.7759750    -2.1575980     0.0000070
  H        2.6774850     0.7888930     0.0003320
units angstrom
no_reorient  #important for SAPT in psi4, default
symmetry c1  #important for SAPT in psi4, default
}

set PROPERTIES_ORIGIN ["COM"]
properties('MP2/aug-cc-pvtz', properties = ['dipole'])
--------------------------------------------------------------------------

    Molecular point group: c1
  Charge       = 0
  Multiplicity = 1
  Basis Set: AUG-CC-PVTZ
    Blend: AUG-CC-PVTZ
  Basis Set: (AUG-CC-PVTZ AUX)
    Blend: AUG-CC-PVTZ-JKFIT

    Orbital Energies [Eh]
    ---------------------

    Doubly Occupied:

       1A    -20.592343     2A    -11.306495     3A    -11.247956
       4A    -11.244190     5A    -11.237489     6A    -11.231467
       7A    -11.230510     8A     -1.401608     9A     -1.145127
      10A     -1.018967    11A     -1.005299    12A     -0.848333
      13A     -0.820828    14A     -0.730787    15A     -0.684182
      16A     -0.654476    17A     -0.611598    18A     -0.592885
      19A     -0.589124    20A     -0.568199    21A     -0.516427
      22A     -0.497653    23A     -0.482505    24A     -0.341791
      25A     -0.317869

  @DF-RHF Final Energy:  -305.66937741484634

   => Energetics <=

    Nuclear Repulsion Energy =            270.3478942023075433
    One-Electron Energy =                -950.1983263480211690
    Two-Electron Energy =                 374.1810547308672881
    Total Energy =                       -305.6693774148463376
  Basis Set: (AUG-CC-PVTZ AUX)
    Blend: AUG-CC-PVTZ-RI
    Molecular point group: c1

    Geometry (in Angstrom), charge = 0, multiplicity = 1:

       Center              X                  Y                   Z               Mass
    ------------   -----------------  -----------------  -----------------  -----------------
         C            0.257939862845     1.221423711828    -0.000072381471    12.000000000000
         C           -1.160110437155     1.225342911828     0.000045418529    12.000000000000
         C           -1.880542437155     0.030870911828    -0.000015581471    12.000000000000
         C           -1.192804437155    -1.186397088172     0.000041418529    12.000000000000
         C            0.200049562845    -1.214334088172    -0.000044581471    12.000000000000
         C            0.913375562845    -0.012338088172     0.000025418529    12.000000000000
         O            2.285445562845    -0.104774088172    -0.000010581471    15.994914619570
         H            0.795143562845     2.145098911828    -0.000007581471     1.007825032230
         H           -1.682039437155     2.179237911828    -0.000038581471     1.007825032230
         H           -2.966936437155     0.046899911828     0.000111418529     1.007825032230
         H           -1.744431437155    -2.123434088172    -0.000003581471     1.007825032230
         H            0.751758562845    -2.150128088172     0.000011418529     1.007825032230
         H            2.653268562845     0.796362911828     0.000336418529     1.007825032230

  Basis Set: AUG-CC-PVTZ
    Blend: AUG-CC-PVTZ
  Basis Set: (AUG-CC-PVTZ AUX)
    Blend: AUG-CC-PVTZ-JKFIT
	 Reference Energy          =    -305.6693774148463376 [Eh]
	 Singles Energy            =      -0.0000000000000000 [Eh]
	 Same-Spin Energy          =      -0.3253583591773289 [Eh]
	 Opposite-Spin Energy      =      -1.0070103419215923 [Eh]
	 Correlation Energy        =      -1.3323687010989214 [Eh]
	 Total Energy              =    -307.0017461159452523 [Eh]

	 ================> DF-SCS-MP2 Energies <==================
	-----------------------------------------------------------
	 SCS Same-Spin Scale       =       0.3333333333333333 [-]
	 SCS Opposite-Spin Scale   =       1.2000000000000000 [-]
	 SCS Same-Spin Energy      =      -0.1084527863924430 [Eh]
	 SCS Opposite-Spin Energy  =      -1.2084124103059108 [Eh]
	 SCS Correlation Energy    =      -1.3168651966983538 [Eh]
	 SCS Total Energy          =    -306.9862426115446965 [Eh]
	-----------------------------------------------------------

  Dipole Moment: [D]
     X:    -0.0938      Y:     1.2776      Z:     0.0006     Total:     1.2810

*** Psi4 exiting successfully. Buy a developer a beer!
