                               Psi4 1.3.2 release

  ==> Input File <==

--------------------------------------------------------------------------
#psi4
#
memory 32 gb

molecule  {
0 1
  C        0.3921798     1.2663840    -0.0000855
  C       -1.1358940     1.2178730     0.0000410
  C       -1.8563260     0.0234010    -0.0000200
  C       -1.1685880    -1.1938670     0.0000370
  C        0.2242660    -1.2218040    -0.0000490
  C        0.9375920    -0.0198080     0.0000210
  O        2.3096620    -0.1122440    -0.0000150
  H        0.8193600     2.1376290    -0.0000120
  H       -1.6578230     2.1717680    -0.0000430
  H       -2.9427200     0.0394300     0.0001070
  H       -1.7202150    -2.1309040    -0.0000080
  H        0.7759750    -2.1575980     0.0000070
  H        2.6774850     0.7888930     0.0003320
units angstrom
no_reorient  #important for SAPT in psi4, default
symmetry c1  #important for SAPT in psi4, default
}

set PROPERTIES_ORIGIN ["COM"]
properties('MP2/aug-cc-pvtz', properties = ['dipole'])
--------------------------------------------------------------------------

    Molecular point group: c1
  Charge       = 0
  Multiplicity = 1
  Basis Set: AUG-CC-PVTZ
    Blend: AUG-CC-PVTZ
  Basis Set: (AUG-CC-PVTZ AUX)
    Blend: AUG-CC-PVTZ-JKFIT

    Orbital Energies [Eh]
    ---------------------

    Doubly Occupied:

       1A    -20.586175     2A    -11.309604     3A    -11.259159
       4A    -11.248482     5A    -11.237496     6A    -11.233831
       7A    -11.232297     8A     -1.399310     9A     -1.136948
      10A     -1.013249    11A     -1.006057    12A     -0.858559
      13A     -0.814726    14A     -0.732888    15A     -0.686534
      16A     -0.664733    17A     -0.618967    18A     -0.592382
      19A     -0.586259    20A     -0.561665    21A     -0.519915
      22A     -0.489935    23A     -0.476094    24A     -0.332813
      25A     -0.321984

  @DF-RHF Final Energy:  -305.64134701778295

   => Energetics <=

    Nuclear Repulsion Energy =            269.1009009652833583
    One-Electron Energy =                -947.6443722939699228
    Two-Electron Energy =                 372.9021243109036163
    Total Energy =                       -305.6413470177829481
  Basis Set: (AUG-CC-PVTZ AUX)
    Blend: AUG-CC-PVTZ-RI
    Molecular point group: c1

    Geometry (in Angstrom), charge = 0, multiplicity = 1:

       Center              X                  Y                   Z               Mass
    ------------   -----------------  -----------------  -----------------  -----------------
         C            0.353924062341     1.267163674441    -0.000079971327    12.000000000000
         C           -1.174149737659     1.218652674441     0.000046528673    12.000000000000
         C           -1.894581737659     0.024180674441    -0.000014471327    12.000000000000
         C           -1.206843737659    -1.193087325559     0.000042528673    12.000000000000
         C            0.186010262341    -1.221024325559    -0.000043471327    12.000000000000
         C            0.899336262341    -0.019028325559     0.000026528673    12.000000000000
         O            2.271406262341    -0.111464325559    -0.000009471327    15.994914619570
         H            0.781104262341     2.138408674441    -0.000006471327     1.007825032230
         H           -1.696078737659     2.172547674441    -0.000037471327     1.007825032230
         H           -2.980975737659     0.040209674441     0.000112528673     1.007825032230
         H           -1.758470737659    -2.130124325559    -0.000002471327     1.007825032230
         H            0.737719262341    -2.156818325559     0.000012528673     1.007825032230
         H            2.639229262341     0.789672674441     0.000337528673     1.007825032230

  Basis Set: AUG-CC-PVTZ
    Blend: AUG-CC-PVTZ
  Basis Set: (AUG-CC-PVTZ AUX)
    Blend: AUG-CC-PVTZ-JKFIT
	 Reference Energy          =    -305.6413470177829481 [Eh]
	 Singles Energy            =      -0.0000000000000000 [Eh]
	 Same-Spin Energy          =      -0.3252659120197848 [Eh]
	 Opposite-Spin Energy      =      -1.0087997816677077 [Eh]
	 Correlation Energy        =      -1.3340656936874926 [Eh]
	 Total Energy              =    -306.9754127114704261 [Eh]

	 ================> DF-SCS-MP2 Energies <==================
	-----------------------------------------------------------
	 SCS Same-Spin Scale       =       0.3333333333333333 [-]
	 SCS Opposite-Spin Scale   =       1.2000000000000000 [-]
	 SCS Same-Spin Energy      =      -0.1084219706732616 [Eh]
	 SCS Opposite-Spin Energy  =      -1.2105597380012492 [Eh]
	 SCS Correlation Energy    =      -1.3189817086745108 [Eh]
	 SCS Total Energy          =    -306.9603287264574760 [Eh]
	-----------------------------------------------------------

  Dipole Moment: [D]
     X:    -0.1774      Y:     1.2100      Z:     0.0006     Total:     1.2229

*** Psi4 exiting successfully. Buy a developer a beer!
