                               Psi4 1.3.2 release

  ==> Input File <==

--------------------------------------------------------------------------
#psi4
#
memory 32 gb

molecule  {
0 1
  C        0.2607240     1.2023270    -0.0000750
  C       -1.1358940     1.2178730     0.0000410
  C       -1.8563260     0.0234010    -0.0000200
  C       -1.1685880    -1.1938670     0.0000370
  C        0.2242660    -1.2218040    -0.0000490
  C        0.9375920    -0.0198080     0.0000210
  O        2.3096620    -0.1122440    -0.0000150
  H        0.8193600     2.1376290    -0.0000120
  H       -1.6578230     2.1717680    -0.0000430
  H       -2.9427200     0.0394300     0.0001070
  H       -1.7202150    -2.1309040    -0.0000080
  H        0.7759750    -2.1575980     0.0000070
  H        2.6396942     0.6963087     0.0002963
units angstrom
no_reorient  #important for SAPT in psi4, default
symmetry c1  #important for SAPT in psi4, default
}

set PROPERTIES_ORIGIN ["COM"]
properties('MP2/aug-cc-pvtz', properties = ['dipole'])
--------------------------------------------------------------------------

    Molecular point group: c1
  Charge       = 0
  Multiplicity = 1
  Basis Set: AUG-CC-PVTZ
    Blend: AUG-CC-PVTZ
  Basis Set: (AUG-CC-PVTZ AUX)
    Blend: AUG-CC-PVTZ-JKFIT

    Orbital Energies [Eh]
    ---------------------

    Doubly Occupied:

       1A    -20.584367     2A    -11.307051     3A    -11.246067
       4A    -11.243840     5A    -11.238522     6A    -11.231743
       7A    -11.231028     8A     -1.427206     9A     -1.149472
      10A     -1.021489    11A     -1.009723    12A     -0.853058
      13A     -0.826989    14A     -0.744355    15A     -0.688169
      16A     -0.654230    17A     -0.612129    18A     -0.593197
      19A     -0.592794    20A     -0.575728    21A     -0.518173
      22A     -0.496859    23A     -0.485589    24A     -0.344301
      25A     -0.318468

  @DF-RHF Final Energy:  -305.66541988145224

   => Energetics <=

    Nuclear Repulsion Energy =            271.2591532900570428
    One-Electron Energy =                -951.8600515886158746
    Two-Electron Energy =                 374.9354784171065944
    Total Energy =                       -305.6654198814522374
  Basis Set: (AUG-CC-PVTZ AUX)
    Blend: AUG-CC-PVTZ-RI
    Molecular point group: c1

    Geometry (in Angstrom), charge = 0, multiplicity = 1:

       Center              X                  Y                   Z               Mass
    ------------   -----------------  -----------------  -----------------  -----------------
         C            0.239647378445     1.212272728058    -0.000070428567    12.000000000000
         C           -1.156970621555     1.227818728058     0.000045571433    12.000000000000
         C           -1.877402621555     0.033346728058    -0.000015428567    12.000000000000
         C           -1.189664621555    -1.183921271942     0.000041571433    12.000000000000
         C            0.203189378445    -1.211858271942    -0.000044428567    12.000000000000
         C            0.916515378445    -0.009862271942     0.000025571433    12.000000000000
         O            2.288585378445    -0.102298271942    -0.000010428567    15.994914619570
         H            0.798283378445     2.147574728058    -0.000007428567     1.007825032230
         H           -1.678899621555     2.181713728058    -0.000038428567     1.007825032230
         H           -2.963796621555     0.049375728058     0.000111571433     1.007825032230
         H           -1.741291621555    -2.120958271942    -0.000003428567     1.007825032230
         H            0.754898378445    -2.147652271942     0.000011571433     1.007825032230
         H            2.618617578445     0.706254428058     0.000300871433     1.007825032230

  Basis Set: AUG-CC-PVTZ
    Blend: AUG-CC-PVTZ
  Basis Set: (AUG-CC-PVTZ AUX)
    Blend: AUG-CC-PVTZ-JKFIT
	 Reference Energy          =    -305.6654198814522374 [Eh]
	 Singles Energy            =      -0.0000000000000000 [Eh]
	 Same-Spin Energy          =      -0.3241805770088346 [Eh]
	 Opposite-Spin Energy      =      -1.0039167147055981 [Eh]
	 Correlation Energy        =      -1.3280972917144327 [Eh]
	 Total Energy              =    -306.9935171731666514 [Eh]

	 ================> DF-SCS-MP2 Energies <==================
	-----------------------------------------------------------
	 SCS Same-Spin Scale       =       0.3333333333333333 [-]
	 SCS Opposite-Spin Scale   =       1.2000000000000000 [-]
	 SCS Same-Spin Energy      =      -0.1080601923362782 [Eh]
	 SCS Opposite-Spin Energy  =      -1.2047000576467177 [Eh]
	 SCS Correlation Energy    =      -1.3127602499829960 [Eh]
	 SCS Total Energy          =    -306.9781801314352379 [Eh]
	-----------------------------------------------------------

  Dipole Moment: [D]
     X:    -0.1700      Y:     1.2086      Z:     0.0006     Total:     1.2205

*** Psi4 exiting successfully. Buy a developer a beer!
