                               Psi4 1.3.2 release

  ==> Input File <==

--------------------------------------------------------------------------
#psi4
#
memory 32 gb

molecule  {
0 1
  C        0.2607240     1.2023270    -0.0000750
  C       -1.1358940     1.2178730     0.0000410
  C       -1.8563260     0.0234010    -0.0000200
  C       -1.1685880    -1.1938670     0.0000370
  C        0.2242660    -1.2218040    -0.0000490
  C        0.9394142     0.0041238     0.0000302
  O        2.3096620    -0.1122440    -0.0000150
  H        0.8193600     2.1376290    -0.0000120
  H       -1.6578230     2.1717680    -0.0000430
  H       -2.9427200     0.0394300     0.0001070
  H       -1.7202150    -2.1309040    -0.0000080
  H        0.7759750    -2.1575980     0.0000070
  H        2.6774850     0.7888930     0.0003320
units angstrom
no_reorient  #important for SAPT in psi4, default
symmetry c1  #important for SAPT in psi4, default
}

set PROPERTIES_ORIGIN ["COM"]
properties('MP2/aug-cc-pvtz', properties = ['dipole'])
--------------------------------------------------------------------------

    Molecular point group: c1
  Charge       = 0
  Multiplicity = 1
  Basis Set: AUG-CC-PVTZ
    Blend: AUG-CC-PVTZ
  Basis Set: (AUG-CC-PVTZ AUX)
    Blend: AUG-CC-PVTZ-JKFIT

    Orbital Energies [Eh]
    ---------------------

    Doubly Occupied:

       1A    -20.594528     2A    -11.306044     3A    -11.245558
       4A    -11.242854     5A    -11.235414     6A    -11.233418
       7A    -11.230318     8A     -1.403153     9A     -1.147224
      10A     -1.020868    11A     -1.004552    12A     -0.845670
      13A     -0.823612    14A     -0.729811    15A     -0.685916
      16A     -0.651694    17A     -0.608104    18A     -0.592229
      19A     -0.590320    20A     -0.571316    21A     -0.517186
      22A     -0.495706    23A     -0.484229    24A     -0.344372
      25A     -0.316648

  @DF-RHF Final Energy:  -305.66930969833857

   => Energetics <=

    Nuclear Repulsion Energy =            270.6144283026823700
    One-Electron Energy =                -950.7259886168275216
    Two-Electron Energy =                 374.4422506158066426
    Total Energy =                       -305.6693096983385658
  Basis Set: (AUG-CC-PVTZ AUX)
    Blend: AUG-CC-PVTZ-RI
    Molecular point group: c1

    Geometry (in Angstrom), charge = 0, multiplicity = 1:

       Center              X                  Y                   Z               Mass
    ------------   -----------------  -----------------  -----------------  -----------------
         C            0.239009865415     1.208226760064    -0.000071985101    12.000000000000
         C           -1.157608134585     1.223772760064     0.000044014899    12.000000000000
         C           -1.878040134585     0.029300760064    -0.000016985101    12.000000000000
         C           -1.190302134585    -1.187967239936     0.000040014899    12.000000000000
         C            0.202551865415    -1.215904239936    -0.000045985101    12.000000000000
         C            0.917700065415     0.010023560064     0.000033214899    12.000000000000
         O            2.287947865415    -0.106344239936    -0.000011985101    15.994914619570
         H            0.797645865415     2.143528760064    -0.000008985101     1.007825032230
         H           -1.679537134585     2.177667760064    -0.000039985101     1.007825032230
         H           -2.964434134585     0.045329760064     0.000110014899     1.007825032230
         H           -1.741929134585    -2.125004239936    -0.000004985101     1.007825032230
         H            0.754260865415    -2.151698239936     0.000010014899     1.007825032230
         H            2.655770865415     0.794792760064     0.000335014899     1.007825032230

  Basis Set: AUG-CC-PVTZ
    Blend: AUG-CC-PVTZ
  Basis Set: (AUG-CC-PVTZ AUX)
    Blend: AUG-CC-PVTZ-JKFIT
	 Reference Energy          =    -305.6693096983385658 [Eh]
	 Singles Energy            =      -0.0000000000000000 [Eh]
	 Same-Spin Energy          =      -0.3254416808251404 [Eh]
	 Opposite-Spin Energy      =      -1.0070819265184916 [Eh]
	 Correlation Energy        =      -1.3325236073436320 [Eh]
	 Total Energy              =    -307.0018333056822257 [Eh]

	 ================> DF-SCS-MP2 Energies <==================
	-----------------------------------------------------------
	 SCS Same-Spin Scale       =       0.3333333333333333 [-]
	 SCS Opposite-Spin Scale   =       1.2000000000000000 [-]
	 SCS Same-Spin Energy      =      -0.1084805602750468 [Eh]
	 SCS Opposite-Spin Energy  =      -1.2084983118221899 [Eh]
	 SCS Correlation Energy    =      -1.3169788720972366 [Eh]
	 SCS Total Energy          =    -306.9862885704358177 [Eh]
	-----------------------------------------------------------

  Dipole Moment: [D]
     X:    -0.0713      Y:     1.2871      Z:     0.0006     Total:     1.2890

*** Psi4 exiting successfully. Buy a developer a beer!
