                               Psi4 1.3.2 release

  ==> Input File <==

--------------------------------------------------------------------------
#psi4
#
memory 32 gb

molecule  {
0 1
  C        0.3037882     1.2252049    -0.0000786
  C       -1.1358940     1.2178730     0.0000410
  C       -1.8563260     0.0234010    -0.0000200
  C       -1.1685880    -1.1938670     0.0000370
  C        0.2242660    -1.2218040    -0.0000490
  C        0.9375920    -0.0198080     0.0000210
  O        2.3096620    -0.1122440    -0.0000150
  H        0.8193600     2.1376290    -0.0000120
  H       -1.6578230     2.1717680    -0.0000430
  H       -2.9427200     0.0394300     0.0001070
  H       -1.7202150    -2.1309040    -0.0000080
  H        0.7759750    -2.1575980     0.0000070
  H        2.6774850     0.7888930     0.0003320
units angstrom
no_reorient  #important for SAPT in psi4, default
symmetry c1  #important for SAPT in psi4, default
}

set PROPERTIES_ORIGIN ["COM"]
properties('MP2/aug-cc-pvtz', properties = ['dipole'])
--------------------------------------------------------------------------

    Molecular point group: c1
  Charge       = 0
  Multiplicity = 1
  Basis Set: AUG-CC-PVTZ
    Blend: AUG-CC-PVTZ
  Basis Set: (AUG-CC-PVTZ AUX)
    Blend: AUG-CC-PVTZ-JKFIT

    Orbital Energies [Eh]
    ---------------------

    Doubly Occupied:

       1A    -20.591106     2A    -11.306926     3A    -11.250360
       4A    -11.244992     5A    -11.237411     6A    -11.231879
       7A    -11.230822     8A     -1.401100     9A     -1.143148
      10A     -1.017445    11A     -1.005546    12A     -0.850228
      13A     -0.819356    14A     -0.730770    15A     -0.683768
      16A     -0.656647    17A     -0.613485    18A     -0.593211
      19A     -0.588481    20A     -0.566617    21A     -0.516027
      22A     -0.498529    23A     -0.480990    24A     -0.339846
      25A     -0.318636

  @DF-RHF Final Energy:  -305.66689933336926

   => Energetics <=

    Nuclear Repulsion Energy =            270.0788467881333759
    One-Electron Energy =                -949.6568395591120861
    Two-Electron Energy =                 373.9110934376093951
    Total Energy =                       -305.6668993333692583
  Basis Set: (AUG-CC-PVTZ AUX)
    Blend: AUG-CC-PVTZ-RI
    Molecular point group: c1

    Geometry (in Angstrom), charge = 0, multiplicity = 1:

       Center              X                  Y                   Z               Mass
    ------------   -----------------  -----------------  -----------------  -----------------
         C            0.276811473047     1.231239140596    -0.000073951786    12.000000000000
         C           -1.162870726953     1.223907240596     0.000045648214    12.000000000000
         C           -1.883302726953     0.029435240596    -0.000015351786    12.000000000000
         C           -1.195564726953    -1.187832759404     0.000041648214    12.000000000000
         C            0.197289273047    -1.215769759404    -0.000044351786    12.000000000000
         C            0.910615273047    -0.013773759404     0.000025648214    12.000000000000
         O            2.282685273047    -0.106209759404    -0.000010351786    15.994914619570
         H            0.792383273047     2.143663240596    -0.000007351786     1.007825032230
         H           -1.684799726953     2.177802240596    -0.000038351786     1.007825032230
         H           -2.969696726953     0.045464240596     0.000111648214     1.007825032230
         H           -1.747191726953    -2.124869759404    -0.000003351786     1.007825032230
         H            0.748998273047    -2.151563759404     0.000011648214     1.007825032230
         H            2.650508273047     0.794927240596     0.000336648214     1.007825032230

  Basis Set: AUG-CC-PVTZ
    Blend: AUG-CC-PVTZ
  Basis Set: (AUG-CC-PVTZ AUX)
    Blend: AUG-CC-PVTZ-JKFIT
	 Reference Energy          =    -305.6668993333692583 [Eh]
	 Singles Energy            =      -0.0000000000000000 [Eh]
	 Same-Spin Energy          =      -0.3252973202904379 [Eh]
	 Opposite-Spin Energy      =      -1.0071869957608004 [Eh]
	 Correlation Energy        =      -1.3324843160512383 [Eh]
	 Total Energy              =    -306.9993836494205084 [Eh]

	 ================> DF-SCS-MP2 Energies <==================
	-----------------------------------------------------------
	 SCS Same-Spin Scale       =       0.3333333333333333 [-]
	 SCS Opposite-Spin Scale   =       1.2000000000000000 [-]
	 SCS Same-Spin Energy      =      -0.1084324400968126 [Eh]
	 SCS Opposite-Spin Energy  =      -1.2086243949129605 [Eh]
	 SCS Correlation Energy    =      -1.3170568350097731 [Eh]
	 SCS Total Energy          =    -306.9839561683790521 [Eh]
	-----------------------------------------------------------

  Dipole Moment: [D]
     X:    -0.1071      Y:     1.2687      Z:     0.0006     Total:     1.2732

*** Psi4 exiting successfully. Buy a developer a beer!
