                               Psi4 1.3.2 release

  ==> Input File <==

--------------------------------------------------------------------------
#psi4
#
memory 32 gb

molecule  {
0 1
  C        0.2607240     1.2023270    -0.0000750
  C       -1.1358940     1.2178730     0.0000410
  C       -1.8563260     0.0234010    -0.0000200
  C       -1.1685880    -1.1938670     0.0000370
  C        0.2242660    -1.2218040    -0.0000490
  C        0.9375920    -0.0198080     0.0000210
  O        2.2098882    -0.1055223    -0.0000124
  H        0.8193600     2.1376290    -0.0000120
  H       -1.6578230     2.1717680    -0.0000430
  H       -2.9427200     0.0394300     0.0001070
  H       -1.7202150    -2.1309040    -0.0000080
  H        0.7759750    -2.1575980     0.0000070
  H        2.6774850     0.7888930     0.0003320
units angstrom
no_reorient  #important for SAPT in psi4, default
symmetry c1  #important for SAPT in psi4, default
}

set PROPERTIES_ORIGIN ["COM"]
properties('MP2/aug-cc-pvtz', properties = ['dipole'])
--------------------------------------------------------------------------

    Molecular point group: c1
  Charge       = 0
  Multiplicity = 1
  Basis Set: AUG-CC-PVTZ
    Blend: AUG-CC-PVTZ
  Basis Set: (AUG-CC-PVTZ AUX)
    Blend: AUG-CC-PVTZ-JKFIT

    Orbital Energies [Eh]
    ---------------------

    Doubly Occupied:

       1A    -20.601830     2A    -11.300350     3A    -11.241263
       4A    -11.239344     5A    -11.227968     6A    -11.222132
       7A    -11.221642     8A     -1.444548     9A     -1.140365
      10A     -1.016333    11A     -0.998565    12A     -0.853856
      13A     -0.824982    14A     -0.743262    15A     -0.682426
      16A     -0.661840    17A     -0.617788    18A     -0.608136
      19A     -0.586654    20A     -0.562190    21A     -0.514415
      22A     -0.487371    23A     -0.478591    24A     -0.339846
      25A     -0.304704

  @DF-RHF Final Energy:  -305.66254854602539

   => Energetics <=

    Nuclear Repulsion Energy =            273.3431995582334366
    One-Electron Energy =                -956.1706932620155612
    Two-Electron Energy =                 377.1649451577567334
    Total Energy =                       -305.6625485460253913
  Basis Set: (AUG-CC-PVTZ AUX)
    Blend: AUG-CC-PVTZ-RI
    Molecular point group: c1

    Geometry (in Angstrom), charge = 0, multiplicity = 1:

       Center              X                  Y                   Z               Mass
    ------------   -----------------  -----------------  -----------------  -----------------
         C            0.256212202007     1.210137277074    -0.000071253371    12.000000000000
         C           -1.140405797993     1.225683277074     0.000044746629    12.000000000000
         C           -1.860837797993     0.031211277074    -0.000016253371    12.000000000000
         C           -1.173099797993    -1.186056722926     0.000040746629    12.000000000000
         C            0.219754202007    -1.213993722926    -0.000045253371    12.000000000000
         C            0.933080202007    -0.011997722926     0.000024746629    12.000000000000
         O            2.205376402007    -0.097712022926    -0.000008653371    15.994914619570
         H            0.814848202007     2.145439277074    -0.000008253371     1.007825032230
         H           -1.662334797993     2.179578277074    -0.000039253371     1.007825032230
         H           -2.947231797993     0.047240277074     0.000110746629     1.007825032230
         H           -1.724726797993    -2.123093722926    -0.000004253371     1.007825032230
         H            0.771463202007    -2.149787722926     0.000010746629     1.007825032230
         H            2.672973202007     0.796703277074     0.000335746629     1.007825032230

  Basis Set: AUG-CC-PVTZ
    Blend: AUG-CC-PVTZ
  Basis Set: (AUG-CC-PVTZ AUX)
    Blend: AUG-CC-PVTZ-JKFIT
	 Reference Energy          =    -305.6625485460253913 [Eh]
	 Singles Energy            =      -0.0000000000000000 [Eh]
	 Same-Spin Energy          =      -0.3257030660715297 [Eh]
	 Opposite-Spin Energy      =      -1.0057011315786484 [Eh]
	 Correlation Energy        =      -1.3314041976501780 [Eh]
	 Total Energy              =    -306.9939527436755498 [Eh]

	 ================> DF-SCS-MP2 Energies <==================
	-----------------------------------------------------------
	 SCS Same-Spin Scale       =       0.3333333333333333 [-]
	 SCS Opposite-Spin Scale   =       1.2000000000000000 [-]
	 SCS Same-Spin Energy      =      -0.1085676886905099 [Eh]
	 SCS Opposite-Spin Energy  =      -1.2068413578943780 [Eh]
	 SCS Correlation Energy    =      -1.3154090465848878 [Eh]
	 SCS Total Energy          =    -306.9779575926102666 [Eh]
	-----------------------------------------------------------

  Dipole Moment: [D]
     X:     0.7067      Y:     1.2887      Z:     0.0006     Total:     1.4698

*** Psi4 exiting successfully. Buy a developer a beer!
