                               Psi4 1.3.2 release

  ==> Input File <==

--------------------------------------------------------------------------
#psi4
#
memory 32 gb

molecule  {
0 1
  C        0.2607240     1.2023270    -0.0000750
  C       -1.1358940     1.2178730     0.0000410
  C       -1.8563260     0.0234010    -0.0000200
  C       -1.1685880    -1.1938670     0.0000370
  C        0.2242660    -1.2218040    -0.0000490
  C        0.9375920    -0.0198080     0.0000210
  O        2.3096620    -0.1122440    -0.0000150
  H        0.8193600     2.1376290    -0.0000120
  H       -1.6578230     2.1717680    -0.0000430
  H       -2.9427200     0.0394300     0.0001070
  H       -1.7202150    -2.1309040    -0.0000080
  H        0.7759750    -2.1575980     0.0000070
  H        2.6019035     0.6037243     0.0002607
units angstrom
no_reorient  #important for SAPT in psi4, default
symmetry c1  #important for SAPT in psi4, default
}

set PROPERTIES_ORIGIN ["COM"]
properties('MP2/aug-cc-pvtz', properties = ['dipole'])
--------------------------------------------------------------------------

    Molecular point group: c1
  Charge       = 0
  Multiplicity = 1
  Basis Set: AUG-CC-PVTZ
    Blend: AUG-CC-PVTZ
  Basis Set: (AUG-CC-PVTZ AUX)
    Blend: AUG-CC-PVTZ-JKFIT

    Orbital Energies [Eh]
    ---------------------

    Doubly Occupied:

       1A    -20.573177     2A    -11.308062     3A    -11.246684
       4A    -11.244335     5A    -11.239576     6A    -11.232557
       7A    -11.231909     8A     -1.461509     9A     -1.152098
      10A     -1.022809    11A     -1.015403    12A     -0.863255
      13A     -0.830942    14A     -0.756380    15A     -0.690435
      16A     -0.656102    17A     -0.614259    18A     -0.597176
      19A     -0.593570    20A     -0.580588    21A     -0.519145
      22A     -0.498038    23A     -0.487216    24A     -0.344865
      25A     -0.319959

  @DF-RHF Final Energy:  -305.62438090948217

   => Energetics <=

    Nuclear Repulsion Energy =            272.0219167919842675
    One-Electron Energy =                -953.1325010026995415
    Two-Electron Energy =                 375.4862033012331040
    Total Energy =                       -305.6243809094821700
  Basis Set: (AUG-CC-PVTZ AUX)
    Blend: AUG-CC-PVTZ-RI
    Molecular point group: c1

    Geometry (in Angstrom), charge = 0, multiplicity = 1:

       Center              X                  Y                   Z               Mass
    ------------   -----------------  -----------------  -----------------  -----------------
         C            0.240052372684     1.213264933775    -0.000070047050    12.000000000000
         C           -1.156565627316     1.228810933775     0.000045952950    12.000000000000
         C           -1.876997627316     0.034338933775    -0.000015047050    12.000000000000
         C           -1.189259627316    -1.182929066225     0.000041952950    12.000000000000
         C            0.203594372684    -1.210866066225    -0.000044047050    12.000000000000
         C            0.916920372684    -0.008870066225     0.000025952950    12.000000000000
         O            2.288990372684    -0.101306066225    -0.000010047050    15.994914619570
         H            0.798688372684     2.148566933775    -0.000007047050     1.007825032230
         H           -1.678494627316     2.182705933775    -0.000038047050     1.007825032230
         H           -2.963391627316     0.050367933775     0.000111952950     1.007825032230
         H           -1.740886627316    -2.119966066225    -0.000003047050     1.007825032230
         H            0.755303372684    -2.146660066225     0.000011952950     1.007825032230
         H            2.581231872684     0.614662233775     0.000265652950     1.007825032230

  Basis Set: AUG-CC-PVTZ
    Blend: AUG-CC-PVTZ
  Basis Set: (AUG-CC-PVTZ AUX)
    Blend: AUG-CC-PVTZ-JKFIT
	 Reference Energy          =    -305.6243809094821700 [Eh]
	 Singles Energy            =      -0.0000000000000000 [Eh]
	 Same-Spin Energy          =      -0.3229962624146188 [Eh]
	 Opposite-Spin Energy      =      -1.0012708605244898 [Eh]
	 Correlation Energy        =      -1.3242671229391085 [Eh]
	 Total Energy              =    -306.9486480324212607 [Eh]

	 ================> DF-SCS-MP2 Energies <==================
	-----------------------------------------------------------
	 SCS Same-Spin Scale       =       0.3333333333333333 [-]
	 SCS Opposite-Spin Scale   =       1.2000000000000000 [-]
	 SCS Same-Spin Energy      =      -0.1076654208048729 [Eh]
	 SCS Opposite-Spin Energy  =      -1.2015250326293876 [Eh]
	 SCS Correlation Energy    =      -1.3091904534342604 [Eh]
	 SCS Total Energy          =    -306.9335713629164388 [Eh]
	-----------------------------------------------------------

  Dipole Moment: [D]
     X:    -0.2689      Y:     1.1347      Z:     0.0005     Total:     1.1661

*** Psi4 exiting successfully. Buy a developer a beer!
