                               Psi4 1.3.2 release

  ==> Input File <==

--------------------------------------------------------------------------
#psi4
#
memory 32 gb

molecule  {
0 1
  C        0.2607240     1.2023270    -0.0000750
  C       -1.1358940     1.2178730     0.0000410
  C       -1.8563260     0.0234010    -0.0000200
  C       -1.1685880    -1.1938670     0.0000370
  C        0.2242660    -1.2218040    -0.0000490
  C        0.9375920    -0.0198080     0.0000210
  O        2.3096620    -0.1122440    -0.0000150
  H        0.8193600     2.1376290    -0.0000120
  H       -1.6578230     2.1717680    -0.0000430
  H       -2.9427200     0.0394300     0.0001070
  H       -1.7202150    -2.1309040    -0.0000080
  H        0.7759750    -2.1575980     0.0000070
  H        2.7530665     0.9740617     0.0004033
units angstrom
no_reorient  #important for SAPT in psi4, default
symmetry c1  #important for SAPT in psi4, default
}

set PROPERTIES_ORIGIN ["COM"]
properties('MP2/aug-cc-pvtz', properties = ['dipole'])
--------------------------------------------------------------------------

    Molecular point group: c1
  Charge       = 0
  Multiplicity = 1
  Basis Set: AUG-CC-PVTZ
    Blend: AUG-CC-PVTZ
  Basis Set: (AUG-CC-PVTZ AUX)
    Blend: AUG-CC-PVTZ-JKFIT

    Orbital Energies [Eh]
    ---------------------

    Doubly Occupied:

       1A    -20.606423     2A    -11.304769     3A    -11.244573
       4A    -11.242842     5A    -11.236176     6A    -11.230341
       7A    -11.228975     8A     -1.371213     9A     -1.144227
      10A     -1.019487    11A     -0.998795    12A     -0.840265
      13A     -0.814840    14A     -0.710398    15A     -0.673231
      16A     -0.649478    17A     -0.604827    18A     -0.591149
      19A     -0.584792    20A     -0.553759    21A     -0.515891
      22A     -0.492476    23A     -0.481960    24A     -0.343033
      25A     -0.315070

  @DF-RHF Final Energy:  -305.63421570938829

   => Energetics <=

    Nuclear Repulsion Energy =            269.6223517795431803
    One-Electron Energy =                -948.9151500501207011
    Two-Electron Energy =                 373.6585825611892915
    Total Energy =                       -305.6342157093882861
  Basis Set: (AUG-CC-PVTZ AUX)
    Blend: AUG-CC-PVTZ-RI
    Molecular point group: c1

    Geometry (in Angstrom), charge = 0, multiplicity = 1:

       Center              X                  Y                   Z               Mass
    ------------   -----------------  -----------------  -----------------  -----------------
         C            0.238432393586     1.209296113050    -0.000071575261    12.000000000000
         C           -1.158185606414     1.224842113050     0.000044424739    12.000000000000
         C           -1.878617606414     0.030370113050    -0.000016575261    12.000000000000
         C           -1.190879606414    -1.186897886950     0.000040424739    12.000000000000
         C            0.201974393586    -1.214834886950    -0.000045575261    12.000000000000
         C            0.915300393586    -0.012838886950     0.000024424739    12.000000000000
         O            2.287370393586    -0.105274886950    -0.000011575261    15.994914619570
         H            0.797068393586     2.144598113050    -0.000008575261     1.007825032230
         H           -1.680114606414     2.178737113050    -0.000039575261     1.007825032230
         H           -2.965011606414     0.046399113050     0.000110424739     1.007825032230
         H           -1.742506606414    -2.123934886950    -0.000004575261     1.007825032230
         H            0.753683393586    -2.150628886950     0.000010424739     1.007825032230
         H            2.730774893586     0.981030813050     0.000406724739     1.007825032230

  Basis Set: AUG-CC-PVTZ
    Blend: AUG-CC-PVTZ
  Basis Set: (AUG-CC-PVTZ AUX)
    Blend: AUG-CC-PVTZ-JKFIT
	 Reference Energy          =    -305.6342157093882861 [Eh]
	 Singles Energy            =      -0.0000000000000000 [Eh]
	 Same-Spin Energy          =      -0.3278771396054997 [Eh]
	 Opposite-Spin Energy      =      -1.0138155762156753 [Eh]
	 Correlation Energy        =      -1.3416927158211749 [Eh]
	 Total Energy              =    -306.9759084252094681 [Eh]

	 ================> DF-SCS-MP2 Energies <==================
	-----------------------------------------------------------
	 SCS Same-Spin Scale       =       0.3333333333333333 [-]
	 SCS Opposite-Spin Scale   =       1.2000000000000000 [-]
	 SCS Same-Spin Energy      =      -0.1092923798684999 [Eh]
	 SCS Opposite-Spin Energy  =      -1.2165786914588104 [Eh]
	 SCS Correlation Energy    =      -1.3258710713273103 [Eh]
	 SCS Total Energy          =    -306.9600867807155851 [Eh]
	-----------------------------------------------------------

  Dipole Moment: [D]
     X:     0.0486      Y:     1.4247      Z:     0.0007     Total:     1.4255

*** Psi4 exiting successfully. Buy a developer a beer!
