                               Psi4 1.3.2 release

  ==> Input File <==

--------------------------------------------------------------------------
#psi4
#
memory 32 gb

molecule  {
0 1
  C        0.2607240     1.2023270    -0.0000750
  C       -1.1358940     1.2178730     0.0000410
  C       -1.8563260     0.0234010    -0.0000200
  C       -1.1685880    -1.1938670     0.0000370
  C        0.2242660    -1.2218040    -0.0000490
  C        0.9352019    -0.0677489     0.0000025
  O        2.3096620    -0.1122440    -0.0000150
  H        0.8193600     2.1376290    -0.0000120
  H       -1.6578230     2.1717680    -0.0000430
  H       -2.9427200     0.0394300     0.0001070
  H       -1.7202150    -2.1309040    -0.0000080
  H        0.7759750    -2.1575980     0.0000070
  H        2.6774850     0.7888930     0.0003320
units angstrom
no_reorient  #important for SAPT in psi4, default
symmetry c1  #important for SAPT in psi4, default
}

set PROPERTIES_ORIGIN ["COM"]
properties('MP2/aug-cc-pvtz', properties = ['dipole'])
--------------------------------------------------------------------------

    Molecular point group: c1
  Charge       = 0
  Multiplicity = 1
  Basis Set: AUG-CC-PVTZ
    Blend: AUG-CC-PVTZ
  Basis Set: (AUG-CC-PVTZ AUX)
    Blend: AUG-CC-PVTZ-JKFIT

    Orbital Energies [Eh]
    ---------------------

    Doubly Occupied:

       1A    -20.591662     2A    -11.305890     3A    -11.245323
       4A    -11.244462     5A    -11.241659     6A    -11.230301
       7A    -11.226112     8A     -1.400038     9A     -1.147915
      10A     -1.023948    11A     -1.002979    12A     -0.848553
      13A     -0.819101    14A     -0.733464    15A     -0.683246
      16A     -0.654154    17A     -0.613813    18A     -0.590904
      19A     -0.589011    20A     -0.566870    21A     -0.518747
      22A     -0.492191    23A     -0.484047    24A     -0.344771
      25A     -0.316954

  @DF-RHF Final Energy:  -305.66768603487196

   => Energetics <=

    Nuclear Repulsion Energy =            270.6586115039567062
    One-Electron Energy =                -950.8203677374212930
    Two-Electron Energy =                 374.4940701985925671
    Total Energy =                       -305.6676860348719629
  Basis Set: (AUG-CC-PVTZ AUX)
    Blend: AUG-CC-PVTZ-RI
    Molecular point group: c1

    Geometry (in Angstrom), charge = 0, multiplicity = 1:

       Center              X                  Y                   Z               Mass
    ------------   -----------------  -----------------  -----------------  -----------------
         C            0.239547366453     1.217397913802    -0.000068450505    12.000000000000
         C           -1.157070633547     1.232943913802     0.000047549495    12.000000000000
         C           -1.877502633547     0.038471913802    -0.000013450505    12.000000000000
         C           -1.189764633547    -1.178796086198     0.000043549495    12.000000000000
         C            0.203089366453    -1.206733086198    -0.000042450505    12.000000000000
         C            0.914025266453    -0.052677986198     0.000009049495    12.000000000000
         O            2.288485366453    -0.097173086198    -0.000008450505    15.994914619570
         H            0.798183366453     2.152699913802    -0.000005450505     1.007825032230
         H           -1.678999633547     2.186838913802    -0.000036450505     1.007825032230
         H           -2.963896633547     0.054500913802     0.000113549495     1.007825032230
         H           -1.741391633547    -2.115833086198    -0.000001450505     1.007825032230
         H            0.754798366453    -2.142527086198     0.000013549495     1.007825032230
         H            2.656308366453     0.803963913802     0.000338549495     1.007825032230

  Basis Set: AUG-CC-PVTZ
    Blend: AUG-CC-PVTZ
  Basis Set: (AUG-CC-PVTZ AUX)
    Blend: AUG-CC-PVTZ-JKFIT
	 Reference Energy          =    -305.6676860348719629 [Eh]
	 Singles Energy            =      -0.0000000000000000 [Eh]
	 Same-Spin Energy          =      -0.3253062748207980 [Eh]
	 Opposite-Spin Energy      =      -1.0067948538346863 [Eh]
	 Correlation Energy        =      -1.3321011286554842 [Eh]
	 Total Energy              =    -306.9997871635274578 [Eh]

	 ================> DF-SCS-MP2 Energies <==================
	-----------------------------------------------------------
	 SCS Same-Spin Scale       =       0.3333333333333333 [-]
	 SCS Opposite-Spin Scale   =       1.2000000000000000 [-]
	 SCS Same-Spin Energy      =      -0.1084354249402660 [Eh]
	 SCS Opposite-Spin Energy  =      -1.2081538246016235 [Eh]
	 SCS Correlation Energy    =      -1.3165892495418894 [Eh]
	 SCS Total Energy          =    -306.9842752844138545 [Eh]
	-----------------------------------------------------------

  Dipole Moment: [D]
     X:    -0.1068      Y:     1.2766      Z:     0.0006     Total:     1.2811

*** Psi4 exiting successfully. Buy a developer a beer!
