                               Psi4 1.4a3.dev225

  ==> Input File <==

--------------------------------------------------------------------------
#psi4
#
memory 32 gb

molecule  {
0 1
  C        0.2606960     1.2022910    -0.0000270
  C       -1.1358900     1.2179210     0.0000200
  C       -1.8563270     0.0234090    -0.0000150
  C       -1.1686000    -1.1938320     0.0000190
  C        0.2243100    -1.2218560    -0.0000260
  C        0.9375760    -0.0198920     0.0000150
  O        2.2897421    -0.1108359     0.0000091
  H        0.8194350     2.1375370     0.0000180
  H       -1.6578250     2.1718150    -0.0000190
  H       -2.9427270     0.0394130     0.0000350
  H       -1.7202280    -2.1308750    -0.0000170
  H        0.7758460    -2.1577480     0.0000080
  H        2.6773420     0.7890330    -0.0000190
units angstrom
no_reorient  #important for SAPT in psi4, default
symmetry c1  #important for SAPT in psi4, default
}

set PROPERTIES_ORIGIN ["COM"]
properties('MP2/aug-cc-pvtz', properties = ['dipole'])
--------------------------------------------------------------------------

    Molecular point group: c1
  Charge       = 0
  Multiplicity = 1
  Basis Set: AUG-CC-PVTZ
    Blend: AUG-CC-PVTZ
  Basis Set: (AUG-CC-PVTZ AUX)
    Blend: AUG-CC-PVTZ-JKFIT

    Orbital Energies [Eh]
    ---------------------

    Doubly Occupied:

       1A    -20.595045     2A    -11.304973     3A    -11.244686
       4A    -11.242639     5A    -11.235790     6A    -11.229415
       7A    -11.228647     8A     -1.409547     9A     -1.145976
      10A     -1.019789    11A     -1.003817    12A     -0.847529
      13A     -0.822756    14A     -0.733652    15A     -0.684460
      16A     -0.654157    17A     -0.609577    18A     -0.594761
      19A     -0.591123    20A     -0.568536    21A     -0.516941
      22A     -0.494145    23A     -0.483135    24A     -0.343026
      25A     -0.314798

  @DF-RHF Final Energy:  -305.67038888349657

   => Energetics <=

    Nuclear Repulsion Energy =            271.1478324373579767
    One-Electron Energy =                -951.7986019572474561
    Two-Electron Energy =                 374.9803806363929652
    Total Energy =                       -305.6703888834965710
  Basis Set: (AUG-CC-PVTZ AUX)
    Blend: AUG-CC-PVTZ-RI
    Molecular point group: c1

    Geometry (in Angstrom), charge = 0, multiplicity = 1:

       Center              X                  Y                   Z               Mass
    ------------   -----------------  -----------------  -----------------  -----------------
         C            0.242605913216     1.211015826301    -0.000026825617    12.000000000000
         C           -1.153980086784     1.226645826301     0.000020174383    12.000000000000
         C           -1.874417086784     0.032133826301    -0.000014825617    12.000000000000
         C           -1.186690086784    -1.185107173699     0.000019174383    12.000000000000
         C            0.206219913216    -1.213131173699    -0.000025825617    12.000000000000
         C            0.919485913216    -0.011167173699     0.000015174383    12.000000000000
         O            2.271652013216    -0.102111073699     0.000009274383    15.994914619570
         H            0.801344913216     2.146261826301     0.000018174383     1.007825032230
         H           -1.675915086784     2.180539826301    -0.000018825617     1.007825032230
         H           -2.960817086784     0.048137826301     0.000035174383     1.007825032230
         H           -1.738318086784    -2.122150173699    -0.000016825617     1.007825032230
         H            0.757755913216    -2.149023173699     0.000008174383     1.007825032230
         H            2.659251913216     0.797757826301    -0.000018825617     1.007825032230

  Basis Set: AUG-CC-PVTZ
    Blend: AUG-CC-PVTZ
  Basis Set: (AUG-CC-PVTZ AUX)
    Blend: AUG-CC-PVTZ-JKFIT
	 Reference Energy          =    -305.6703888834965710 [Eh]
	 Singles Energy            =      -0.0000000000000000 [Eh]
	 Same-Spin Energy          =      -0.3254659450632484 [Eh]
	 Opposite-Spin Energy      =      -1.0066167030942239 [Eh]
	 Correlation Energy        =      -1.3320826481574723 [Eh]
	 Total Energy              =    -307.0024715316540664 [Eh]

	 ================> DF-SCS-MP2 Energies <==================
	-----------------------------------------------------------
	 SCS Same-Spin Scale       =       0.3333333333333333 [-]
	 SCS Opposite-Spin Scale   =       1.2000000000000000 [-]
	 SCS Same-Spin Energy      =      -0.1084886483544161 [Eh]
	 SCS Opposite-Spin Energy  =      -1.2079400437130687 [Eh]
	 SCS Correlation Energy    =      -1.3164286920674848 [Eh]
	 SCS Total Energy          =    -306.9868175755640323 [Eh]
	-----------------------------------------------------------

  Dipole Moment: [D]
     X:     0.0668      Y:     1.2854      Z:    -0.0000     Total:     1.2872

*** Psi4 exiting successfully. Buy a developer a beer!
