                               Psi4 1.4a3.dev225

  ==> Input File <==

--------------------------------------------------------------------------
#psi4
#
memory 32 gb

molecule  {
0 1
  C        0.2606960     1.2022910    -0.0000270
  C       -1.1358900     1.2179210     0.0000200
  C       -1.8563270     0.0234090    -0.0000150
  C       -1.1686000    -1.1938320     0.0000190
  C        0.2243100    -1.2218560    -0.0000260
  C        0.9375760    -0.0198920     0.0000150
  O        2.2598097    -0.1088227     0.0000092
  H        0.8194350     2.1375370     0.0000180
  H       -1.6578250     2.1718150    -0.0000190
  H       -2.9427270     0.0394130     0.0000350
  H       -1.7202280    -2.1308750    -0.0000170
  H        0.7758460    -2.1577480     0.0000080
  H        2.6773420     0.7890330    -0.0000190
units angstrom
no_reorient  #important for SAPT in psi4, default
symmetry c1  #important for SAPT in psi4, default
}

set PROPERTIES_ORIGIN ["COM"]
properties('MP2/aug-cc-pvtz', properties = ['dipole'])
--------------------------------------------------------------------------

    Molecular point group: c1
  Charge       = 0
  Multiplicity = 1
  Basis Set: AUG-CC-PVTZ
    Blend: AUG-CC-PVTZ
  Basis Set: (AUG-CC-PVTZ AUX)
    Blend: AUG-CC-PVTZ-JKFIT

    Orbital Energies [Eh]
    ---------------------

    Doubly Occupied:

       1A    -20.597420     2A    -11.303212     3A    -11.243426
       4A    -11.241431     5A    -11.232966     6A    -11.226789
       7A    -11.226142     8A     -1.421639     9A     -1.143930
      10A     -1.018488    11A     -1.001923    12A     -0.849455
      13A     -0.823435    14A     -0.737524    15A     -0.683693
      16A     -0.656891    17A     -0.609158    18A     -0.602786
      19A     -0.589510    20A     -0.566330    21A     -0.516192
      22A     -0.491776    23A     -0.481517    24A     -0.341846
      25A     -0.311144

  @DF-RHF Final Energy:  -305.66916025218552

   => Energetics <=

    Nuclear Repulsion Energy =            271.9502971067182671
    One-Electron Energy =                -953.4016677591114330
    Two-Electron Energy =                 375.7822104002076458
    Total Energy =                       -305.6691602521855202
  Basis Set: (AUG-CC-PVTZ AUX)
    Blend: AUG-CC-PVTZ-RI
    Molecular point group: c1

    Geometry (in Angstrom), charge = 0, multiplicity = 1:

       Center              X                  Y                   Z               Mass
    ------------   -----------------  -----------------  -----------------  -----------------
         C            0.247696903099     1.210673415374    -0.000026842625    12.000000000000
         C           -1.148889096901     1.226303415374     0.000020157375    12.000000000000
         C           -1.869326096901     0.031791415374    -0.000014842625    12.000000000000
         C           -1.181599096901    -1.185449584626     0.000019157375    12.000000000000
         C            0.211310903099    -1.213473584626    -0.000025842625    12.000000000000
         C            0.924576903099    -0.011509584626     0.000015157375    12.000000000000
         O            2.246810603099    -0.100440284626     0.000009357375    15.994914619570
         H            0.806435903099     2.145919415374     0.000018157375     1.007825032230
         H           -1.670824096901     2.180197415374    -0.000018842625     1.007825032230
         H           -2.955726096901     0.047795415374     0.000035157375     1.007825032230
         H           -1.733227096901    -2.122492584626    -0.000016842625     1.007825032230
         H            0.762846903099    -2.149365584626     0.000008157375     1.007825032230
         H            2.664342903099     0.797415415374    -0.000018842625     1.007825032230

  Basis Set: AUG-CC-PVTZ
    Blend: AUG-CC-PVTZ
  Basis Set: (AUG-CC-PVTZ AUX)
    Blend: AUG-CC-PVTZ-JKFIT
	 Reference Energy          =    -305.6691602521855202 [Eh]
	 Singles Energy            =      -0.0000000000000000 [Eh]
	 Same-Spin Energy          =      -0.3255312308359109 [Eh]
	 Opposite-Spin Energy      =      -1.0062131524452231 [Eh]
	 Correlation Energy        =      -1.3317443832811340 [Eh]
	 Total Energy              =    -307.0009046354666680 [Eh]

	 ================> DF-SCS-MP2 Energies <==================
	-----------------------------------------------------------
	 SCS Same-Spin Scale       =       0.3333333333333333 [-]
	 SCS Opposite-Spin Scale   =       1.2000000000000000 [-]
	 SCS Same-Spin Energy      =      -0.1085104102786370 [Eh]
	 SCS Opposite-Spin Energy  =      -1.2074557829342678 [Eh]
	 SCS Correlation Energy    =      -1.3159661932129048 [Eh]
	 SCS Total Energy          =    -306.9851264453984072 [Eh]
	-----------------------------------------------------------

  Dipole Moment: [D]
     X:     0.2993      Y:     1.2874      Z:    -0.0000     Total:     1.3218

*** Psi4 exiting successfully. Buy a developer a beer!
