                               Psi4 1.3.2 release

  ==> Input File <==

--------------------------------------------------------------------------
#psi4
#
memory 32 gb

molecule  {
0 1
  C        0.2607240     1.2023270    -0.0000750
  C       -1.1358940     1.2178730     0.0000410
  C       -1.8563260     0.0234010    -0.0000200
  C       -1.1685880    -1.1938670     0.0000370
  C        0.2242660    -1.2218040    -0.0000490
  C        0.9344863    -0.1157439    -0.0000160
  O        2.3096620    -0.1122440    -0.0000150
  H        0.8193600     2.1376290    -0.0000120
  H       -1.6578230     2.1717680    -0.0000430
  H       -2.9427200     0.0394300     0.0001070
  H       -1.7202150    -2.1309040    -0.0000080
  H        0.7759750    -2.1575980     0.0000070
  H        2.6774850     0.7888930     0.0003320
units angstrom
no_reorient  #important for SAPT in psi4, default
symmetry c1  #important for SAPT in psi4, default
}

set PROPERTIES_ORIGIN ["COM"]
properties('MP2/aug-cc-pvtz', properties = ['dipole'])
--------------------------------------------------------------------------

    Molecular point group: c1
  Charge       = 0
  Multiplicity = 1
  Basis Set: AUG-CC-PVTZ
    Blend: AUG-CC-PVTZ
  Basis Set: (AUG-CC-PVTZ AUX)
    Blend: AUG-CC-PVTZ-JKFIT

    Orbital Energies [Eh]
    ---------------------

    Doubly Occupied:

       1A    -20.589758     2A    -11.305002     3A    -11.245790
       4A    -11.245346     5A    -11.244434     6A    -11.230669
       7A    -11.220859     8A     -1.397886     9A     -1.149167
      10A     -1.029888    11A     -0.999178    12A     -0.850695
      13A     -0.815123    14A     -0.736152    15A     -0.682527
      16A     -0.655377    17A     -0.617469    18A     -0.589335
      19A     -0.588596    20A     -0.563870    21A     -0.520909
      22A     -0.485433    23A     -0.484003    24A     -0.348260
      25A     -0.315467

  @DF-RHF Final Energy:  -305.65909090898316

   => Energetics <=

    Nuclear Repulsion Energy =            270.7002540145727494
    One-Electron Energy =                -950.8963042958018832
    Two-Electron Energy =                 374.5369593722460309
    Total Energy =                       -305.6590909089831598
  Basis Set: (AUG-CC-PVTZ AUX)
    Blend: AUG-CC-PVTZ-RI
    Molecular point group: c1

    Geometry (in Angstrom), charge = 0, multiplicity = 1:

       Center              X                  Y                   Z               Mass
    ------------   -----------------  -----------------  -----------------  -----------------
         C            0.239638678977     1.223522207499    -0.000066089854    12.000000000000
         C           -1.156979321023     1.239068207499     0.000049910146    12.000000000000
         C           -1.877411321023     0.044596207499    -0.000011089854    12.000000000000
         C           -1.189673321023    -1.172671792501     0.000045910146    12.000000000000
         C            0.203180678977    -1.200608792501    -0.000040089854    12.000000000000
         C            0.913400978977    -0.094548692501    -0.000007089854    12.000000000000
         O            2.288576678977    -0.091048792501    -0.000006089854    15.994914619570
         H            0.798274678977     2.158824207499    -0.000003089854     1.007825032230
         H           -1.678908321023     2.192963207499    -0.000034089854     1.007825032230
         H           -2.963805321023     0.060625207499     0.000115910146     1.007825032230
         H           -1.741300321023    -2.109708792501     0.000000910146     1.007825032230
         H            0.754889678977    -2.136402792501     0.000015910146     1.007825032230
         H            2.656399678977     0.810088207499     0.000340910146     1.007825032230

  Basis Set: AUG-CC-PVTZ
    Blend: AUG-CC-PVTZ
  Basis Set: (AUG-CC-PVTZ AUX)
    Blend: AUG-CC-PVTZ-JKFIT
	 Reference Energy          =    -305.6590909089831598 [Eh]
	 Singles Energy            =      -0.0000000000000000 [Eh]
	 Same-Spin Energy          =      -0.3250172230198132 [Eh]
	 Opposite-Spin Energy      =      -1.0068959283367844 [Eh]
	 Correlation Energy        =      -1.3319131513565976 [Eh]
	 Total Energy              =    -306.9910040603397761 [Eh]

	 ================> DF-SCS-MP2 Energies <==================
	-----------------------------------------------------------
	 SCS Same-Spin Scale       =       0.3333333333333333 [-]
	 SCS Opposite-Spin Scale   =       1.2000000000000000 [-]
	 SCS Same-Spin Energy      =      -0.1083390743399377 [Eh]
	 SCS Opposite-Spin Energy  =      -1.2082751140041412 [Eh]
	 SCS Correlation Energy    =      -1.3166141883440790 [Eh]
	 SCS Total Energy          =    -306.9757050973272499 [Eh]
	-----------------------------------------------------------

  Dipole Moment: [D]
     X:    -0.1321      Y:     1.2665      Z:     0.0006     Total:     1.2734

*** Psi4 exiting successfully. Buy a developer a beer!
