                               Psi4 1.3.2 release

  ==> Input File <==

--------------------------------------------------------------------------
#psi4
#
memory 32 gb

molecule  {
0 1
  C        0.2607240     1.2023270    -0.0000750
  C       -1.1358940     1.2178730     0.0000410
  C       -1.8563260     0.0234010    -0.0000200
  C       -1.1685880    -1.1938670     0.0000370
  C        0.2242660    -1.2218040    -0.0000490
  C        0.9416538     0.0280202     0.0000394
  O        2.3096620    -0.1122440    -0.0000150
  H        0.8193600     2.1376290    -0.0000120
  H       -1.6578230     2.1717680    -0.0000430
  H       -2.9427200     0.0394300     0.0001070
  H       -1.7202150    -2.1309040    -0.0000080
  H        0.7759750    -2.1575980     0.0000070
  H        2.6774850     0.7888930     0.0003320
units angstrom
no_reorient  #important for SAPT in psi4, default
symmetry c1  #important for SAPT in psi4, default
}

set PROPERTIES_ORIGIN ["COM"]
properties('MP2/aug-cc-pvtz', properties = ['dipole'])
--------------------------------------------------------------------------

    Molecular point group: c1
  Charge       = 0
  Multiplicity = 1
  Basis Set: AUG-CC-PVTZ
    Blend: AUG-CC-PVTZ
  Basis Set: (AUG-CC-PVTZ AUX)
    Blend: AUG-CC-PVTZ-JKFIT

    Orbital Energies [Eh]
    ---------------------

    Doubly Occupied:

       1A    -20.595482     2A    -11.305769     3A    -11.245580
       4A    -11.242263     5A    -11.235605     6A    -11.233172
       7A    -11.230474     8A     -1.404158     9A     -1.147304
      10A     -1.022291    11A     -1.003111    12A     -0.845029
      13A     -0.824429    14A     -0.728689    15A     -0.687030
      16A     -0.650958    17A     -0.607074    18A     -0.591584
      19A     -0.590925    20A     -0.572707    21A     -0.517546
      22A     -0.494641    23A     -0.484323    24A     -0.345572
      25A     -0.315831

  @DF-RHF Final Energy:  -305.66690064350109

   => Energetics <=

    Nuclear Repulsion Energy =            270.6043646055251202
    One-Electron Energy =                -950.6994358617178023
    Two-Electron Energy =                 374.4281706126915878
    Total Energy =                       -305.6669006435010942
  Basis Set: (AUG-CC-PVTZ AUX)
    Blend: AUG-CC-PVTZ-RI
    Molecular point group: c1

    Geometry (in Angstrom), charge = 0, multiplicity = 1:

       Center              X                  Y                   Z               Mass
    ------------   -----------------  -----------------  -----------------  -----------------
         C            0.238724086309     1.205177513852    -0.000073159046    12.000000000000
         C           -1.157893913691     1.220723513852     0.000042840954    12.000000000000
         C           -1.878325913691     0.026251513852    -0.000018159046    12.000000000000
         C           -1.190587913691    -1.191016486148     0.000038840954    12.000000000000
         C            0.202266086309    -1.218953486148    -0.000047159046    12.000000000000
         C            0.919653886309     0.030870713852     0.000041240954    12.000000000000
         O            2.287662086309    -0.109393486148    -0.000013159046    15.994914619570
         H            0.797360086309     2.140479513852    -0.000010159046     1.007825032230
         H           -1.679822913691     2.174618513852    -0.000041159046     1.007825032230
         H           -2.964719913691     0.042280513852     0.000108840954     1.007825032230
         H           -1.742214913691    -2.128053486148    -0.000006159046     1.007825032230
         H            0.753975086309    -2.154747486148     0.000008840954     1.007825032230
         H            2.655485086309     0.791743513852     0.000333840954     1.007825032230

  Basis Set: AUG-CC-PVTZ
    Blend: AUG-CC-PVTZ
  Basis Set: (AUG-CC-PVTZ AUX)
    Blend: AUG-CC-PVTZ-JKFIT
	 Reference Energy          =    -305.6669006435010942 [Eh]
	 Singles Energy            =      -0.0000000000000000 [Eh]
	 Same-Spin Energy          =      -0.3254042499975106 [Eh]
	 Opposite-Spin Energy      =      -1.0072966298657784 [Eh]
	 Correlation Energy        =      -1.3327008798632889 [Eh]
	 Total Energy              =    -306.9996015233643902 [Eh]

	 ================> DF-SCS-MP2 Energies <==================
	-----------------------------------------------------------
	 SCS Same-Spin Scale       =       0.3333333333333333 [-]
	 SCS Opposite-Spin Scale   =       1.2000000000000000 [-]
	 SCS Same-Spin Energy      =      -0.1084680833325035 [Eh]
	 SCS Opposite-Spin Energy  =      -1.2087559558389340 [Eh]
	 SCS Correlation Energy    =      -1.3172240391714376 [Eh]
	 SCS Total Energy          =    -306.9841246826725296 [Eh]
	-----------------------------------------------------------

  Dipole Moment: [D]
     X:    -0.0603      Y:     1.2905      Z:     0.0006     Total:     1.2919

*** Psi4 exiting successfully. Buy a developer a beer!
