                               Psi4 1.4a3.dev225

  ==> Input File <==

--------------------------------------------------------------------------
#psi4
#
memory 32 gb

molecule  {
0 1
  O       -2.9128620    -0.4781290     1.0138340
  O       -2.9681190     0.5148030    -1.0434710
  O       -0.3129680    -3.4309860     0.4641560
  O       -0.2589710     3.4469300    -0.4801560
  O       -1.9011930    -2.4818550    -0.7520780
  O       -1.8407060     2.5208330     0.7644950
  O        3.9597560    -1.1388570    -0.0240200
  O        3.9819620     1.0692260     0.0429750
  N       -0.8439190    -2.4637400    -0.1025570
  N       -0.7967020     2.4883090     0.0943390
  N        3.4069750    -0.0290830     0.0068360
  C       -0.8642630     0.0144850    -0.0118450
  C       -0.1342560    -1.1768520    -0.0236930
  C       -0.0625838     1.1020362    -0.0009056
  C        1.9306090    -0.0137700    -0.0002960
  C        1.2541590    -1.2264030    -0.0035910
  C        1.2788880     1.2129500     0.0017720
  C       -2.3665400     0.0542110    -0.0958220
  H        1.7835260    -2.1724740     0.0038120
  H        1.8267950     2.1485240     0.0024160
  H       -3.8857970    -0.4493820     0.8874840
units angstrom
no_reorient  #important for SAPT in psi4, default
symmetry c1  #important for SAPT in psi4, default
}

set PROPERTIES_ORIGIN ["COM"]
properties('MP2/aug-cc-pvtz', properties = ['dipole'])
--------------------------------------------------------------------------

    Molecular point group: c1
  Charge       = 0
  Multiplicity = 1
  Basis Set: AUG-CC-PVTZ
    Blend: AUG-CC-PVTZ
  Basis Set: (AUG-CC-PVTZ AUX)
    Blend: AUG-CC-PVTZ-JKFIT

    Orbital Energies [Eh]
    ---------------------

    Doubly Occupied:

       1A    -20.658869     2A    -20.653273     3A    -20.653177
       4A    -20.651644     5A    -20.651401     6A    -20.647298
       7A    -20.647017     8A    -20.597262     9A    -15.902839
      10A    -15.902234    11A    -15.893513    12A    -11.455348
      13A    -11.388353    14A    -11.385183    15A    -11.381967
      16A    -11.370740    17A    -11.353561    18A    -11.350857
      19A     -1.637131    20A     -1.635507    21A     -1.622991
      22A     -1.507309    23A     -1.437210    24A     -1.435518
      25A     -1.428373    26A     -1.406780    27A     -1.300399
      28A     -1.188333    29A     -1.175505    30A     -1.059495
      31A     -1.034585    32A     -1.012468    33A     -0.929993
      34A     -0.884311    35A     -0.871822    36A     -0.837397
      37A     -0.801697    38A     -0.790503    39A     -0.782279
      40A     -0.776275    41A     -0.766274    42A     -0.758155
      43A     -0.756670    44A     -0.753382    45A     -0.743930
      46A     -0.738587    47A     -0.719878    48A     -0.698943
      49A     -0.668599    50A     -0.651014    51A     -0.633785
      52A     -0.617544    53A     -0.555011    54A     -0.548943
      55A     -0.543190    56A     -0.540555    57A     -0.535510
      58A     -0.526485    59A     -0.516916    60A     -0.510426
      61A     -0.494644    62A     -0.492734    63A     -0.484140
      64A     -0.452601    65A     -0.449703

  @DF-RHF Final Energy: -1029.03838351071977

   => Energetics <=

    Nuclear Repulsion Energy =           1346.3679540612909022
    One-Electron Energy =               -4084.2966115561875995
    Two-Electron Energy =                1708.8902739841767016
    Total Energy =                      -1029.0383835107197683
  Basis Set: (AUG-CC-PVTZ AUX)
    Blend: AUG-CC-PVTZ-RI
    Molecular point group: c1

    Geometry (in Angstrom), charge = 0, multiplicity = 1:

       Center              X                  Y                   Z               Mass
    ------------   -----------------  -----------------  -----------------  -----------------
         O           -2.916172431455    -0.475836979305     1.017567118259    15.994914619570
         O           -2.971429431455     0.517095020695    -1.039737881741    15.994914619570
         O           -0.316278431455    -3.428693979305     0.467889118259    15.994914619570
         O           -0.262281431455     3.449222020695    -0.476422881741    15.994914619570
         O           -1.904503431455    -2.479562979305    -0.748344881741    15.994914619570
         O           -1.844016431455     2.523125020695     0.768228118259    15.994914619570
         O            3.956445568545    -1.136564979305    -0.020286881741    15.994914619570
         O            3.978651568545     1.071518020695     0.046708118259    15.994914619570
         N           -0.847229431455    -2.461447979305    -0.098823881741    14.003074004430
         N           -0.800012431455     2.490601020695     0.098072118259    14.003074004430
         N            3.403664568545    -0.026790979305     0.010569118259    14.003074004430
         C           -0.867573431455     0.016777020695    -0.008111881741    12.000000000000
         C           -0.137566431455    -1.174559979305    -0.019959881741    12.000000000000
         C           -0.065894231455     1.104328220695     0.002827518259    12.000000000000
         C            1.927298568545    -0.011477979305     0.003437118259    12.000000000000
         C            1.250848568545    -1.224110979305     0.000142118259    12.000000000000
         C            1.275577568545     1.215242020695     0.005505118259    12.000000000000
         C           -2.369850431455     0.056503020695    -0.092088881741    12.000000000000
         H            1.780215568545    -2.170181979305     0.007545118259     1.007825032230
         H            1.823484568545     2.150816020695     0.006149118259     1.007825032230
         H           -3.889107431455    -0.447089979305     0.891217118259     1.007825032230

  Basis Set: AUG-CC-PVTZ
    Blend: AUG-CC-PVTZ
  Basis Set: (AUG-CC-PVTZ AUX)
    Blend: AUG-CC-PVTZ-JKFIT
	 Reference Energy          =   -1029.0383835107197683 [Eh]
	 Singles Energy            =      -0.0000000000000000 [Eh]
	 Same-Spin Energy          =      -1.0507240347465039 [Eh]
	 Opposite-Spin Energy      =      -2.9516569031407567 [Eh]
	 Correlation Energy        =      -4.0023809378872608 [Eh]
	 Total Energy              =   -1033.0407644486069785 [Eh]

	 ================> DF-SCS-MP2 Energies <==================
	-----------------------------------------------------------
	 SCS Same-Spin Scale       =       0.3333333333333333 [-]
	 SCS Opposite-Spin Scale   =       1.2000000000000000 [-]
	 SCS Same-Spin Energy      =      -0.3502413449155013 [Eh]
	 SCS Opposite-Spin Energy  =      -3.5419882837689078 [Eh]
	 SCS Correlation Energy    =      -3.8922296286844089 [Eh]
	 SCS Total Energy          =   -1032.9306131394041586 [Eh]
	-----------------------------------------------------------

  Dipole Moment: [D]
     X:    -0.1318      Y:    -0.6886      Z:     1.1830     Total:     1.3752

*** Psi4 exiting successfully. Buy a developer a beer!
