                               Psi4 1.4a3.dev225

  ==> Input File <==

--------------------------------------------------------------------------
#psi4
#
memory 32 gb

molecule  {
0 1
  O       -2.9128620    -0.4781290     1.0138340
  O       -2.9681190     0.5148030    -1.0434710
  O       -0.3129680    -3.4309860     0.4641560
  O       -0.2589710     3.4469300    -0.4801560
  O       -1.9011930    -2.4818550    -0.7520780
  O       -1.8407060     2.5208330     0.7644950
  O        3.9597560    -1.1388570    -0.0240200
  O        3.9819620     1.0692260     0.0429750
  N       -0.8439190    -2.4637400    -0.1025570
  N       -0.7967020     2.4883090     0.0943390
  N        3.4069750    -0.0290830     0.0068360
  C       -0.8642630     0.0144850    -0.0118450
  C       -0.1342560    -1.1768520    -0.0236930
  C       -0.1363106     1.1481769     0.0045467
  C        1.9306090    -0.0137700    -0.0002960
  C        1.2541590    -1.2264030    -0.0035910
  C        1.2788880     1.2129500     0.0017720
  C       -2.3665400     0.0542110    -0.0958220
  H        1.7835260    -2.1724740     0.0038120
  H        1.8267950     2.1485240     0.0024160
  H       -3.8857970    -0.4493820     0.8874840
units angstrom
no_reorient  #important for SAPT in psi4, default
symmetry c1  #important for SAPT in psi4, default
}

set PROPERTIES_ORIGIN ["COM"]
properties('MP2/aug-cc-pvtz', properties = ['dipole'])
--------------------------------------------------------------------------

    Molecular point group: c1
  Charge       = 0
  Multiplicity = 1
  Basis Set: AUG-CC-PVTZ
    Blend: AUG-CC-PVTZ
  Basis Set: (AUG-CC-PVTZ AUX)
    Blend: AUG-CC-PVTZ-JKFIT

    Orbital Energies [Eh]
    ---------------------

    Doubly Occupied:

       1A    -20.657597     2A    -20.652133     3A    -20.652082
       4A    -20.651463     5A    -20.650982     6A    -20.650654
       7A    -20.649374     8A    -20.595924     9A    -15.902371
      10A    -15.902262    11A    -15.899452    12A    -11.452495
      13A    -11.386267    14A    -11.385457    15A    -11.380653
      16A    -11.369399    17A    -11.359604    18A    -11.355196
      19A     -1.636181    20A     -1.635259    21A     -1.631422
      22A     -1.506170    23A     -1.436248    24A     -1.435277
      25A     -1.433356    26A     -1.405684    27A     -1.293152
      28A     -1.187501    29A     -1.177384    30A     -1.056715
      31A     -1.034781    32A     -1.023399    33A     -0.927420
      34A     -0.887025    35A     -0.869102    36A     -0.837118
      37A     -0.803520    38A     -0.789846    39A     -0.785040
      40A     -0.777826    41A     -0.765599    42A     -0.762041
      43A     -0.757529    44A     -0.753655    45A     -0.744758
      46A     -0.740988    47A     -0.716979    48A     -0.691969
      49A     -0.667239    50A     -0.649449    51A     -0.630134
      52A     -0.610597    53A     -0.555075    54A     -0.549397
      55A     -0.543974    56A     -0.540553    57A     -0.536068
      58A     -0.532234    59A     -0.521852    60A     -0.509125
      61A     -0.494345    62A     -0.491916    63A     -0.486646
      64A     -0.453626    65A     -0.442465

  @DF-RHF Final Energy: -1029.04608021700437

   => Energetics <=

    Nuclear Repulsion Energy =           1346.2205181452402485
    One-Electron Energy =               -4083.9911860558704575
    Two-Electron Energy =                1708.7245876936260629
    Total Energy =                      -1029.0460802170043735
  Basis Set: (AUG-CC-PVTZ AUX)
    Blend: AUG-CC-PVTZ-RI
    Molecular point group: c1

    Geometry (in Angstrom), charge = 0, multiplicity = 1:

       Center              X                  Y                   Z               Mass
    ------------   -----------------  -----------------  -----------------  -----------------
         O           -2.912729827983    -0.477991475825     1.017312528247    15.994914619570
         O           -2.967986827983     0.514940524175    -1.039992471753    15.994914619570
         O           -0.312835827983    -3.430848475825     0.467634528247    15.994914619570
         O           -0.258838827983     3.447067524175    -0.476677471753    15.994914619570
         O           -1.901060827983    -2.481717475825    -0.748599471753    15.994914619570
         O           -1.840573827983     2.520970524175     0.767973528247    15.994914619570
         O            3.959888172017    -1.138719475825    -0.020541471753    15.994914619570
         O            3.982094172017     1.069363524175     0.046453528247    15.994914619570
         N           -0.843786827983    -2.463602475825    -0.099078471753    14.003074004430
         N           -0.796569827983     2.488446524175     0.097817528247    14.003074004430
         N            3.407107172017    -0.028945475825     0.010314528247    14.003074004430
         C           -0.864130827983     0.014622524175    -0.008366471753    12.000000000000
         C           -0.134123827983    -1.176714475825    -0.020214471753    12.000000000000
         C           -0.136178427983     1.148314424175     0.008025228247    12.000000000000
         C            1.930741172017    -0.013632475825     0.003182528247    12.000000000000
         C            1.254291172017    -1.226265475825    -0.000112471753    12.000000000000
         C            1.279020172017     1.213087524175     0.005250528247    12.000000000000
         C           -2.366407827983     0.054348524175    -0.092343471753    12.000000000000
         H            1.783658172017    -2.172336475825     0.007290528247     1.007825032230
         H            1.826927172017     2.148661524175     0.005894528247     1.007825032230
         H           -3.885664827983    -0.449244475825     0.890962528247     1.007825032230

  Basis Set: AUG-CC-PVTZ
    Blend: AUG-CC-PVTZ
  Basis Set: (AUG-CC-PVTZ AUX)
    Blend: AUG-CC-PVTZ-JKFIT
	 Reference Energy          =   -1029.0460802170043735 [Eh]
	 Singles Energy            =      -0.0000000000000000 [Eh]
	 Same-Spin Energy          =      -1.0499486579132906 [Eh]
	 Opposite-Spin Energy      =      -2.9505631918899629 [Eh]
	 Correlation Energy        =      -4.0005118498032530 [Eh]
	 Total Energy              =   -1033.0465920668075341 [Eh]

	 ================> DF-SCS-MP2 Energies <==================
	-----------------------------------------------------------
	 SCS Same-Spin Scale       =       0.3333333333333333 [-]
	 SCS Opposite-Spin Scale   =       1.2000000000000000 [-]
	 SCS Same-Spin Energy      =      -0.3499828859710968 [Eh]
	 SCS Opposite-Spin Energy  =      -3.5406758302679555 [Eh]
	 SCS Correlation Energy    =      -3.8906587162390522 [Eh]
	 SCS Total Energy          =   -1032.9367389332435323 [Eh]
	-----------------------------------------------------------

  Dipole Moment: [D]
     X:    -0.1663      Y:    -0.6435      Z:     1.1790     Total:     1.3535

*** Psi4 exiting successfully. Buy a developer a beer!
