                               Psi4 1.4a3.dev225

  ==> Input File <==

--------------------------------------------------------------------------
#psi4
#
memory 32 gb

molecule  {
0 1
  O       -2.9128620    -0.4781290     1.0138340
  O       -2.9681190     0.5148030    -1.0434710
  O       -0.3129680    -3.4309860     0.4641560
  O       -0.2589710     3.4469300    -0.4801560
  O       -1.9011930    -2.4818550    -0.7520780
  O       -1.8407060     2.5208330     0.7644950
  O        3.9597560    -1.1388570    -0.0240200
  O        3.9819620     1.0692260     0.0429750
  N       -0.9291156    -2.4651997    -0.1548963
  N       -0.7967020     2.4883090     0.0943390
  N        3.4069750    -0.0290830     0.0068360
  C       -0.8642630     0.0144850    -0.0118450
  C       -0.1342560    -1.1768520    -0.0236930
  C       -0.1092970     1.1902470     0.0051550
  C        1.9306090    -0.0137700    -0.0002960
  C        1.2541590    -1.2264030    -0.0035910
  C        1.2788880     1.2129500     0.0017720
  C       -2.3665400     0.0542110    -0.0958220
  H        1.7835260    -2.1724740     0.0038120
  H        1.8267950     2.1485240     0.0024160
  H       -3.8857970    -0.4493820     0.8874840
units angstrom
no_reorient  #important for SAPT in psi4, default
symmetry c1  #important for SAPT in psi4, default
}

set PROPERTIES_ORIGIN ["COM"]
properties('MP2/aug-cc-pvtz', properties = ['dipole'])
--------------------------------------------------------------------------

    Molecular point group: c1
  Charge       = 0
  Multiplicity = 1
  Basis Set: AUG-CC-PVTZ
    Blend: AUG-CC-PVTZ
  Basis Set: (AUG-CC-PVTZ AUX)
    Blend: AUG-CC-PVTZ-JKFIT

    Orbital Energies [Eh]
    ---------------------

    Doubly Occupied:

       1A    -20.687598     2A    -20.662545     3A    -20.649425
       4A    -20.649226     5A    -20.648831     6A    -20.648774
       7A    -20.620598     8A    -20.600053     9A    -15.902456
      10A    -15.900249    11A    -15.899154    12A    -11.455407
      13A    -11.385243    14A    -11.383531    15A    -11.378312
      16A    -11.372423    17A    -11.353143    18A    -11.352740
      19A     -1.691503    20A     -1.633110    21A     -1.632792
      22A     -1.510622    23A     -1.433589    24A     -1.432929
      25A     -1.427875    26A     -1.409966    27A     -1.286598
      28A     -1.182300    29A     -1.171887    30A     -1.051163
      31A     -1.030619    32A     -1.023372    33A     -0.925152
      34A     -0.889986    35A     -0.870277    36A     -0.840986
      37A     -0.803217    38A     -0.798473    39A     -0.786789
      40A     -0.782396    41A     -0.776141    42A     -0.765042
      43A     -0.760632    44A     -0.753955    45A     -0.748801
      46A     -0.747582    47A     -0.717615    48A     -0.691457
      49A     -0.670280    50A     -0.646022    51A     -0.632682
      52A     -0.608424    53A     -0.556627    54A     -0.544943
      55A     -0.544294    56A     -0.538475    57A     -0.534410
      58A     -0.527868    59A     -0.517018    60A     -0.511624
      61A     -0.495086    62A     -0.491984    63A     -0.486929
      64A     -0.446286    65A     -0.442171

  @DF-RHF Final Energy: -1029.03959079398305

   => Energetics <=

    Nuclear Repulsion Energy =           1345.8781708927840555
    One-Electron Energy =               -4083.1922063595252439
    Two-Electron Energy =                1708.2744446727581362
    Total Energy =                      -1029.0395907939830522
  Basis Set: (AUG-CC-PVTZ AUX)
    Blend: AUG-CC-PVTZ-RI
    Molecular point group: c1

    Geometry (in Angstrom), charge = 0, multiplicity = 1:

       Center              X                  Y                   Z               Mass
    ------------   -----------------  -----------------  -----------------  -----------------
         O           -2.909348979368    -0.479876362851     1.020136006999    15.994914619570
         O           -2.964605979368     0.513055637149    -1.037168993001    15.994914619570
         O           -0.309454979368    -3.432733362851     0.470458006999    15.994914619570
         O           -0.255457979368     3.445182637149    -0.473853993001    15.994914619570
         O           -1.897679979368    -2.483602362851    -0.745775993001    15.994914619570
         O           -1.837192979368     2.519085637149     0.770797006999    15.994914619570
         O            3.963269020632    -1.140604362851    -0.017717993001    15.994914619570
         O            3.985475020632     1.067478637149     0.049277006999    15.994914619570
         N           -0.925602579368    -2.466947062851    -0.148594293001    14.003074004430
         N           -0.793188979368     2.486561637149     0.100641006999    14.003074004430
         N            3.410488020632    -0.030830362851     0.013138006999    14.003074004430
         C           -0.860749979368     0.012737637149    -0.005542993001    12.000000000000
         C           -0.130742979368    -1.178599362851    -0.017390993001    12.000000000000
         C           -0.105783979368     1.188499637149     0.011457006999    12.000000000000
         C            1.934122020632    -0.015517362851     0.006006006999    12.000000000000
         C            1.257672020632    -1.228150362851     0.002711006999    12.000000000000
         C            1.282401020632     1.211202637149     0.008074006999    12.000000000000
         C           -2.363026979368     0.052463637149    -0.089519993001    12.000000000000
         H            1.787039020632    -2.174221362851     0.010114006999     1.007825032230
         H            1.830308020632     2.146776637149     0.008718006999     1.007825032230
         H           -3.882283979368    -0.451129362851     0.893786006999     1.007825032230

  Basis Set: AUG-CC-PVTZ
    Blend: AUG-CC-PVTZ
  Basis Set: (AUG-CC-PVTZ AUX)
    Blend: AUG-CC-PVTZ-JKFIT
	 Reference Energy          =   -1029.0395907939830522 [Eh]
	 Singles Energy            =      -0.0000000000000000 [Eh]
	 Same-Spin Energy          =      -1.0476829984660230 [Eh]
	 Opposite-Spin Energy      =      -2.9450459798567343 [Eh]
	 Correlation Energy        =      -3.9927289783227575 [Eh]
	 Total Energy              =   -1033.0323197723057547 [Eh]

	 ================> DF-SCS-MP2 Energies <==================
	-----------------------------------------------------------
	 SCS Same-Spin Scale       =       0.3333333333333333 [-]
	 SCS Opposite-Spin Scale   =       1.2000000000000000 [-]
	 SCS Same-Spin Energy      =      -0.3492276661553410 [Eh]
	 SCS Opposite-Spin Energy  =      -3.5340551758280809 [Eh]
	 SCS Correlation Energy    =      -3.8832828419834220 [Eh]
	 SCS Total Energy          =   -1032.9228736359664254 [Eh]
	-----------------------------------------------------------

  Dipole Moment: [D]
     X:    -0.5832      Y:    -0.6198      Z:     0.8876     Total:     1.2297

*** Psi4 exiting successfully. Buy a developer a beer!
