                               Psi4 1.4a3.dev225

  ==> Input File <==

--------------------------------------------------------------------------
#psi4
#
memory 32 gb

molecule  {
0 1
  O       -2.9128620    -0.4781290     1.0138340
  O       -2.9681190     0.5148030    -1.0434710
  O       -0.3129680    -3.4309860     0.4641560
  O       -0.2589710     3.4469300    -0.4801560
  O       -1.9011930    -2.4818550    -0.7520780
  O       -1.8407060     2.5208330     0.7644950
  O        3.9597560    -1.1388570    -0.0240200
  O        3.9819620     1.0692260     0.0429750
  N       -0.8439190    -2.4637400    -0.1025570
  N       -0.7967020     2.4883090     0.0943390
  N        3.4069750    -0.0290830     0.0068360
  C       -0.8642630     0.0144850    -0.0118450
  C       -0.0137214    -1.0940298    -0.0222532
  C       -0.1092970     1.1902470     0.0051550
  C        1.9306090    -0.0137700    -0.0002960
  C        1.2541590    -1.2264030    -0.0035910
  C        1.2788880     1.2129500     0.0017720
  C       -2.3665400     0.0542110    -0.0958220
  H        1.7835260    -2.1724740     0.0038120
  H        1.8267950     2.1485240     0.0024160
  H       -3.8857970    -0.4493820     0.8874840
units angstrom
no_reorient  #important for SAPT in psi4, default
symmetry c1  #important for SAPT in psi4, default
}

set PROPERTIES_ORIGIN ["COM"]
properties('MP2/aug-cc-pvtz', properties = ['dipole'])
--------------------------------------------------------------------------

    Molecular point group: c1
  Charge       = 0
  Multiplicity = 1
  Basis Set: AUG-CC-PVTZ
    Blend: AUG-CC-PVTZ
  Basis Set: (AUG-CC-PVTZ AUX)
    Blend: AUG-CC-PVTZ-JKFIT

    Orbital Energies [Eh]
    ---------------------

    Doubly Occupied:

       1A    -20.658913     2A    -20.651874     3A    -20.651716
       4A    -20.651598     5A    -20.650582     6A    -20.648663
       7A    -20.647550     8A    -20.598634     9A    -15.902012
      10A    -15.900700    11A    -15.892300    12A    -11.457434
      13A    -11.388697    14A    -11.385922    15A    -11.382621
      16A    -11.376952    17A    -11.352917    18A    -11.339949
      19A     -1.635352    20A     -1.635007    21A     -1.622239
      22A     -1.507693    23A     -1.435691    24A     -1.435192
      25A     -1.428380    26A     -1.407723    27A     -1.304413
      28A     -1.191130    29A     -1.173895    30A     -1.062947
      31A     -1.033959    32A     -1.008358    33A     -0.928549
      34A     -0.879779    35A     -0.876456    36A     -0.836789
      37A     -0.803865    38A     -0.790480    39A     -0.783682
      40A     -0.771940    41A     -0.764743    42A     -0.757712
      43A     -0.756695    44A     -0.752615    45A     -0.746299
      46A     -0.736648    47A     -0.720743    48A     -0.701330
      49A     -0.668681    50A     -0.649224    51A     -0.634296
      52A     -0.621550    53A     -0.553874    54A     -0.548577
      55A     -0.542503    56A     -0.540343    57A     -0.535141
      58A     -0.527764    59A     -0.515313    60A     -0.509799
      61A     -0.494588    62A     -0.488223    63A     -0.487523
      64A     -0.460961    65A     -0.444958

  @DF-RHF Final Energy: -1029.02329831279303

   => Energetics <=

    Nuclear Repulsion Energy =           1346.2133265754609965
    One-Electron Energy =               -4083.9679342893068679
    Two-Electron Energy =                1708.7313094010528403
    Total Energy =                      -1029.0232983127930311
  Basis Set: (AUG-CC-PVTZ AUX)
    Blend: AUG-CC-PVTZ-RI
    Molecular point group: c1

    Geometry (in Angstrom), charge = 0, multiplicity = 1:

       Center              X                  Y                   Z               Mass
    ------------   -----------------  -----------------  -----------------  -----------------
         O           -2.919619452186    -0.483823204120     1.017216894147    15.994914619570
         O           -2.974876452186     0.509108795880    -1.040088105853    15.994914619570
         O           -0.319725452186    -3.436680204120     0.467538894147    15.994914619570
         O           -0.265728452186     3.441235795880    -0.476773105853    15.994914619570
         O           -1.907950452186    -2.487549204120    -0.748695105853    15.994914619570
         O           -1.847463452186     2.515138795880     0.767877894147    15.994914619570
         O            3.952998547814    -1.144551204120    -0.020637105853    15.994914619570
         O            3.975204547814     1.063531795880     0.046357894147    15.994914619570
         N           -0.850676452186    -2.469434204120    -0.099174105853    14.003074004430
         N           -0.803459452186     2.482614795880     0.097721894147    14.003074004430
         N            3.400217547814    -0.034777204120     0.010218894147    14.003074004430
         C           -0.871020452186     0.008790795880    -0.008462105853    12.000000000000
         C           -0.020478852186    -1.099724004120    -0.018870305853    12.000000000000
         C           -0.116054452186     1.184552795880     0.008537894147    12.000000000000
         C            1.923851547814    -0.019464204120     0.003086894147    12.000000000000
         C            1.247401547814    -1.232097204120    -0.000208105853    12.000000000000
         C            1.272130547814     1.207255795880     0.005154894147    12.000000000000
         C           -2.373297452186     0.048516795880    -0.092439105853    12.000000000000
         H            1.776768547814    -2.178168204120     0.007194894147     1.007825032230
         H            1.820037547814     2.142829795880     0.005798894147     1.007825032230
         H           -3.892554452186    -0.455076204120     0.890866894147     1.007825032230

  Basis Set: AUG-CC-PVTZ
    Blend: AUG-CC-PVTZ
  Basis Set: (AUG-CC-PVTZ AUX)
    Blend: AUG-CC-PVTZ-JKFIT
	 Reference Energy          =   -1029.0232983127930311 [Eh]
	 Singles Energy            =      -0.0000000000000000 [Eh]
	 Same-Spin Energy          =      -1.0511109275665194 [Eh]
	 Opposite-Spin Energy      =      -2.9525950749051142 [Eh]
	 Correlation Energy        =      -4.0037060024716338 [Eh]
	 Total Energy              =   -1033.0270043152647759 [Eh]

	 ================> DF-SCS-MP2 Energies <==================
	-----------------------------------------------------------
	 SCS Same-Spin Scale       =       0.3333333333333333 [-]
	 SCS Opposite-Spin Scale   =       1.2000000000000000 [-]
	 SCS Same-Spin Energy      =      -0.3503703091888398 [Eh]
	 SCS Opposite-Spin Energy  =      -3.5431140898861369 [Eh]
	 SCS Correlation Energy    =      -3.8934843990749766 [Eh]
	 SCS Total Energy          =   -1032.9167827118681089 [Eh]
	-----------------------------------------------------------

  Dipole Moment: [D]
     X:    -0.0728      Y:    -0.5468      Z:     1.1726     Total:     1.2958

*** Psi4 exiting successfully. Buy a developer a beer!
