                               Psi4 1.4a3.dev225

  ==> Input File <==

--------------------------------------------------------------------------
#psi4
#
memory 32 gb

molecule  {
0 1
  O       -2.9128620    -0.4781290     1.0138340
  O       -2.9681190     0.5148030    -1.0434710
  O       -0.3129680    -3.4309860     0.4641560
  O       -0.2589710     3.4469300    -0.4801560
  O       -1.9011930    -2.4818550    -0.7520780
  O       -1.8407060     2.5208330     0.7644950
  O        3.9597560    -1.1388570    -0.0240200
  O        3.9819620     1.0692260     0.0429750
  N       -0.7523667    -2.5102692    -0.1002399
  N       -0.7967020     2.4883090     0.0943390
  N        3.4069750    -0.0290830     0.0068360
  C       -0.8642630     0.0144850    -0.0118450
  C       -0.1342560    -1.1768520    -0.0236930
  C       -0.1092970     1.1902470     0.0051550
  C        1.9306090    -0.0137700    -0.0002960
  C        1.2541590    -1.2264030    -0.0035910
  C        1.2788880     1.2129500     0.0017720
  C       -2.3665400     0.0542110    -0.0958220
  H        1.7835260    -2.1724740     0.0038120
  H        1.8267950     2.1485240     0.0024160
  H       -3.8857970    -0.4493820     0.8874840
units angstrom
no_reorient  #important for SAPT in psi4, default
symmetry c1  #important for SAPT in psi4, default
}

set PROPERTIES_ORIGIN ["COM"]
properties('MP2/aug-cc-pvtz', properties = ['dipole'])
--------------------------------------------------------------------------

    Molecular point group: c1
  Charge       = 0
  Multiplicity = 1
  Basis Set: AUG-CC-PVTZ
    Blend: AUG-CC-PVTZ
  Basis Set: (AUG-CC-PVTZ AUX)
    Blend: AUG-CC-PVTZ-JKFIT

    Orbital Energies [Eh]
    ---------------------

    Doubly Occupied:

       1A    -20.685310     2A    -20.652595     3A    -20.651181
       4A    -20.651098     5A    -20.649799     6A    -20.649687
       7A    -20.620033     8A    -20.591436     9A    -15.902373
      10A    -15.900297    11A    -15.899894    12A    -11.448817
      13A    -11.386834    14A    -11.385803    15A    -11.380187
      16A    -11.377217    17A    -11.355891    18A    -11.355480
      19A     -1.668203    20A     -1.635311    21A     -1.633327
      22A     -1.501390    23A     -1.435328    24A     -1.433814
      25A     -1.411532    26A     -1.401057    27A     -1.290189
      28A     -1.183717    29A     -1.182441    30A     -1.059882
      31A     -1.035184    32A     -1.025606    33A     -0.922185
      34A     -0.887135    35A     -0.872194    36A     -0.840167
      37A     -0.805383    38A     -0.793783    39A     -0.789597
      40A     -0.775590    41A     -0.770935    42A     -0.763096
      43A     -0.757795    44A     -0.754508    45A     -0.746172
      46A     -0.738953    47A     -0.718501    48A     -0.691163
      49A     -0.663990    50A     -0.646111    51A     -0.626656
      52A     -0.608991    53A     -0.556245    54A     -0.547727
      55A     -0.542649    56A     -0.538079    57A     -0.535118
      58A     -0.528811    59A     -0.516075    60A     -0.504861
      61A     -0.494657    62A     -0.487754    63A     -0.485585
      64A     -0.446898    65A     -0.446366

  @DF-RHF Final Energy: -1029.03729325760219

   => Energetics <=

    Nuclear Repulsion Energy =           1345.3361031315948821
    One-Electron Energy =               -4082.2575123549158889
    Two-Electron Energy =                1707.8841159657188200
    Total Energy =                      -1029.0372932576021867
  Basis Set: (AUG-CC-PVTZ AUX)
    Blend: AUG-CC-PVTZ-RI
    Molecular point group: c1

    Geometry (in Angstrom), charge = 0, multiplicity = 1:

       Center              X                  Y                   Z               Mass
    ------------   -----------------  -----------------  -----------------  -----------------
         O           -2.918979737491    -0.477420599600     1.017157869267    15.994914619570
         O           -2.974236737491     0.515511400400    -1.040147130733    15.994914619570
         O           -0.319085737491    -3.430277599600     0.467479869267    15.994914619570
         O           -0.265088737491     3.447638400400    -0.476832130733    15.994914619570
         O           -1.907310737491    -2.481146599600    -0.748754130733    15.994914619570
         O           -1.846823737491     2.521541400400     0.767818869267    15.994914619570
         O            3.953638262509    -1.138148599600    -0.020696130733    15.994914619570
         O            3.975844262509     1.069934400400     0.046298869267    15.994914619570
         N           -0.758484437491    -2.509560799600    -0.096916030733    14.003074004430
         N           -0.802819737491     2.489017400400     0.097662869267    14.003074004430
         N            3.400857262509    -0.028374599600     0.010159869267    14.003074004430
         C           -0.870380737491     0.015193400400    -0.008521130733    12.000000000000
         C           -0.140373737491    -1.176143599600    -0.020369130733    12.000000000000
         C           -0.115414737491     1.190955400400     0.008478869267    12.000000000000
         C            1.924491262509    -0.013061599600     0.003027869267    12.000000000000
         C            1.248041262509    -1.225694599600    -0.000267130733    12.000000000000
         C            1.272770262509     1.213658400400     0.005095869267    12.000000000000
         C           -2.372657737491     0.054919400400    -0.092498130733    12.000000000000
         H            1.777408262509    -2.171765599600     0.007135869267     1.007825032230
         H            1.820677262509     2.149232400400     0.005739869267     1.007825032230
         H           -3.891914737491    -0.448673599600     0.890807869267     1.007825032230

  Basis Set: AUG-CC-PVTZ
    Blend: AUG-CC-PVTZ
  Basis Set: (AUG-CC-PVTZ AUX)
    Blend: AUG-CC-PVTZ-JKFIT
	 Reference Energy          =   -1029.0372932576021867 [Eh]
	 Singles Energy            =      -0.0000000000000000 [Eh]
	 Same-Spin Energy          =      -1.0489034334593674 [Eh]
	 Opposite-Spin Energy      =      -2.9481584237582905 [Eh]
	 Correlation Energy        =      -3.9970618572176582 [Eh]
	 Total Energy              =   -1033.0343551148198458 [Eh]

	 ================> DF-SCS-MP2 Energies <==================
	-----------------------------------------------------------
	 SCS Same-Spin Scale       =       0.3333333333333333 [-]
	 SCS Opposite-Spin Scale   =       1.2000000000000000 [-]
	 SCS Same-Spin Energy      =      -0.3496344778197891 [Eh]
	 SCS Opposite-Spin Energy  =      -3.5377901085099484 [Eh]
	 SCS Correlation Energy    =      -3.8874245863297374 [Eh]
	 SCS Total Energy          =   -1032.9247178439318304 [Eh]
	-----------------------------------------------------------

  Dipole Moment: [D]
     X:     0.1851      Y:    -0.7532      Z:     1.4149     Total:     1.6136

*** Psi4 exiting successfully. Buy a developer a beer!
