                               Psi4 1.4a3.dev225

  ==> Input File <==

--------------------------------------------------------------------------
#psi4
#
memory 32 gb

molecule  {
0 1
  O       -2.8912997    -0.4822887     1.0222054
  O       -2.9681190     0.5148030    -1.0434710
  O       -0.3129680    -3.4309860     0.4641560
  O       -0.2589710     3.4469300    -0.4801560
  O       -1.9011930    -2.4818550    -0.7520780
  O       -1.8407060     2.5208330     0.7644950
  O        3.9597560    -1.1388570    -0.0240200
  O        3.9819620     1.0692260     0.0429750
  N       -0.8439190    -2.4637400    -0.1025570
  N       -0.7967020     2.4883090     0.0943390
  N        3.4069750    -0.0290830     0.0068360
  C       -0.8642630     0.0144850    -0.0118450
  C       -0.1342560    -1.1768520    -0.0236930
  C       -0.1092970     1.1902470     0.0051550
  C        1.9306090    -0.0137700    -0.0002960
  C        1.2541590    -1.2264030    -0.0035910
  C        1.2788880     1.2129500     0.0017720
  C       -2.3665400     0.0542110    -0.0958220
  H        1.7835260    -2.1724740     0.0038120
  H        1.8267950     2.1485240     0.0024160
  H       -3.8857970    -0.4493820     0.8874840
units angstrom
no_reorient  #important for SAPT in psi4, default
symmetry c1  #important for SAPT in psi4, default
}

set PROPERTIES_ORIGIN ["COM"]
properties('MP2/aug-cc-pvtz', properties = ['dipole'])
--------------------------------------------------------------------------

    Molecular point group: c1
  Charge       = 0
  Multiplicity = 1
  Basis Set: AUG-CC-PVTZ
    Blend: AUG-CC-PVTZ
  Basis Set: (AUG-CC-PVTZ AUX)
    Blend: AUG-CC-PVTZ-JKFIT

    Orbital Energies [Eh]
    ---------------------

    Doubly Occupied:

       1A    -20.660909     2A    -20.652573     3A    -20.652283
       4A    -20.650368     5A    -20.650299     6A    -20.650003
       7A    -20.649836     8A    -20.597123     9A    -15.902574
      10A    -15.901751    11A    -15.899899    12A    -11.452821
      13A    -11.386118    14A    -11.384853    15A    -11.379767
      16A    -11.375085    17A    -11.355660    18A    -11.355339
      19A     -1.636441    20A     -1.634517    21A     -1.633492
      22A     -1.504657    23A     -1.436517    24A     -1.434508
      25A     -1.434044    26A     -1.405942    27A     -1.290040
      28A     -1.183934    29A     -1.181012    30A     -1.055805
      31A     -1.035509    32A     -1.027845    33A     -0.921751
      34A     -0.883553    35A     -0.870125    36A     -0.836446
      37A     -0.802429    38A     -0.789623    39A     -0.788025
      40A     -0.774869    41A     -0.765716    42A     -0.763025
      43A     -0.757090    44A     -0.753391    45A     -0.745198
      46A     -0.741649    47A     -0.715736    48A     -0.691568
      49A     -0.667876    50A     -0.645990    51A     -0.629839
      52A     -0.607814    53A     -0.555168    54A     -0.549742
      55A     -0.544121    56A     -0.540100    57A     -0.535945
      58A     -0.534180    59A     -0.523084    60A     -0.509544
      61A     -0.493729    62A     -0.492125    63A     -0.486926
      64A     -0.447224    65A     -0.445676

  @DF-RHF Final Energy: -1029.04712473616269

   => Energetics <=

    Nuclear Repulsion Energy =           1346.0443109976818050
    One-Electron Energy =               -4083.6612761551368749
    Two-Electron Energy =                1708.5698404212923833
    Total Energy =                      -1029.0471247361626865
  Basis Set: (AUG-CC-PVTZ AUX)
    Blend: AUG-CC-PVTZ-RI
    Molecular point group: c1

    Geometry (in Angstrom), charge = 0, multiplicity = 1:

       Center              X                  Y                   Z               Mass
    ------------   -----------------  -----------------  -----------------  -----------------
         O           -2.893770917625    -0.483856704129     1.025134497056    15.994914619570
         O           -2.970590217625     0.513234995871    -1.040541902944    15.994914619570
         O           -0.315439217625    -3.432554004129     0.467085097056    15.994914619570
         O           -0.261442217625     3.445361995871    -0.477226902944    15.994914619570
         O           -1.903664217625    -2.483423004129    -0.749148902944    15.994914619570
         O           -1.843177217625     2.519264995871     0.767424097056    15.994914619570
         O            3.957284782375    -1.140425004129    -0.021090902944    15.994914619570
         O            3.979490782375     1.067657995871     0.045904097056    15.994914619570
         N           -0.846390217625    -2.465308004129    -0.099627902944    14.003074004430
         N           -0.799173217625     2.486740995871     0.097268097056    14.003074004430
         N            3.404503782375    -0.030651004129     0.009765097056    14.003074004430
         C           -0.866734217625     0.012916995871    -0.008915902944    12.000000000000
         C           -0.136727217625    -1.178420004129    -0.020763902944    12.000000000000
         C           -0.111768217625     1.188678995871     0.008084097056    12.000000000000
         C            1.928137782375    -0.015338004129     0.002633097056    12.000000000000
         C            1.251687782375    -1.227971004129    -0.000661902944    12.000000000000
         C            1.276416782375     1.211381995871     0.004701097056    12.000000000000
         C           -2.369011217625     0.052642995871    -0.092892902944    12.000000000000
         H            1.781054782375    -2.174042004129     0.006741097056     1.007825032230
         H            1.824323782375     2.146955995871     0.005345097056     1.007825032230
         H           -3.888268217625    -0.450950004129     0.890413097056     1.007825032230

  Basis Set: AUG-CC-PVTZ
    Blend: AUG-CC-PVTZ
  Basis Set: (AUG-CC-PVTZ AUX)
    Blend: AUG-CC-PVTZ-JKFIT
	 Reference Energy          =   -1029.0471247361626865 [Eh]
	 Singles Energy            =      -0.0000000000000000 [Eh]
	 Same-Spin Energy          =      -1.0504177712689327 [Eh]
	 Opposite-Spin Energy      =      -2.9512063970514548 [Eh]
	 Correlation Energy        =      -4.0016241683203875 [Eh]
	 Total Energy              =   -1033.0487489044830909 [Eh]

	 ================> DF-SCS-MP2 Energies <==================
	-----------------------------------------------------------
	 SCS Same-Spin Scale       =       0.3333333333333333 [-]
	 SCS Opposite-Spin Scale   =       1.2000000000000000 [-]
	 SCS Same-Spin Energy      =      -0.3501392570896442 [Eh]
	 SCS Opposite-Spin Energy  =      -3.5414476764617455 [Eh]
	 SCS Correlation Energy    =      -3.8915869335513897 [Eh]
	 SCS Total Energy          =   -1032.9387116697141664 [Eh]
	-----------------------------------------------------------

  Dipole Moment: [D]
     X:    -0.1987      Y:    -0.6181      Z:     1.1924     Total:     1.3577

*** Psi4 exiting successfully. Buy a developer a beer!
