                               Psi4 1.4a3.dev225

  ==> Input File <==

--------------------------------------------------------------------------
#psi4
#
memory 32 gb

molecule  {
0 1
  O       -2.9128620    -0.4781290     1.0138340
  O       -2.9681190     0.5148030    -1.0434710
  O       -0.3129680    -3.4309860     0.4641560
  O       -0.2589710     3.4469300    -0.4801560
  O       -1.9011930    -2.4818550    -0.7520780
  O       -1.8407060     2.5208330     0.7644950
  O        3.9597560    -1.1388570    -0.0240200
  O        3.9819620     1.0692260     0.0429750
  N       -0.8439190    -2.4637400    -0.1025570
  N       -0.7967020     2.4883090     0.0943390
  N        3.4069750    -0.0290830     0.0068360
  C       -0.8642630     0.0144850    -0.0118450
  C       -0.1342560    -1.1768520    -0.0236930
  C       -0.0859404     1.1461416     0.0021247
  C        1.9306090    -0.0137700    -0.0002960
  C        1.2541590    -1.2264030    -0.0035910
  C        1.2788880     1.2129500     0.0017720
  C       -2.3665400     0.0542110    -0.0958220
  H        1.7835260    -2.1724740     0.0038120
  H        1.8267950     2.1485240     0.0024160
  H       -3.8857970    -0.4493820     0.8874840
units angstrom
no_reorient  #important for SAPT in psi4, default
symmetry c1  #important for SAPT in psi4, default
}

set PROPERTIES_ORIGIN ["COM"]
properties('MP2/aug-cc-pvtz', properties = ['dipole'])
--------------------------------------------------------------------------

    Molecular point group: c1
  Charge       = 0
  Multiplicity = 1
  Basis Set: AUG-CC-PVTZ
    Blend: AUG-CC-PVTZ
  Basis Set: (AUG-CC-PVTZ AUX)
    Blend: AUG-CC-PVTZ-JKFIT

    Orbital Energies [Eh]
    ---------------------

    Doubly Occupied:

       1A    -20.658258     2A    -20.652938     3A    -20.652790
       4A    -20.651068     5A    -20.650915     6A    -20.649160
       7A    -20.648943     8A    -20.596640     9A    -15.902745
      10A    -15.902050    11A    -15.897570    12A    -11.453915
      13A    -11.387338    14A    -11.385132    15A    -11.380943
      16A    -11.373080    17A    -11.354598    18A    -11.352965
      19A     -1.636817    20A     -1.635065    21A     -1.628451
      22A     -1.506741    23A     -1.436897    24A     -1.435067
      25A     -1.431628    26A     -1.406260    27A     -1.295075
      28A     -1.186004    29A     -1.177861    30A     -1.057099
      31A     -1.034299    32A     -1.021979    33A     -0.926980
      34A     -0.884089    35A     -0.871604    36A     -0.837241
      37A     -0.802000    38A     -0.790294    39A     -0.783805
      40A     -0.778432    41A     -0.765963    42A     -0.760459
      43A     -0.757286    44A     -0.753568    45A     -0.744280
      46A     -0.740657    47A     -0.717848    48A     -0.695414
      49A     -0.668088    50A     -0.648700    51A     -0.632111
      52A     -0.612821    53A     -0.555021    54A     -0.549360
      55A     -0.543471    56A     -0.540491    57A     -0.535999
      58A     -0.529919    59A     -0.521051    60A     -0.510045
      61A     -0.494237    62A     -0.492444    63A     -0.485774
      64A     -0.449494    65A     -0.448448

  @DF-RHF Final Energy: -1029.04643870886071

   => Energetics <=

    Nuclear Repulsion Energy =           1346.0742924287126243
    One-Electron Energy =               -4083.7060891213768627
    Two-Electron Energy =                1708.5853579838037604
    Total Energy =                      -1029.0464387088607054
  Basis Set: (AUG-CC-PVTZ AUX)
    Blend: AUG-CC-PVTZ-RI
    Molecular point group: c1

    Geometry (in Angstrom), charge = 0, multiplicity = 1:

       Center              X                  Y                   Z               Mass
    ------------   -----------------  -----------------  -----------------  -----------------
         O           -2.915081817021    -0.477896439409     1.017425621255    15.994914619570
         O           -2.970338817021     0.515035560591    -1.039879378745    15.994914619570
         O           -0.315187817021    -3.430753439409     0.467747621255    15.994914619570
         O           -0.261190817021     3.447162560591    -0.476564378745    15.994914619570
         O           -1.903412817021    -2.481622439409    -0.748486378745    15.994914619570
         O           -1.842925817021     2.521065560591     0.768086621255    15.994914619570
         O            3.957536182979    -1.138624439409    -0.020428378745    15.994914619570
         O            3.979742182979     1.069458560591     0.046566621255    15.994914619570
         N           -0.846138817021    -2.463507439409    -0.098965378745    14.003074004430
         N           -0.798921817021     2.488541560591     0.097930621255    14.003074004430
         N            3.404755182979    -0.028850439409     0.010427621255    14.003074004430
         C           -0.866482817021     0.014717560591    -0.008253378745    12.000000000000
         C           -0.136475817021    -1.176619439409    -0.020101378745    12.000000000000
         C           -0.088160217021     1.146374160591     0.005716321255    12.000000000000
         C            1.928389182979    -0.013537439409     0.003295621255    12.000000000000
         C            1.251939182979    -1.226170439409     0.000000621255    12.000000000000
         C            1.276668182979     1.213182560591     0.005363621255    12.000000000000
         C           -2.368759817021     0.054443560591    -0.092230378745    12.000000000000
         H            1.781306182979    -2.172241439409     0.007403621255     1.007825032230
         H            1.824575182979     2.148756560591     0.006007621255     1.007825032230
         H           -3.888016817021    -0.449149439409     0.891075621255     1.007825032230

  Basis Set: AUG-CC-PVTZ
    Blend: AUG-CC-PVTZ
  Basis Set: (AUG-CC-PVTZ AUX)
    Blend: AUG-CC-PVTZ-JKFIT
	 Reference Energy          =   -1029.0464387088607054 [Eh]
	 Singles Energy            =      -0.0000000000000000 [Eh]
	 Same-Spin Energy          =      -1.0502242695151029 [Eh]
	 Opposite-Spin Energy      =      -2.9507971306556735 [Eh]
	 Correlation Energy        =      -4.0010214001707762 [Eh]
	 Total Energy              =   -1033.0474601090315900 [Eh]

	 ================> DF-SCS-MP2 Energies <==================
	-----------------------------------------------------------
	 SCS Same-Spin Scale       =       0.3333333333333333 [-]
	 SCS Opposite-Spin Scale   =       1.2000000000000000 [-]
	 SCS Same-Spin Energy      =      -0.3500747565050343 [Eh]
	 SCS Opposite-Spin Energy  =      -3.5409565567868082 [Eh]
	 SCS Correlation Energy    =      -3.8910313132918426 [Eh]
	 SCS Total Energy          =   -1032.9374700221526382 [Eh]
	-----------------------------------------------------------

  Dipole Moment: [D]
     X:    -0.1367      Y:    -0.6486      Z:     1.1870     Total:     1.3595

*** Psi4 exiting successfully. Buy a developer a beer!
