                               Psi4 1.4a3.dev225

  ==> Input File <==

--------------------------------------------------------------------------
#psi4
#
memory 32 gb

molecule  {
0 1
  O       -2.9128620    -0.4781290     1.0138340
  O       -2.9681190     0.5148030    -1.0434710
  O       -0.3129680    -3.4309860     0.4641560
  O       -0.2589710     3.4469300    -0.4801560
  O       -1.9011930    -2.4818550    -0.7520780
  O       -1.8407060     2.5208330     0.7644950
  O        3.9597560    -1.1388570    -0.0240200
  O        3.8639474     1.1233031     0.0440016
  N       -0.8439190    -2.4637400    -0.1025570
  N       -0.7967020     2.4883090     0.0943390
  N        3.4069750    -0.0290830     0.0068360
  C       -0.8642630     0.0144850    -0.0118450
  C       -0.1342560    -1.1768520    -0.0236930
  C       -0.1092970     1.1902470     0.0051550
  C        1.9306090    -0.0137700    -0.0002960
  C        1.2541590    -1.2264030    -0.0035910
  C        1.2788880     1.2129500     0.0017720
  C       -2.3665400     0.0542110    -0.0958220
  H        1.7835260    -2.1724740     0.0038120
  H        1.8267950     2.1485240     0.0024160
  H       -3.8857970    -0.4493820     0.8874840
units angstrom
no_reorient  #important for SAPT in psi4, default
symmetry c1  #important for SAPT in psi4, default
}

set PROPERTIES_ORIGIN ["COM"]
properties('MP2/aug-cc-pvtz', properties = ['dipole'])
--------------------------------------------------------------------------

    Molecular point group: c1
  Charge       = 0
  Multiplicity = 1
  Basis Set: AUG-CC-PVTZ
    Blend: AUG-CC-PVTZ
  Basis Set: (AUG-CC-PVTZ AUX)
    Blend: AUG-CC-PVTZ-JKFIT

    Orbital Energies [Eh]
    ---------------------

    Doubly Occupied:

       1A    -20.659457     2A    -20.656184     3A    -20.655254
       4A    -20.651166     5A    -20.650981     6A    -20.648479
       7A    -20.648345     8A    -20.594356     9A    -15.905850
      10A    -15.901125    11A    -15.898356    12A    -11.450842
      13A    -11.384154    14A    -11.382778    15A    -11.375108
      16A    -11.373216    17A    -11.352565    18A    -11.351812
      19A     -1.636862    20A     -1.635048    21A     -1.631987
      22A     -1.504636    23A     -1.448261    24A     -1.435186
      25A     -1.432575    26A     -1.404157    27A     -1.287280
      28A     -1.179695    29A     -1.179017    30A     -1.054077
      31A     -1.032892    32A     -1.025602    33A     -0.923831
      34A     -0.881730    35A     -0.871201    36A     -0.839338
      37A     -0.801221    38A     -0.789435    39A     -0.786917
      40A     -0.775372    41A     -0.765362    42A     -0.761768
      43A     -0.761602    44A     -0.756718    45A     -0.744385
      46A     -0.739823    47A     -0.714913    48A     -0.688661
      49A     -0.665919    50A     -0.643803    51A     -0.627983
      52A     -0.605951    53A     -0.553171    54A     -0.552065
      55A     -0.548280    56A     -0.540656    57A     -0.533588
      58A     -0.532344    59A     -0.520863    60A     -0.507530
      61A     -0.502225    62A     -0.490903    63A     -0.485390
      64A     -0.444315    65A     -0.443707

  @DF-RHF Final Energy: -1029.04453118288939

   => Energetics <=

    Nuclear Repulsion Energy =           1347.6732767291855453
    One-Electron Energy =               -4086.9790622397181323
    Two-Electron Energy =                1710.2612543276432007
    Total Energy =                      -1029.0445311828893864
  Basis Set: (AUG-CC-PVTZ AUX)
    Blend: AUG-CC-PVTZ-RI
    Molecular point group: c1

    Geometry (in Angstrom), charge = 0, multiplicity = 1:

       Center              X                  Y                   Z               Mass
    ------------   -----------------  -----------------  -----------------  -----------------
         O           -2.906646097107    -0.483321601753     1.017220229739    15.994914619570
         O           -2.961903097107     0.509610398247    -1.040084770261    15.994914619570
         O           -0.306752097107    -3.436178601753     0.467542229739    15.994914619570
         O           -0.252755097107     3.441737398247    -0.476769770261    15.994914619570
         O           -1.894977097107    -2.487047601753    -0.748691770261    15.994914619570
         O           -1.834490097107     2.515640398247     0.767881229739    15.994914619570
         O            3.965971902893    -1.144049601753    -0.020633770261    15.994914619570
         O            3.870163302893     1.118110498247     0.047387829739    15.994914619570
         N           -0.837703097107    -2.468932601753    -0.099170770261    14.003074004430
         N           -0.790486097107     2.483116398247     0.097725229739    14.003074004430
         N            3.413190902893    -0.034275601753     0.010222229739    14.003074004430
         C           -0.858047097107     0.009292398247    -0.008458770261    12.000000000000
         C           -0.128040097107    -1.182044601753    -0.020306770261    12.000000000000
         C           -0.103081097107     1.185054398247     0.008541229739    12.000000000000
         C            1.936824902893    -0.018962601753     0.003090229739    12.000000000000
         C            1.260374902893    -1.231595601753    -0.000204770261    12.000000000000
         C            1.285103902893     1.207757398247     0.005158229739    12.000000000000
         C           -2.360324097107     0.049018398247    -0.092435770261    12.000000000000
         H            1.789741902893    -2.177666601753     0.007198229739     1.007825032230
         H            1.833010902893     2.143331398247     0.005802229739     1.007825032230
         H           -3.879581097107    -0.454574601753     0.890870229739     1.007825032230

  Basis Set: AUG-CC-PVTZ
    Blend: AUG-CC-PVTZ
  Basis Set: (AUG-CC-PVTZ AUX)
    Blend: AUG-CC-PVTZ-JKFIT
	 Reference Energy          =   -1029.0445311828893864 [Eh]
	 Singles Energy            =      -0.0000000000000000 [Eh]
	 Same-Spin Energy          =      -1.0505225854603455 [Eh]
	 Opposite-Spin Energy      =      -2.9509892267701825 [Eh]
	 Correlation Energy        =      -4.0015118122305280 [Eh]
	 Total Energy              =   -1033.0460429951199330 [Eh]

	 ================> DF-SCS-MP2 Energies <==================
	-----------------------------------------------------------
	 SCS Same-Spin Scale       =       0.3333333333333333 [-]
	 SCS Opposite-Spin Scale   =       1.2000000000000000 [-]
	 SCS Same-Spin Energy      =      -0.3501741951534485 [Eh]
	 SCS Opposite-Spin Energy  =      -3.5411870721242189 [Eh]
	 SCS Correlation Energy    =      -3.8913612672776674 [Eh]
	 SCS Total Energy          =   -1032.9358924501671027 [Eh]
	-----------------------------------------------------------

  Dipole Moment: [D]
     X:     0.2523      Y:    -0.6637      Z:     1.1903     Total:     1.3860

*** Psi4 exiting successfully. Buy a developer a beer!
