                               Psi4 1.4a3.dev225

  ==> Input File <==

--------------------------------------------------------------------------
#psi4
#
memory 32 gb

molecule  {
0 1
  O       -2.9128620    -0.4781290     1.0138340
  O       -2.9681190     0.5148030    -1.0434710
  O       -0.3129680    -3.4309860     0.4641560
  O       -0.2589710     3.4469300    -0.4801560
  O       -1.9011930    -2.4818550    -0.7520780
  O       -1.8407060     2.5208330     0.7644950
  O        3.9597560    -1.1388570    -0.0240200
  O        3.9819620     1.0692260     0.0429750
  N       -0.8439190    -2.4637400    -0.1025570
  N       -0.7967020     2.4883090     0.0943390
  N        3.4069750    -0.0290830     0.0068360
  C       -0.8642630     0.0144850    -0.0118450
  C       -0.1342560    -1.1768520    -0.0236930
  C       -0.1092970     1.1902470     0.0051550
  C        1.9306090    -0.0137700    -0.0002960
  C        1.2541590    -1.2264030    -0.0035910
  C        1.2788880     1.2129500     0.0017720
  C       -2.3665400     0.0542110    -0.0958220
  H        1.7835260    -2.1724740     0.0038120
  H        1.7257243     1.9759416     0.0022972
  H       -3.8857970    -0.4493820     0.8874840
units angstrom
no_reorient  #important for SAPT in psi4, default
symmetry c1  #important for SAPT in psi4, default
}

set PROPERTIES_ORIGIN ["COM"]
properties('MP2/aug-cc-pvtz', properties = ['dipole'])
--------------------------------------------------------------------------

    Molecular point group: c1
  Charge       = 0
  Multiplicity = 1
  Basis Set: AUG-CC-PVTZ
    Blend: AUG-CC-PVTZ
  Basis Set: (AUG-CC-PVTZ AUX)
    Blend: AUG-CC-PVTZ-JKFIT

    Orbital Energies [Eh]
    ---------------------

    Doubly Occupied:

       1A    -20.658115     2A    -20.653504     3A    -20.653298
       4A    -20.651463     5A    -20.651138     6A    -20.651043
       7A    -20.650621     8A    -20.596485     9A    -15.903531
      10A    -15.902590    11A    -15.900874    12A    -11.453037
      13A    -11.387893    14A    -11.386404    15A    -11.381116
      16A    -11.376306    17A    -11.356276    18A    -11.337841
      19A     -1.637389    20A     -1.635394    21A     -1.634432
      22A     -1.506646    23A     -1.437443    24A     -1.435332
      25A     -1.434928    26A     -1.406192    27A     -1.292825
      28A     -1.188616    29A     -1.183452    30A     -1.060389
      31A     -1.039978    32A     -1.036166    33A     -0.927472
      34A     -0.890595    35A     -0.874425    36A     -0.839015
      37A     -0.809100    38A     -0.803477    39A     -0.788881
      40A     -0.784976    41A     -0.767482    42A     -0.764307
      43A     -0.758531    44A     -0.754379    45A     -0.748393
      46A     -0.742738    47A     -0.716756    48A     -0.701240
      49A     -0.670786    50A     -0.657713    51A     -0.631317
      52A     -0.609305    53A     -0.556011    54A     -0.550675
      55A     -0.545299    56A     -0.540862    57A     -0.536994
      58A     -0.535152    59A     -0.523050    60A     -0.509802
      61A     -0.494321    62A     -0.492913    63A     -0.487526
      64A     -0.448858    65A     -0.446744

  @DF-RHF Final Energy: -1029.01414935253797

   => Energetics <=

    Nuclear Repulsion Energy =           1347.1307545210145236
    One-Electron Energy =               -4085.5101934805688870
    Two-Electron Energy =                1709.3652896070161660
    Total Energy =                      -1029.0141493525379701
  Basis Set: (AUG-CC-PVTZ AUX)
    Blend: AUG-CC-PVTZ-RI
    Molecular point group: c1

    Geometry (in Angstrom), charge = 0, multiplicity = 1:

       Center              X                  Y                   Z               Mass
    ------------   -----------------  -----------------  -----------------  -----------------
         O           -2.913594841705    -0.479279096915     1.017284590140    15.994914619570
         O           -2.968851841705     0.513652903085    -1.040020409860    15.994914619570
         O           -0.313700841705    -3.432136096915     0.467606590140    15.994914619570
         O           -0.259703841705     3.445779903085    -0.476705409860    15.994914619570
         O           -1.901925841705    -2.483005096915    -0.748627409860    15.994914619570
         O           -1.841438841705     2.519682903085     0.767945590140    15.994914619570
         O            3.959023158295    -1.140007096915    -0.020569409860    15.994914619570
         O            3.981229158295     1.068075903085     0.046425590140    15.994914619570
         N           -0.844651841705    -2.464890096915    -0.099106409860    14.003074004430
         N           -0.797434841705     2.487158903085     0.097789590140    14.003074004430
         N            3.406242158295    -0.030233096915     0.010286590140    14.003074004430
         C           -0.864995841705     0.013334903085    -0.008394409860    12.000000000000
         C           -0.134988841705    -1.178002096915    -0.020242409860    12.000000000000
         C           -0.110029841705     1.189096903085     0.008605590140    12.000000000000
         C            1.929876158295    -0.014920096915     0.003154590140    12.000000000000
         C            1.253426158295    -1.227553096915    -0.000140409860    12.000000000000
         C            1.278155158295     1.211799903085     0.005222590140    12.000000000000
         C           -2.367272841705     0.053060903085    -0.092371409860    12.000000000000
         H            1.782793158295    -2.173624096915     0.007262590140     1.007825032230
         H            1.724991458295     1.974791503085     0.005747790140     1.007825032230
         H           -3.886529841705    -0.450532096915     0.890934590140     1.007825032230

  Basis Set: AUG-CC-PVTZ
    Blend: AUG-CC-PVTZ
  Basis Set: (AUG-CC-PVTZ AUX)
    Blend: AUG-CC-PVTZ-JKFIT
	 Reference Energy          =   -1029.0141493525379701 [Eh]
	 Singles Energy            =      -0.0000000000000000 [Eh]
	 Same-Spin Energy          =      -1.0493390049250191 [Eh]
	 Opposite-Spin Energy      =      -2.9496779611303667 [Eh]
	 Correlation Energy        =      -3.9990169660553860 [Eh]
	 Total Energy              =   -1033.0131663185934485 [Eh]

	 ================> DF-SCS-MP2 Energies <==================
	-----------------------------------------------------------
	 SCS Same-Spin Scale       =       0.3333333333333333 [-]
	 SCS Opposite-Spin Scale   =       1.2000000000000000 [-]
	 SCS Same-Spin Energy      =      -0.3497796683083397 [Eh]
	 SCS Opposite-Spin Energy  =      -3.5396135533564399 [Eh]
	 SCS Correlation Energy    =      -3.8893932216647795 [Eh]
	 SCS Total Energy          =   -1032.9035425742026746 [Eh]
	-----------------------------------------------------------

  Dipole Moment: [D]
     X:    -0.2278      Y:    -0.7475      Z:     1.1958     Total:     1.4285

*** Psi4 exiting successfully. Buy a developer a beer!
