                               Psi4 1.4a3.dev225

  ==> Input File <==

--------------------------------------------------------------------------
#psi4
#
memory 32 gb

molecule  {
0 1
  O       -2.9128620    -0.4781290     1.0138340
  O       -2.9681190     0.5148030    -1.0434710
  O       -0.3129680    -3.4309860     0.4641560
  O       -0.2589710     3.4469300    -0.4801560
  O       -1.9011930    -2.4818550    -0.7520780
  O       -1.8407060     2.5208330     0.7644950
  O        3.9597560    -1.1388570    -0.0240200
  O        3.9819620     1.0692260     0.0429750
  N       -0.8439190    -2.4637400    -0.1025570
  N       -0.7967020     2.4883090     0.0943390
  N        3.4069750    -0.0290830     0.0068360
  C       -0.8642630     0.0144850    -0.0118450
  C       -0.1342560    -1.1768520    -0.0236930
  C       -0.1560102     1.2784578     0.0112156
  C        1.9306090    -0.0137700    -0.0002960
  C        1.2541590    -1.2264030    -0.0035910
  C        1.2788880     1.2129500     0.0017720
  C       -2.3665400     0.0542110    -0.0958220
  H        1.7835260    -2.1724740     0.0038120
  H        1.8267950     2.1485240     0.0024160
  H       -3.8857970    -0.4493820     0.8874840
units angstrom
no_reorient  #important for SAPT in psi4, default
symmetry c1  #important for SAPT in psi4, default
}

set PROPERTIES_ORIGIN ["COM"]
properties('MP2/aug-cc-pvtz', properties = ['dipole'])
--------------------------------------------------------------------------

    Molecular point group: c1
  Charge       = 0
  Multiplicity = 1
  Basis Set: AUG-CC-PVTZ
    Blend: AUG-CC-PVTZ
  Basis Set: (AUG-CC-PVTZ AUX)
    Blend: AUG-CC-PVTZ-JKFIT

    Orbital Energies [Eh]
    ---------------------

    Doubly Occupied:

       1A    -20.656839     2A    -20.653097     3A    -20.652778
       4A    -20.650709     5A    -20.650559     6A    -20.649538
       7A    -20.649488     8A    -20.595048     9A    -15.903652
      10A    -15.902739    11A    -15.900482    12A    -11.450534
      13A    -11.386695    14A    -11.386470    15A    -11.383246
      16A    -11.380009    17A    -11.362922    18A    -11.360081
      19A     -1.644033    20A     -1.637010    21A     -1.634947
      22A     -1.505386    23A     -1.437617    24A     -1.437026
      25A     -1.434900    26A     -1.404918    27A     -1.284018
      28A     -1.195073    29A     -1.182124    30A     -1.065065
      31A     -1.039384    32A     -1.029978    33A     -0.919959
      34A     -0.882979    35A     -0.869993    36A     -0.837601
      37A     -0.806063    38A     -0.797261    39A     -0.790021
      40A     -0.775216    41A     -0.769596    42A     -0.765251
      43A     -0.757805    44A     -0.754274    45A     -0.749786
      46A     -0.741311    47A     -0.713603    48A     -0.684100
      49A     -0.667338    50A     -0.642210    51A     -0.622537
      52A     -0.600905    53A     -0.557256    54A     -0.550720
      55A     -0.547344    56A     -0.540089    57A     -0.539245
      58A     -0.536103    59A     -0.523068    60A     -0.507617
      61A     -0.494102    62A     -0.492533    63A     -0.488015
      64A     -0.447046    65A     -0.438770

  @DF-RHF Final Energy: -1029.03765021591335

   => Energetics <=

    Nuclear Repulsion Energy =           1345.4547605555183054
    One-Electron Energy =               -4082.3526669976599806
    Two-Electron Energy =                1707.8602562262285574
    Total Energy =                      -1029.0376502159133452
  Basis Set: (AUG-CC-PVTZ AUX)
    Blend: AUG-CC-PVTZ-RI
    Molecular point group: c1

    Geometry (in Angstrom), charge = 0, multiplicity = 1:

       Center              X                  Y                   Z               Mass
    ------------   -----------------  -----------------  -----------------  -----------------
         O           -2.911809973719    -0.484074819721     1.017001130244    15.994914619570
         O           -2.967066973719     0.508857180279    -1.040303869756    15.994914619570
         O           -0.311915973719    -3.436931819721     0.467323130244    15.994914619570
         O           -0.257918973719     3.440984180279    -0.476988869756    15.994914619570
         O           -1.900140973719    -2.487800819721    -0.748910869756    15.994914619570
         O           -1.839653973719     2.514887180279     0.767662130244    15.994914619570
         O            3.960808026281    -1.144802819721    -0.020852869756    15.994914619570
         O            3.983014026281     1.063280180279     0.046142130244    15.994914619570
         N           -0.842866973719    -2.469685819721    -0.099389869756    14.003074004430
         N           -0.795649973719     2.482363180279     0.097506130244    14.003074004430
         N            3.408027026281    -0.035028819721     0.010003130244    14.003074004430
         C           -0.863210973719     0.008539180279    -0.008677869756    12.000000000000
         C           -0.133203973719    -1.182797819721    -0.020525869756    12.000000000000
         C           -0.154958173719     1.272511980279     0.014382730244    12.000000000000
         C            1.931661026281    -0.019715819721     0.002871130244    12.000000000000
         C            1.255211026281    -1.232348819721    -0.000423869756    12.000000000000
         C            1.279940026281     1.207004180279     0.004939130244    12.000000000000
         C           -2.365487973719     0.048265180279    -0.092654869756    12.000000000000
         H            1.784578026281    -2.178419819721     0.006979130244     1.007825032230
         H            1.827847026281     2.142578180279     0.005583130244     1.007825032230
         H           -3.884744973719    -0.455327819721     0.890651130244     1.007825032230

  Basis Set: AUG-CC-PVTZ
    Blend: AUG-CC-PVTZ
  Basis Set: (AUG-CC-PVTZ AUX)
    Blend: AUG-CC-PVTZ-JKFIT
	 Reference Energy          =   -1029.0376502159133452 [Eh]
	 Singles Energy            =      -0.0000000000000000 [Eh]
	 Same-Spin Energy          =      -1.0503370034378212 [Eh]
	 Opposite-Spin Energy      =      -2.9505405230324460 [Eh]
	 Correlation Energy        =      -4.0008775264702674 [Eh]
	 Total Energy              =   -1033.0385277423836214 [Eh]

	 ================> DF-SCS-MP2 Energies <==================
	-----------------------------------------------------------
	 SCS Same-Spin Scale       =       0.3333333333333333 [-]
	 SCS Opposite-Spin Scale   =       1.2000000000000000 [-]
	 SCS Same-Spin Energy      =      -0.3501123344792737 [Eh]
	 SCS Opposite-Spin Energy  =      -3.5406486276389351 [Eh]
	 SCS Correlation Energy    =      -3.8907609621182089 [Eh]
	 SCS Total Energy          =   -1032.9284111780316380 [Eh]
	-----------------------------------------------------------

  Dipole Moment: [D]
     X:    -0.1275      Y:    -0.5769      Z:     1.1965     Total:     1.3344

*** Psi4 exiting successfully. Buy a developer a beer!
