                               Psi4 1.4a3.dev225

  ==> Input File <==

--------------------------------------------------------------------------
#psi4
#
memory 32 gb

molecule  {
0 1
  O       -2.9128620    -0.4781290     1.0138340
  O       -2.9681190     0.5148030    -1.0434710
  O       -0.3129680    -3.4309860     0.4641560
  O       -0.2589710     3.4469300    -0.4801560
  O       -1.9011930    -2.4818550    -0.7520780
  O       -1.8407060     2.5208330     0.7644950
  O        3.9597560    -1.1388570    -0.0240200
  O        3.9819620     1.0692260     0.0429750
  N       -0.8439190    -2.4637400    -0.1025570
  N       -0.7967020     2.4883090     0.0943390
  N        3.4069750    -0.0290830     0.0068360
  C       -0.8642630     0.0144850    -0.0118450
  C       -0.1342560    -1.1768520    -0.0236930
  C       -0.0822834     1.2323171     0.0057633
  C        1.9306090    -0.0137700    -0.0002960
  C        1.2541590    -1.2264030    -0.0035910
  C        1.2788880     1.2129500     0.0017720
  C       -2.3665400     0.0542110    -0.0958220
  H        1.7835260    -2.1724740     0.0038120
  H        1.8267950     2.1485240     0.0024160
  H       -3.8857970    -0.4493820     0.8874840
units angstrom
no_reorient  #important for SAPT in psi4, default
symmetry c1  #important for SAPT in psi4, default
}

set PROPERTIES_ORIGIN ["COM"]
properties('MP2/aug-cc-pvtz', properties = ['dipole'])
--------------------------------------------------------------------------

    Molecular point group: c1
  Charge       = 0
  Multiplicity = 1
  Basis Set: AUG-CC-PVTZ
    Blend: AUG-CC-PVTZ
  Basis Set: (AUG-CC-PVTZ AUX)
    Blend: AUG-CC-PVTZ-JKFIT

    Orbital Energies [Eh]
    ---------------------

    Doubly Occupied:

       1A    -20.657841     2A    -20.653360     3A    -20.652973
       4A    -20.650827     5A    -20.650293     6A    -20.649845
       7A    -20.649733     8A    -20.596218     9A    -15.903228
      10A    -15.901802    11A    -15.900662    12A    -11.452794
      13A    -11.387013    14A    -11.385296    15A    -11.381557
      16A    -11.379814    17A    -11.356889    18A    -11.351761
      19A     -1.637155    20A     -1.636144    21A     -1.634277
      22A     -1.506307    23A     -1.437200    24A     -1.435319
      25A     -1.434250    26A     -1.405880    27A     -1.288539
      28A     -1.185952    29A     -1.181709    30A     -1.056141
      31A     -1.039039    32A     -1.031062    33A     -0.921539
      34A     -0.880916    35A     -0.873036    36A     -0.837398
      37A     -0.802716    38A     -0.792054    39A     -0.789995
      40A     -0.776706    41A     -0.766521    42A     -0.764436
      43A     -0.757064    44A     -0.753473    45A     -0.747104
      46A     -0.741832    47A     -0.714733    48A     -0.690656
      49A     -0.668135    50A     -0.642692    51A     -0.628996
      52A     -0.606733    53A     -0.555774    54A     -0.550515
      55A     -0.544838    56A     -0.539885    57A     -0.536590
      58A     -0.535586    59A     -0.522902    60A     -0.509280
      61A     -0.493627    62A     -0.492632    63A     -0.487398
      64A     -0.451321    65A     -0.441006

  @DF-RHF Final Energy: -1029.04648620927242

   => Energetics <=

    Nuclear Repulsion Energy =           1345.4562952906508144
    One-Electron Energy =               -4082.4276206967892904
    Two-Electron Energy =                1707.9248391968660599
    Total Energy =                      -1029.0464862092724161
  Basis Set: (AUG-CC-PVTZ AUX)
    Blend: AUG-CC-PVTZ-RI
    Molecular point group: c1

    Geometry (in Angstrom), charge = 0, multiplicity = 1:

       Center              X                  Y                   Z               Mass
    ------------   -----------------  -----------------  -----------------  -----------------
         O           -2.915252577191    -0.481920323201     1.017255720256    15.994914619570
         O           -2.970509577191     0.511011676799    -1.040049279744    15.994914619570
         O           -0.315358577191    -3.434777323201     0.467577720256    15.994914619570
         O           -0.261361577191     3.443138676799    -0.476734279744    15.994914619570
         O           -1.903583577191    -2.485646323201    -0.748656279744    15.994914619570
         O           -1.843096577191     2.517041676799     0.767916720256    15.994914619570
         O            3.957365422809    -1.142648323201    -0.020598279744    15.994914619570
         O            3.979571422809     1.065434676799     0.046396720256    15.994914619570
         N           -0.846309577191    -2.467531323201    -0.099135279744    14.003074004430
         N           -0.799092577191     2.484517676799     0.097760720256    14.003074004430
         N            3.404584422809    -0.032874323201     0.010257720256    14.003074004430
         C           -0.866653577191     0.010693676799    -0.008423279744    12.000000000000
         C           -0.136646577191    -1.180643323201    -0.020271279744    12.000000000000
         C           -0.084673977191     1.228525776799     0.009185020256    12.000000000000
         C            1.928218422809    -0.017561323201     0.003125720256    12.000000000000
         C            1.251768422809    -1.230194323201    -0.000169279744    12.000000000000
         C            1.276497422809     1.209158676799     0.005193720256    12.000000000000
         C           -2.368930577191     0.050419676799    -0.092400279744    12.000000000000
         H            1.781135422809    -2.176265323201     0.007233720256     1.007825032230
         H            1.824404422809     2.144732676799     0.005837720256     1.007825032230
         H           -3.888187577191    -0.453173323201     0.890905720256     1.007825032230

  Basis Set: AUG-CC-PVTZ
    Blend: AUG-CC-PVTZ
  Basis Set: (AUG-CC-PVTZ AUX)
    Blend: AUG-CC-PVTZ-JKFIT
	 Reference Energy          =   -1029.0464862092724161 [Eh]
	 Singles Energy            =      -0.0000000000000000 [Eh]
	 Same-Spin Energy          =      -1.0499261147840591 [Eh]
	 Opposite-Spin Energy      =      -2.9503111521309902 [Eh]
	 Correlation Energy        =      -4.0002372669150494 [Eh]
	 Total Energy              =   -1033.0467234761874806 [Eh]

	 ================> DF-SCS-MP2 Energies <==================
	-----------------------------------------------------------
	 SCS Same-Spin Scale       =       0.3333333333333333 [-]
	 SCS Opposite-Spin Scale   =       1.2000000000000000 [-]
	 SCS Same-Spin Energy      =      -0.3499753715946863 [Eh]
	 SCS Opposite-Spin Energy  =      -3.5403733825571879 [Eh]
	 SCS Correlation Energy    =      -3.8903487541518742 [Eh]
	 SCS Total Energy          =   -1032.9368349634241895 [Eh]
	-----------------------------------------------------------

  Dipole Moment: [D]
     X:    -0.1121      Y:    -0.5885      Z:     1.2020     Total:     1.3430

*** Psi4 exiting successfully. Buy a developer a beer!
