                               Psi4 1.4a3.dev225

  ==> Input File <==

--------------------------------------------------------------------------
#psi4
#
memory 32 gb

molecule  {
0 1
  O       -2.9128620    -0.4781290     1.0138340
  O       -2.9681190     0.5148030    -1.0434710
  O       -0.3129680    -3.4309860     0.4641560
  O       -0.2589710     3.4469300    -0.4801560
  O       -1.9011930    -2.4818550    -0.7520780
  O       -1.8407060     2.5208330     0.7644950
  O        3.9597560    -1.1388570    -0.0240200
  O        3.9819620     1.0692260     0.0429750
  N       -0.8439190    -2.4637400    -0.1025570
  N       -0.7967020     2.4883090     0.0943390
  N        3.4069750    -0.0290830     0.0068360
  C       -0.8642630     0.0144850    -0.0118450
  C       -0.1342560    -1.1768520    -0.0236930
  C       -0.1092970     1.1902470     0.0051550
  C        1.9306090    -0.0137700    -0.0002960
  C        1.2741442    -1.2271162    -0.0033016
  C        1.2788880     1.2129500     0.0017720
  C       -2.3665400     0.0542110    -0.0958220
  H        1.7835260    -2.1724740     0.0038120
  H        1.8267950     2.1485240     0.0024160
  H       -3.8857970    -0.4493820     0.8874840
units angstrom
no_reorient  #important for SAPT in psi4, default
symmetry c1  #important for SAPT in psi4, default
}

set PROPERTIES_ORIGIN ["COM"]
properties('MP2/aug-cc-pvtz', properties = ['dipole'])
--------------------------------------------------------------------------

    Molecular point group: c1
  Charge       = 0
  Multiplicity = 1
  Basis Set: AUG-CC-PVTZ
    Blend: AUG-CC-PVTZ
  Basis Set: (AUG-CC-PVTZ AUX)
    Blend: AUG-CC-PVTZ-JKFIT

    Orbital Energies [Eh]
    ---------------------

    Doubly Occupied:

       1A    -20.657579     2A    -20.652702     3A    -20.652448
       4A    -20.650752     5A    -20.650422     6A    -20.650169
       7A    -20.650081     8A    -20.595965     9A    -15.902886
      10A    -15.901632    11A    -15.900128    12A    -11.452533
      13A    -11.388420    14A    -11.385553    15A    -11.379902
      16A    -11.375733    17A    -11.356968    18A    -11.356037
      19A     -1.636563    20A     -1.634828    21A     -1.633698
      22A     -1.506105    23A     -1.436659    24A     -1.434812
      25A     -1.434253    26A     -1.405669    27A     -1.289680
      28A     -1.185644    29A     -1.179813    30A     -1.055925
      31A     -1.035343    32A     -1.029031    33A     -0.924216
      34A     -0.883979    35A     -0.870816    36A     -0.837200
      37A     -0.802850    38A     -0.789876    39A     -0.788176
      40A     -0.777790    41A     -0.765890    42A     -0.763332
      43A     -0.757377    44A     -0.753673    45A     -0.745973
      46A     -0.741497    47A     -0.715458    48A     -0.690467
      49A     -0.668407    50A     -0.649097    51A     -0.629553
      52A     -0.607897    53A     -0.555323    54A     -0.549828
      55A     -0.544361    56A     -0.540203    57A     -0.535995
      58A     -0.534330    59A     -0.522426    60A     -0.509185
      61A     -0.493984    62A     -0.492279    63A     -0.486959
      64A     -0.448918    65A     -0.444163

  @DF-RHF Final Energy: -1029.04883470812820

   => Energetics <=

    Nuclear Repulsion Energy =           1345.5790083952588247
    One-Electron Energy =               -4082.6968557693630828
    Two-Electron Energy =                1708.0690126659760608
    Total Energy =                      -1029.0488347081281972
  Basis Set: (AUG-CC-PVTZ AUX)
    Blend: AUG-CC-PVTZ-RI
    Molecular point group: c1

    Geometry (in Angstrom), charge = 0, multiplicity = 1:

       Center              X                  Y                   Z               Mass
    ------------   -----------------  -----------------  -----------------  -----------------
         O           -2.914924392674    -0.479922597311     1.017270610991    15.994914619570
         O           -2.970181392674     0.513009402689    -1.040034389009    15.994914619570
         O           -0.315030392674    -3.432779597311     0.467592610991    15.994914619570
         O           -0.261033392674     3.445136402689    -0.476719389009    15.994914619570
         O           -1.903255392674    -2.483648597311    -0.748641389009    15.994914619570
         O           -1.842768392674     2.519039402689     0.767931610991    15.994914619570
         O            3.957693607326    -1.140650597311    -0.020583389009    15.994914619570
         O            3.979899607326     1.067432402689     0.046411610991    15.994914619570
         N           -0.845981392674    -2.465533597311    -0.099120389009    14.003074004430
         N           -0.798764392674     2.486515402689     0.097775610991    14.003074004430
         N            3.404912607326    -0.030876597311     0.010272610991    14.003074004430
         C           -0.866325392674     0.012691402689    -0.008408389009    12.000000000000
         C           -0.136318392674    -1.178645597311    -0.020256389009    12.000000000000
         C           -0.111359392674     1.188453402689     0.008591610991    12.000000000000
         C            1.928546607326    -0.015563597311     0.003140610991    12.000000000000
         C            1.272081807326    -1.228909797311     0.000135010991    12.000000000000
         C            1.276825607326     1.211156402689     0.005208610991    12.000000000000
         C           -2.368602392674     0.052417402689    -0.092385389009    12.000000000000
         H            1.781463607326    -2.174267597311     0.007248610991     1.007825032230
         H            1.824732607326     2.146730402689     0.005852610991     1.007825032230
         H           -3.887859392674    -0.451175597311     0.890920610991     1.007825032230

  Basis Set: AUG-CC-PVTZ
    Blend: AUG-CC-PVTZ
  Basis Set: (AUG-CC-PVTZ AUX)
    Blend: AUG-CC-PVTZ-JKFIT
	 Reference Energy          =   -1029.0488347081281972 [Eh]
	 Singles Energy            =      -0.0000000000000000 [Eh]
	 Same-Spin Energy          =      -1.0499531097038159 [Eh]
	 Opposite-Spin Energy      =      -2.9503384853703487 [Eh]
	 Correlation Energy        =      -4.0002915950741649 [Eh]
	 Total Energy              =   -1033.0491263032024563 [Eh]

	 ================> DF-SCS-MP2 Energies <==================
	-----------------------------------------------------------
	 SCS Same-Spin Scale       =       0.3333333333333333 [-]
	 SCS Opposite-Spin Scale   =       1.2000000000000000 [-]
	 SCS Same-Spin Energy      =      -0.3499843699012720 [Eh]
	 SCS Opposite-Spin Energy  =      -3.5404061824444182 [Eh]
	 SCS Correlation Energy    =      -3.8903905523456901 [Eh]
	 SCS Total Energy          =   -1032.9392252604739042 [Eh]
	-----------------------------------------------------------

  Dipole Moment: [D]
     X:    -0.1551      Y:    -0.6209      Z:     1.1889     Total:     1.3502

*** Psi4 exiting successfully. Buy a developer a beer!
