                               Psi4 1.4a3.dev225

  ==> Input File <==

--------------------------------------------------------------------------
#psi4
#
memory 32 gb

molecule  {
0 1
  O       -2.9128620    -0.4781290     1.0138340
  O       -2.9681190     0.5148030    -1.0434710
  O       -0.3129680    -3.4309860     0.4641560
  O       -0.2589710     3.4469300    -0.4801560
  O       -1.9011930    -2.4818550    -0.7520780
  O       -1.8407060     2.5208330     0.7644950
  O        3.9597560    -1.1388570    -0.0240200
  O        3.9819620     1.0692260     0.0429750
  N       -0.8439190    -2.4637400    -0.1025570
  N       -0.7967020     2.4883090     0.0943390
  N        3.4069750    -0.0290830     0.0068360
  C       -0.8642630     0.0144850    -0.0118450
  C       -0.1342560    -1.1768520    -0.0236930
  C       -0.1092970     1.1902470     0.0051550
  C        1.9106103    -0.0135626    -0.0003926
  C        1.2541590    -1.2264030    -0.0035910
  C        1.2788880     1.2129500     0.0017720
  C       -2.3665400     0.0542110    -0.0958220
  H        1.7835260    -2.1724740     0.0038120
  H        1.8267950     2.1485240     0.0024160
  H       -3.8857970    -0.4493820     0.8874840
units angstrom
no_reorient  #important for SAPT in psi4, default
symmetry c1  #important for SAPT in psi4, default
}

set PROPERTIES_ORIGIN ["COM"]
properties('MP2/aug-cc-pvtz', properties = ['dipole'])
--------------------------------------------------------------------------

    Molecular point group: c1
  Charge       = 0
  Multiplicity = 1
  Basis Set: AUG-CC-PVTZ
    Blend: AUG-CC-PVTZ
  Basis Set: (AUG-CC-PVTZ AUX)
    Blend: AUG-CC-PVTZ-JKFIT

    Orbital Energies [Eh]
    ---------------------

    Doubly Occupied:

       1A    -20.657551     2A    -20.652888     3A    -20.652674
       4A    -20.650629     5A    -20.650560     6A    -20.650296
       7A    -20.650135     8A    -20.595846     9A    -15.902819
      10A    -15.901283    11A    -15.900098    12A    -11.452413
      13A    -11.386928    14A    -11.385712    15A    -11.380248
      16A    -11.375236    17A    -11.354731    18A    -11.354443
      19A     -1.636757    20A     -1.633808    21A     -1.632931
      22A     -1.506055    23A     -1.436836    24A     -1.434355
      25A     -1.433989    26A     -1.405592    27A     -1.292183
      28A     -1.183216    29A     -1.181884    30A     -1.055349
      31A     -1.033037    32A     -1.030111    33A     -0.923796
      34A     -0.884050    35A     -0.871378    36A     -0.836841
      37A     -0.803242    38A     -0.789693    39A     -0.788174
      40A     -0.777170    41A     -0.765928    42A     -0.763320
      43A     -0.756502    44A     -0.752155    45A     -0.745895
      46A     -0.741444    47A     -0.716536    48A     -0.690941
      49A     -0.668584    50A     -0.649375    51A     -0.629747
      52A     -0.610184    53A     -0.555089    54A     -0.549926
      55A     -0.544189    56A     -0.540292    57A     -0.535088
      58A     -0.533517    59A     -0.522399    60A     -0.509211
      61A     -0.493635    62A     -0.492362    63A     -0.487002
      64A     -0.448816    65A     -0.446449

  @DF-RHF Final Energy: -1029.04880489644847

   => Energetics <=

    Nuclear Repulsion Energy =           1345.9925658453187225
    One-Electron Energy =               -4083.5356947461918935
    Two-Electron Energy =                1708.4943240044244703
    Total Energy =                      -1029.0488048964484733
  Basis Set: (AUG-CC-PVTZ AUX)
    Blend: AUG-CC-PVTZ-RI
    Molecular point group: c1

    Geometry (in Angstrom), charge = 0, multiplicity = 1:

       Center              X                  Y                   Z               Mass
    ------------   -----------------  -----------------  -----------------  -----------------
         O           -2.913057382130    -0.479965583861     1.017288634897    15.994914619570
         O           -2.968314382130     0.512966416139    -1.040016365103    15.994914619570
         O           -0.313163382130    -3.432822583861     0.467610634897    15.994914619570
         O           -0.259166382130     3.445093416139    -0.476701365103    15.994914619570
         O           -1.901388382130    -2.483691583861    -0.748623365103    15.994914619570
         O           -1.840901382130     2.518996416139     0.767949634897    15.994914619570
         O            3.959560617870    -1.140693583861    -0.020565365103    15.994914619570
         O            3.981766617870     1.067389416139     0.046429634897    15.994914619570
         N           -0.844114382130    -2.465576583861    -0.099102365103    14.003074004430
         N           -0.796897382130     2.486472416139     0.097793634897    14.003074004430
         N            3.406779617870    -0.030919583861     0.010290634897    14.003074004430
         C           -0.864458382130     0.012648416139    -0.008390365103    12.000000000000
         C           -0.134451382130    -1.178688583861    -0.020238365103    12.000000000000
         C           -0.109492382130     1.188410416139     0.008609634897    12.000000000000
         C            1.910414917870    -0.015399183861     0.003062034897    12.000000000000
         C            1.253963617870    -1.228239583861    -0.000136365103    12.000000000000
         C            1.278692617870     1.211113416139     0.005226634897    12.000000000000
         C           -2.366735382130     0.052374416139    -0.092367365103    12.000000000000
         H            1.783330617870    -2.174310583861     0.007266634897     1.007825032230
         H            1.826599617870     2.146687416139     0.005870634897     1.007825032230
         H           -3.885992382130    -0.451218583861     0.890938634897     1.007825032230

  Basis Set: AUG-CC-PVTZ
    Blend: AUG-CC-PVTZ
  Basis Set: (AUG-CC-PVTZ AUX)
    Blend: AUG-CC-PVTZ-JKFIT
	 Reference Energy          =   -1029.0488048964484733 [Eh]
	 Singles Energy            =      -0.0000000000000000 [Eh]
	 Same-Spin Energy          =      -1.0500884232933441 [Eh]
	 Opposite-Spin Energy      =      -2.9504665247660968 [Eh]
	 Correlation Energy        =      -4.0005549480594409 [Eh]
	 Total Energy              =   -1033.0493598445079897 [Eh]

	 ================> DF-SCS-MP2 Energies <==================
	-----------------------------------------------------------
	 SCS Same-Spin Scale       =       0.3333333333333333 [-]
	 SCS Opposite-Spin Scale   =       1.2000000000000000 [-]
	 SCS Same-Spin Energy      =      -0.3500294744311147 [Eh]
	 SCS Opposite-Spin Energy  =      -3.5405598297193159 [Eh]
	 SCS Correlation Energy    =      -3.8905893041504305 [Eh]
	 SCS Total Energy          =   -1032.9393942005988265 [Eh]
	-----------------------------------------------------------

  Dipole Moment: [D]
     X:    -0.1452      Y:    -0.6177      Z:     1.1907     Total:     1.3492

*** Psi4 exiting successfully. Buy a developer a beer!
