                               Psi4 1.4a3.dev225

  ==> Input File <==

--------------------------------------------------------------------------
#psi4
#
memory 32 gb

molecule  {
0 1
  O       -2.9128620    -0.4781290     1.0138340
  O       -2.9681190     0.5148030    -1.0434710
  O       -0.3129680    -3.4309860     0.4641560
  O       -0.2589710     3.4469300    -0.4801560
  O       -1.9011930    -2.4818550    -0.7520780
  O       -1.8407060     2.5208330     0.7644950
  O        3.9597560    -1.1388570    -0.0240200
  O        3.9819620     1.0692260     0.0429750
  N       -0.8653211    -2.4247513    -0.1254006
  N       -0.7967020     2.4883090     0.0943390
  N        3.4069750    -0.0290830     0.0068360
  C       -0.8642630     0.0144850    -0.0118450
  C       -0.1342560    -1.1768520    -0.0236930
  C       -0.1092970     1.1902470     0.0051550
  C        1.9306090    -0.0137700    -0.0002960
  C        1.2541590    -1.2264030    -0.0035910
  C        1.2788880     1.2129500     0.0017720
  C       -2.3665400     0.0542110    -0.0958220
  H        1.7835260    -2.1724740     0.0038120
  H        1.8267950     2.1485240     0.0024160
  H       -3.8857970    -0.4493820     0.8874840
units angstrom
no_reorient  #important for SAPT in psi4, default
symmetry c1  #important for SAPT in psi4, default
}

set PROPERTIES_ORIGIN ["COM"]
properties('MP2/aug-cc-pvtz', properties = ['dipole'])
--------------------------------------------------------------------------

    Molecular point group: c1
  Charge       = 0
  Multiplicity = 1
  Basis Set: AUG-CC-PVTZ
    Blend: AUG-CC-PVTZ
  Basis Set: (AUG-CC-PVTZ AUX)
    Blend: AUG-CC-PVTZ-JKFIT

    Orbital Energies [Eh]
    ---------------------

    Doubly Occupied:

       1A    -20.668377     2A    -20.660329     3A    -20.651020
       4A    -20.651000     5A    -20.650958     6A    -20.650834
       7A    -20.634720     8A    -20.598694     9A    -15.902477
      10A    -15.900875    11A    -15.900662    12A    -11.454917
      13A    -11.386736    14A    -11.386140    15A    -11.380995
      16A    -11.376877    17A    -11.357440    18A    -11.357066
      19A     -1.637936    20A     -1.635186    21A     -1.634483
      22A     -1.508734    23A     -1.435199    24A     -1.435015
      25A     -1.419834    26A     -1.408351    27A     -1.292199
      28A     -1.188555    29A     -1.183137    30A     -1.057972
      31A     -1.040045    32A     -1.030614    33A     -0.925989
      34A     -0.884176    35A     -0.871987    36A     -0.837743
      37A     -0.804019    38A     -0.791190    39A     -0.788619
      40A     -0.779582    41A     -0.765553    42A     -0.762233
      43A     -0.757553    44A     -0.753994    45A     -0.746871
      46A     -0.742268    47A     -0.714025    48A     -0.692409
      49A     -0.670009    50A     -0.647404    51A     -0.631930
      52A     -0.608824    53A     -0.557790    54A     -0.547446
      55A     -0.544689    56A     -0.540083    57A     -0.537066
      58A     -0.530535    59A     -0.524397    60A     -0.511658
      61A     -0.494215    62A     -0.488147    63A     -0.487981
      64A     -0.448959    65A     -0.446173

  @DF-RHF Final Energy: -1029.04364227623228

   => Energetics <=

    Nuclear Repulsion Energy =           1346.3498762279104994
    One-Electron Energy =               -4084.1612464950640060
    Two-Electron Energy =                1708.7677279909212302
    Total Energy =                      -1029.0436422762322763
  Basis Set: (AUG-CC-PVTZ AUX)
    Blend: AUG-CC-PVTZ-RI
    Molecular point group: c1

    Geometry (in Angstrom), charge = 0, multiplicity = 1:

       Center              X                  Y                   Z               Mass
    ------------   -----------------  -----------------  -----------------  -----------------
         O           -2.912825037206    -0.482080329930     1.018528834607    15.994914619570
         O           -2.968082037206     0.510851670070    -1.038776165393    15.994914619570
         O           -0.312931037206    -3.434937329930     0.468850834607    15.994914619570
         O           -0.258934037206     3.442978670070    -0.475461165393    15.994914619570
         O           -1.901156037206    -2.485806329930    -0.747383165393    15.994914619570
         O           -1.840669037206     2.516881670070     0.769189834607    15.994914619570
         O            3.959792962794    -1.142808329930    -0.019325165393    15.994914619570
         O            3.981998962794     1.065274670070     0.047669834607    15.994914619570
         N           -0.865284137206    -2.428702629930    -0.120705765393    14.003074004430
         N           -0.796665037206     2.484357670070     0.099033834607    14.003074004430
         N            3.407011962794    -0.033034329930     0.011530834607    14.003074004430
         C           -0.864226037206     0.010533670070    -0.007150165393    12.000000000000
         C           -0.134219037206    -1.180803329930    -0.018998165393    12.000000000000
         C           -0.109260037206     1.186295670070     0.009849834607    12.000000000000
         C            1.930645962794    -0.017721329930     0.004398834607    12.000000000000
         C            1.254195962794    -1.230354329930     0.001103834607    12.000000000000
         C            1.278924962794     1.208998670070     0.006466834607    12.000000000000
         C           -2.366503037206     0.050259670070    -0.091127165393    12.000000000000
         H            1.783562962794    -2.176425329930     0.008506834607     1.007825032230
         H            1.826831962794     2.144572670070     0.007110834607     1.007825032230
         H           -3.885760037206    -0.453333329930     0.892178834607     1.007825032230

  Basis Set: AUG-CC-PVTZ
    Blend: AUG-CC-PVTZ
  Basis Set: (AUG-CC-PVTZ AUX)
    Blend: AUG-CC-PVTZ-JKFIT
	 Reference Energy          =   -1029.0436422762322763 [Eh]
	 Singles Energy            =      -0.0000000000000000 [Eh]
	 Same-Spin Energy          =      -1.0503232761785641 [Eh]
	 Opposite-Spin Energy      =      -2.9511699114662471 [Eh]
	 Correlation Energy        =      -4.0014931876448117 [Eh]
	 Total Energy              =   -1033.0451354638771591 [Eh]

	 ================> DF-SCS-MP2 Energies <==================
	-----------------------------------------------------------
	 SCS Same-Spin Scale       =       0.3333333333333333 [-]
	 SCS Opposite-Spin Scale   =       1.2000000000000000 [-]
	 SCS Same-Spin Energy      =      -0.3501077587261880 [Eh]
	 SCS Opposite-Spin Energy  =      -3.5414038937594965 [Eh]
	 SCS Correlation Energy    =      -3.8915116524856845 [Eh]
	 SCS Total Energy          =   -1032.9351539287179094 [Eh]
	-----------------------------------------------------------

  Dipole Moment: [D]
     X:    -0.1874      Y:    -0.4169      Z:     1.0898     Total:     1.1817

*** Psi4 exiting successfully. Buy a developer a beer!
