                               Psi4 1.4a3.dev225

  ==> Input File <==

--------------------------------------------------------------------------
#psi4
#
memory 32 gb

molecule  {
0 1
  O       -2.8256804    -0.4937823     1.0452667
  O       -2.9681190     0.5148030    -1.0434710
  O       -0.3129680    -3.4309860     0.4641560
  O       -0.2589710     3.4469300    -0.4801560
  O       -1.9011930    -2.4818550    -0.7520780
  O       -1.8407060     2.5208330     0.7644950
  O        3.9597560    -1.1388570    -0.0240200
  O        3.9819620     1.0692260     0.0429750
  N       -0.8439190    -2.4637400    -0.1025570
  N       -0.7967020     2.4883090     0.0943390
  N        3.4069750    -0.0290830     0.0068360
  C       -0.8642630     0.0144850    -0.0118450
  C       -0.1342560    -1.1768520    -0.0236930
  C       -0.1092970     1.1902470     0.0051550
  C        1.9306090    -0.0137700    -0.0002960
  C        1.2541590    -1.2264030    -0.0035910
  C        1.2788880     1.2129500     0.0017720
  C       -2.3665400     0.0542110    -0.0958220
  H        1.7835260    -2.1724740     0.0038120
  H        1.8267950     2.1485240     0.0024160
  H       -3.8857970    -0.4493820     0.8874840
units angstrom
no_reorient  #important for SAPT in psi4, default
symmetry c1  #important for SAPT in psi4, default
}

set PROPERTIES_ORIGIN ["COM"]
properties('MP2/aug-cc-pvtz', properties = ['dipole'])
--------------------------------------------------------------------------

    Molecular point group: c1
  Charge       = 0
  Multiplicity = 1
  Basis Set: AUG-CC-PVTZ
    Blend: AUG-CC-PVTZ
  Basis Set: (AUG-CC-PVTZ AUX)
    Blend: AUG-CC-PVTZ-JKFIT

    Orbital Energies [Eh]
    ---------------------

    Doubly Occupied:

       1A    -20.669688     2A    -20.651939     3A    -20.651371
       4A    -20.649412     5A    -20.649379     6A    -20.649315
       7A    -20.649204     8A    -20.600387     9A    -15.901775
      10A    -15.900793    11A    -15.899237    12A    -11.453777
      13A    -11.384413    14A    -11.383040    15A    -11.378230
      16A    -11.372499    17A    -11.354631    18A    -11.354272
      19A     -1.635685    20A     -1.633569    21A     -1.632880
      22A     -1.500922    23A     -1.435783    24A     -1.433594
      25A     -1.433404    26A     -1.406983    27A     -1.288550
      28A     -1.182402    29A     -1.179857    30A     -1.053549
      31A     -1.034472    32A     -1.026788    33A     -0.915606
      34A     -0.882641    35A     -0.867352    36A     -0.834327
      37A     -0.801222    38A     -0.788490    39A     -0.787110
      40A     -0.769431    41A     -0.765030    42A     -0.762319
      43A     -0.756242    44A     -0.752525    45A     -0.742756
      46A     -0.740195    47A     -0.714936    48A     -0.691691
      49A     -0.668495    50A     -0.645121    51A     -0.628383
      52A     -0.605458    53A     -0.554432    54A     -0.549160
      55A     -0.543805    56A     -0.539385    57A     -0.535152
      58A     -0.533575    59A     -0.524878    60A     -0.510058
      61A     -0.492903    62A     -0.491579    63A     -0.486805
      64A     -0.445704    65A     -0.444572

  @DF-RHF Final Energy: -1029.03458168515658

   => Energetics <=

    Nuclear Repulsion Energy =           1346.7905599779719523
    One-Electron Energy =               -4085.2440134999137626
    Two-Electron Energy =                1709.4188718367852289
    Total Energy =                      -1029.0345816851565814
  Basis Set: (AUG-CC-PVTZ AUX)
    Blend: AUG-CC-PVTZ-RI
    Molecular point group: c1

    Geometry (in Angstrom), charge = 0, multiplicity = 1:

       Center              X                  Y                   Z               Mass
    ------------   -----------------  -----------------  -----------------  -----------------
         O           -2.832235694341    -0.494634954466     1.046760485823    15.994914619570
         O           -2.974674294341     0.513950345534    -1.041977214177    15.994914619570
         O           -0.319523294341    -3.431838654466     0.465649785823    15.994914619570
         O           -0.265526294341     3.446077345534    -0.478662214177    15.994914619570
         O           -1.907748294341    -2.482707654466    -0.750584214177    15.994914619570
         O           -1.847261294341     2.519980345534     0.765988785823    15.994914619570
         O            3.953200705659    -1.139709654466    -0.022526214177    15.994914619570
         O            3.975406705659     1.068373345534     0.044468785823    15.994914619570
         N           -0.850474294341    -2.464592654466    -0.101063214177    14.003074004430
         N           -0.803257294341     2.487456345534     0.095832785823    14.003074004430
         N            3.400419705659    -0.029935654466     0.008329785823    14.003074004430
         C           -0.870818294341     0.013632345534    -0.010351214177    12.000000000000
         C           -0.140811294341    -1.177704654466    -0.022199214177    12.000000000000
         C           -0.115852294341     1.189394345534     0.006648785823    12.000000000000
         C            1.924053705659    -0.014622654466     0.001197785823    12.000000000000
         C            1.247603705659    -1.227255654466    -0.002097214177    12.000000000000
         C            1.272332705659     1.212097345534     0.003265785823    12.000000000000
         C           -2.373095294341     0.053358345534    -0.094328214177    12.000000000000
         H            1.776970705659    -2.173326654466     0.005305785823     1.007825032230
         H            1.820239705659     2.147671345534     0.003909785823     1.007825032230
         H           -3.892352294341    -0.450234654466     0.888977785823     1.007825032230

  Basis Set: AUG-CC-PVTZ
    Blend: AUG-CC-PVTZ
  Basis Set: (AUG-CC-PVTZ AUX)
    Blend: AUG-CC-PVTZ-JKFIT
	 Reference Energy          =   -1029.0345816851565814 [Eh]
	 Singles Energy            =      -0.0000000000000000 [Eh]
	 Same-Spin Energy          =      -1.0518345957960569 [Eh]
	 Opposite-Spin Energy      =      -2.9541783217611939 [Eh]
	 Correlation Energy        =      -4.0060129175572508 [Eh]
	 Total Energy              =   -1033.0405946027137816 [Eh]

	 ================> DF-SCS-MP2 Energies <==================
	-----------------------------------------------------------
	 SCS Same-Spin Scale       =       0.3333333333333333 [-]
	 SCS Opposite-Spin Scale   =       1.2000000000000000 [-]
	 SCS Same-Spin Energy      =      -0.3506115319320189 [Eh]
	 SCS Opposite-Spin Energy  =      -3.5450139861134327 [Eh]
	 SCS Correlation Energy    =      -3.8956255180454518 [Eh]
	 SCS Total Energy          =   -1032.9302072032021442 [Eh]
	-----------------------------------------------------------

  Dipole Moment: [D]
     X:    -0.3757      Y:    -0.6182      Z:     1.1962     Total:     1.3980

*** Psi4 exiting successfully. Buy a developer a beer!
