                               Psi4 1.4a3.dev225

  ==> Input File <==

--------------------------------------------------------------------------
#psi4
#
memory 32 gb

molecule  {
0 1
  O       -2.9128620    -0.4781290     1.0138340
  O       -2.9681190     0.5148030    -1.0434710
  O       -0.3129680    -3.4309860     0.4641560
  O       -0.2589710     3.4469300    -0.4801560
  O       -1.9011930    -2.4818550    -0.7520780
  O       -1.8407060     2.5208330     0.7644950
  O        3.9597560    -1.1388570    -0.0240200
  O        3.9819620     1.0692260     0.0429750
  N       -0.8439190    -2.4637400    -0.1025570
  N       -0.9649524     2.4935505     0.2023405
  N        3.4069750    -0.0290830     0.0068360
  C       -0.8642630     0.0144850    -0.0118450
  C       -0.1342560    -1.1768520    -0.0236930
  C       -0.1092970     1.1902470     0.0051550
  C        1.9306090    -0.0137700    -0.0002960
  C        1.2541590    -1.2264030    -0.0035910
  C        1.2788880     1.2129500     0.0017720
  C       -2.3665400     0.0542110    -0.0958220
  H        1.7835260    -2.1724740     0.0038120
  H        1.8267950     2.1485240     0.0024160
  H       -3.8857970    -0.4493820     0.8874840
units angstrom
no_reorient  #important for SAPT in psi4, default
symmetry c1  #important for SAPT in psi4, default
}

set PROPERTIES_ORIGIN ["COM"]
properties('MP2/aug-cc-pvtz', properties = ['dipole'])
--------------------------------------------------------------------------

    Molecular point group: c1
  Charge       = 0
  Multiplicity = 1
  Basis Set: AUG-CC-PVTZ
    Blend: AUG-CC-PVTZ
  Basis Set: (AUG-CC-PVTZ AUX)
    Blend: AUG-CC-PVTZ-JKFIT

    Orbital Energies [Eh]
    ---------------------

    Doubly Occupied:

       1A    -20.718865     2A    -20.665070     3A    -20.650797
       4A    -20.650507     5A    -20.646580     6A    -20.646483
       7A    -20.604722     8A    -20.589129     9A    -15.900416
      10A    -15.897928    11A    -15.895299    12A    -11.457714
      13A    -11.382238    14A    -11.379253    15A    -11.375594
      16A    -11.367927    17A    -11.349418    18A    -11.348782
      19A     -1.797590    20A     -1.634632    21A     -1.630676
      22A     -1.513950    23A     -1.434868    24A     -1.430654
      25A     -1.414093    26A     -1.383925    27A     -1.281913
      28A     -1.180158    29A     -1.162924    30A     -1.047380
      31A     -1.028138    32A     -1.015636    33A     -0.925196
      34A     -0.910040    35A     -0.871870    36A     -0.847473
      37A     -0.830053    38A     -0.814972    39A     -0.799061
      40A     -0.786350    41A     -0.779910    42A     -0.773585
      43A     -0.763892    44A     -0.754581    45A     -0.751080
      46A     -0.747255    47A     -0.718842    48A     -0.690788
      49A     -0.672648    50A     -0.644628    51A     -0.633540
      52A     -0.607076    53A     -0.552450    54A     -0.544543
      55A     -0.539727    56A     -0.535464    57A     -0.529618
      58A     -0.521586    59A     -0.515718    60A     -0.491283
      61A     -0.490954    62A     -0.488183    63A     -0.483915
      64A     -0.444399    65A     -0.435229

  @DF-RHF Final Energy: -1028.98602405814017

   => Energetics <=

    Nuclear Repulsion Energy =           1346.3332579578989225
    One-Electron Energy =               -4083.8802254573106438
    Two-Electron Energy =                1708.5609434412717746
    Total Energy =                      -1028.9860240581401740
  Basis Set: (AUG-CC-PVTZ AUX)
    Blend: AUG-CC-PVTZ-RI
    Molecular point group: c1

    Geometry (in Angstrom), charge = 0, multiplicity = 1:

       Center              X                  Y                   Z               Mass
    ------------   -----------------  -----------------  -----------------  -----------------
         O           -2.904823513813    -0.480241500265     1.011399299376    15.994914619570
         O           -2.960080513813     0.512690499735    -1.045905700624    15.994914619570
         O           -0.304929513813    -3.433098500265     0.461721299376    15.994914619570
         O           -0.250932513813     3.444817499735    -0.482590700624    15.994914619570
         O           -1.893154513813    -2.483967500265    -0.754512700624    15.994914619570
         O           -1.832667513813     2.518720499735     0.762060299376    15.994914619570
         O            3.967794486187    -1.140969500265    -0.026454700624    15.994914619570
         O            3.990000486187     1.067113499735     0.040540299376    15.994914619570
         N           -0.835880513813    -2.465852500265    -0.104991700624    14.003074004430
         N           -0.956913913813     2.491437999735     0.199905799376    14.003074004430
         N            3.415013486187    -0.031195500265     0.004401299376    14.003074004430
         C           -0.856224513813     0.012372499735    -0.014279700624    12.000000000000
         C           -0.126217513813    -1.178964500265    -0.026127700624    12.000000000000
         C           -0.101258513813     1.188134499735     0.002720299376    12.000000000000
         C            1.938647486187    -0.015882500265    -0.002730700624    12.000000000000
         C            1.262197486187    -1.228515500265    -0.006025700624    12.000000000000
         C            1.286926486187     1.210837499735    -0.000662700624    12.000000000000
         C           -2.358501513813     0.052098499735    -0.098256700624    12.000000000000
         H            1.791564486187    -2.174586500265     0.001377299376     1.007825032230
         H            1.834833486187     2.146411499735    -0.000018700624     1.007825032230
         H           -3.877758513813    -0.451494500265     0.885049299376     1.007825032230

  Basis Set: AUG-CC-PVTZ
    Blend: AUG-CC-PVTZ
  Basis Set: (AUG-CC-PVTZ AUX)
    Blend: AUG-CC-PVTZ-JKFIT
	 Reference Energy          =   -1028.9860240581401740 [Eh]
	 Singles Energy            =      -0.0000000000000000 [Eh]
	 Same-Spin Energy          =      -1.0441410412906698 [Eh]
	 Opposite-Spin Energy      =      -2.9371832482952325 [Eh]
	 Correlation Energy        =      -3.9813242895859022 [Eh]
	 Total Energy              =   -1032.9673483477261016 [Eh]

	 ================> DF-SCS-MP2 Energies <==================
	-----------------------------------------------------------
	 SCS Same-Spin Scale       =       0.3333333333333333 [-]
	 SCS Opposite-Spin Scale   =       1.2000000000000000 [-]
	 SCS Same-Spin Energy      =      -0.3480470137635566 [Eh]
	 SCS Opposite-Spin Energy  =      -3.5246198979542789 [Eh]
	 SCS Correlation Energy    =      -3.8726669117178356 [Eh]
	 SCS Total Energy          =   -1032.8586909698581167 [Eh]
	-----------------------------------------------------------

  Dipole Moment: [D]
     X:    -1.3126      Y:    -0.7295      Z:     2.0432     Total:     2.5357

*** Psi4 exiting successfully. Buy a developer a beer!
