                               Psi4 1.4a3.dev225

  ==> Input File <==

--------------------------------------------------------------------------
#psi4
#
memory 32 gb

molecule  {
0 1
  O       -2.9128620    -0.4781290     1.0138340
  O       -2.9681190     0.5148030    -1.0434710
  O       -0.3129680    -3.4309860     0.4641560
  O       -0.2589710     3.4469300    -0.4801560
  O       -1.9011930    -2.4818550    -0.7520780
  O       -1.8407060     2.5208330     0.7644950
  O        3.9597560    -1.1388570    -0.0240200
  O        3.9819620     1.0692260     0.0429750
  N       -0.8439190    -2.4637400    -0.1025570
  N       -0.7967020     2.4883090     0.0943390
  N        3.4069750    -0.0290830     0.0068360
  C       -0.8642630     0.0144850    -0.0118450
  C       -0.1342560    -1.1768520    -0.0236930
  C       -0.1092970     1.1902470     0.0051550
  C        1.9306090    -0.0137700    -0.0002960
  C        1.2541590    -1.2264030    -0.0035910
  C        1.4788607     1.2162204     0.0012847
  C       -2.3665400     0.0542110    -0.0958220
  H        1.7835260    -2.1724740     0.0038120
  H        1.8267950     2.1485240     0.0024160
  H       -3.8857970    -0.4493820     0.8874840
units angstrom
no_reorient  #important for SAPT in psi4, default
symmetry c1  #important for SAPT in psi4, default
}

set PROPERTIES_ORIGIN ["COM"]
properties('MP2/aug-cc-pvtz', properties = ['dipole'])
--------------------------------------------------------------------------

    Molecular point group: c1
  Charge       = 0
  Multiplicity = 1
  Basis Set: AUG-CC-PVTZ
    Blend: AUG-CC-PVTZ
  Basis Set: (AUG-CC-PVTZ AUX)
    Blend: AUG-CC-PVTZ-JKFIT

    Orbital Energies [Eh]
    ---------------------

    Doubly Occupied:

       1A    -20.656522     2A    -20.653155     3A    -20.652712
       4A    -20.651314     5A    -20.649116     6A    -20.648523
       7A    -20.648419     8A    -20.594093     9A    -15.903101
      10A    -15.899803    11A    -15.897568    12A    -11.450868
      13A    -11.397703    14A    -11.388493    15A    -11.378086
      16A    -11.372135    17A    -11.363843    18A    -11.358920
      19A     -1.636933    20A     -1.635119    21A     -1.632108
      22A     -1.504809    23A     -1.436970    24A     -1.435075
      25A     -1.432910    26A     -1.404085    27A     -1.285667
      28A     -1.198273    29A     -1.166617    30A     -1.051329
      31A     -1.039981    32A     -1.027661    33A     -0.922635
      34A     -0.885614    35A     -0.868985    36A     -0.836985
      37A     -0.809269    38A     -0.801354    39A     -0.785786
      40A     -0.772465    41A     -0.765457    42A     -0.762688
      43A     -0.757004    44A     -0.752179    45A     -0.746620
      46A     -0.741376    47A     -0.717788    48A     -0.682042
      49A     -0.673881    50A     -0.650794    51A     -0.621681
      52A     -0.603815    53A     -0.554583    54A     -0.549115
      55A     -0.544922    56A     -0.539552    57A     -0.534880
      58A     -0.529257    59A     -0.521452    60A     -0.507847
      61A     -0.494357    62A     -0.492403    63A     -0.486151
      64A     -0.463779    65A     -0.427167

  @DF-RHF Final Energy: -1029.00605058129167

   => Energetics <=

    Nuclear Repulsion Energy =           1343.7040303048715941
    One-Electron Energy =               -4078.9085762772065209
    Two-Electron Energy =                1706.1984953910432523
    Total Energy =                      -1029.0060505812916745
  Basis Set: (AUG-CC-PVTZ AUX)
    Blend: AUG-CC-PVTZ-RI
    Molecular point group: c1

    Geometry (in Angstrom), charge = 0, multiplicity = 1:

       Center              X                  Y                   Z               Mass
    ------------   -----------------  -----------------  -----------------  -----------------
         O           -2.923328739431    -0.480108607760     1.017306878266    15.994914619570
         O           -2.978585739431     0.512823392240    -1.039998121734    15.994914619570
         O           -0.323434739431    -3.432965607760     0.467628878266    15.994914619570
         O           -0.269437739431     3.444950392240    -0.476683121734    15.994914619570
         O           -1.911659739431    -2.483834607760    -0.748605121734    15.994914619570
         O           -1.851172739431     2.518853392240     0.767967878266    15.994914619570
         O            3.949289260569    -1.140836607760    -0.020547121734    15.994914619570
         O            3.971495260569     1.067246392240     0.046447878266    15.994914619570
         N           -0.854385739431    -2.465719607760    -0.099084121734    14.003074004430
         N           -0.807168739431     2.486329392240     0.097811878266    14.003074004430
         N            3.396508260569    -0.031062607760     0.010308878266    14.003074004430
         C           -0.874729739431     0.012505392240    -0.008372121734    12.000000000000
         C           -0.144722739431    -1.178831607760    -0.020220121734    12.000000000000
         C           -0.119763739431     1.188267392240     0.008627878266    12.000000000000
         C            1.920142260569    -0.015749607760     0.003176878266    12.000000000000
         C            1.243692260569    -1.228382607760    -0.000118121734    12.000000000000
         C            1.468393960569     1.214240792240     0.004757578266    12.000000000000
         C           -2.377006739431     0.052231392240    -0.092349121734    12.000000000000
         H            1.773059260569    -2.174453607760     0.007284878266     1.007825032230
         H            1.816328260569     2.146544392240     0.005888878266     1.007825032230
         H           -3.896263739431    -0.451361607760     0.890956878266     1.007825032230

  Basis Set: AUG-CC-PVTZ
    Blend: AUG-CC-PVTZ
  Basis Set: (AUG-CC-PVTZ AUX)
    Blend: AUG-CC-PVTZ-JKFIT
	 Reference Energy          =   -1029.0060505812916745 [Eh]
	 Singles Energy            =      -0.0000000000000000 [Eh]
	 Same-Spin Energy          =      -1.0499045377665359 [Eh]
	 Opposite-Spin Energy      =      -2.9530292347924543 [Eh]
	 Correlation Energy        =      -4.0029337725589897 [Eh]
	 Total Energy              =   -1033.0089843538505647 [Eh]

	 ================> DF-SCS-MP2 Energies <==================
	-----------------------------------------------------------
	 SCS Same-Spin Scale       =       0.3333333333333333 [-]
	 SCS Opposite-Spin Scale   =       1.2000000000000000 [-]
	 SCS Same-Spin Energy      =      -0.3499681792555119 [Eh]
	 SCS Opposite-Spin Energy  =      -3.5436350817509452 [Eh]
	 SCS Correlation Energy    =      -3.8936032610064570 [Eh]
	 SCS Total Energy          =   -1032.8996538422982212 [Eh]
	-----------------------------------------------------------

  Dipole Moment: [D]
     X:    -0.2425      Y:    -0.5955      Z:     1.2025     Total:     1.3636

*** Psi4 exiting successfully. Buy a developer a beer!
