                               Psi4 1.4a3.dev225

  ==> Input File <==

--------------------------------------------------------------------------
#psi4
#
memory 32 gb

molecule  {
0 1
  O       -2.9128620    -0.4781290     1.0138340
  O       -2.9681190     0.5148030    -1.0434710
  O       -0.3129680    -3.4309860     0.4641560
  O       -0.2589710     3.4469300    -0.4801560
  O       -1.9011930    -2.4818550    -0.7520780
  O       -1.8407060     2.5208330     0.7644950
  O        3.9597560    -1.1388570    -0.0240200
  O        3.9819620     1.0692260     0.0429750
  N       -0.8439190    -2.4637400    -0.1025570
  N       -0.7967020     2.4883090     0.0943390
  N        3.4069750    -0.0290830     0.0068360
  C       -0.8642630     0.0144850    -0.0118450
  C       -0.1342560    -1.1768520    -0.0236930
  C       -0.1092970     1.1902470     0.0051550
  C        1.9306090    -0.0137700    -0.0002960
  C        1.2444158    -1.2438692    -0.0036385
  C        1.2788880     1.2129500     0.0017720
  C       -2.3665400     0.0542110    -0.0958220
  H        1.7835260    -2.1724740     0.0038120
  H        1.8267950     2.1485240     0.0024160
  H       -3.8857970    -0.4493820     0.8874840
units angstrom
no_reorient  #important for SAPT in psi4, default
symmetry c1  #important for SAPT in psi4, default
}

set PROPERTIES_ORIGIN ["COM"]
properties('MP2/aug-cc-pvtz', properties = ['dipole'])
--------------------------------------------------------------------------

    Molecular point group: c1
  Charge       = 0
  Multiplicity = 1
  Basis Set: AUG-CC-PVTZ
    Blend: AUG-CC-PVTZ
  Basis Set: (AUG-CC-PVTZ AUX)
    Blend: AUG-CC-PVTZ-JKFIT

    Orbital Energies [Eh]
    ---------------------

    Doubly Occupied:

       1A    -20.657871     2A    -20.652563     3A    -20.652452
       4A    -20.650511     5A    -20.650408     6A    -20.650341
       7A    -20.650190     8A    -20.596246     9A    -15.902356
      10A    -15.902014    11A    -15.900264    12A    -11.452886
      13A    -11.386216    14A    -11.385806    15A    -11.381939
      16A    -11.376321    17A    -11.356804    18A    -11.355494
      19A     -1.636611    20A     -1.634601    21A     -1.633848
      22A     -1.506397    23A     -1.436663    24A     -1.434621
      25A     -1.434389    26A     -1.405938    27A     -1.289863
      28A     -1.183614    29A     -1.181589    30A     -1.057390
      31A     -1.035382    32A     -1.027809    33A     -0.924090
      34A     -0.883577    35A     -0.871478    36A     -0.837002
      37A     -0.802802    38A     -0.789584    39A     -0.787805
      40A     -0.778016    41A     -0.765988    42A     -0.763350
      43A     -0.757477    44A     -0.753602    45A     -0.745728
      46A     -0.741552    47A     -0.715978    48A     -0.693676
      49A     -0.667400    50A     -0.646747    51A     -0.630370
      52A     -0.607960    53A     -0.555280    54A     -0.550023
      55A     -0.544185    56A     -0.540181    57A     -0.535930
      58A     -0.534423    59A     -0.522506    60A     -0.509453
      61A     -0.493879    62A     -0.492223    63A     -0.487083
      64A     -0.448638    65A     -0.444543

  @DF-RHF Final Energy: -1029.04875924420548

   => Energetics <=

    Nuclear Repulsion Energy =           1345.6638769044518540
    One-Electron Energy =               -4082.8614278005552478
    Two-Electron Energy =                1708.1487916518976817
    Total Energy =                      -1029.0487592442054847
  Basis Set: (AUG-CC-PVTZ AUX)
    Blend: AUG-CC-PVTZ-RI
    Molecular point group: c1

    Geometry (in Angstrom), charge = 0, multiplicity = 1:

       Center              X                  Y                   Z               Mass
    ------------   -----------------  -----------------  -----------------  -----------------
         O           -2.913536253042    -0.479140331758     1.017286342219    15.994914619570
         O           -2.968793253042     0.513791668242    -1.040018657781    15.994914619570
         O           -0.313642253042    -3.431997331758     0.467608342219    15.994914619570
         O           -0.259645253042     3.445918668242    -0.476703657781    15.994914619570
         O           -1.901867253042    -2.482866331758    -0.748625657781    15.994914619570
         O           -1.841380253042     2.519821668242     0.767947342219    15.994914619570
         O            3.959081746958    -1.139868331758    -0.020567657781    15.994914619570
         O            3.981287746958     1.068214668242     0.046427342219    15.994914619570
         N           -0.844593253042    -2.464751331758    -0.099104657781    14.003074004430
         N           -0.797376253042     2.487297668242     0.097791342219    14.003074004430
         N            3.406300746958    -0.030094331758     0.010288342219    14.003074004430
         C           -0.864937253042     0.013473668242    -0.008392657781    12.000000000000
         C           -0.134930253042    -1.177863331758    -0.020240657781    12.000000000000
         C           -0.109971253042     1.189235668242     0.008607342219    12.000000000000
         C            1.929934746958    -0.014781331758     0.003156342219    12.000000000000
         C            1.243741546958    -1.244880531758    -0.000186157781    12.000000000000
         C            1.278213746958     1.211938668242     0.005224342219    12.000000000000
         C           -2.367214253042     0.053199668242    -0.092369657781    12.000000000000
         H            1.782851746958    -2.173485331758     0.007264342219     1.007825032230
         H            1.826120746958     2.147512668242     0.005868342219     1.007825032230
         H           -3.886471253042    -0.450393331758     0.890936342219     1.007825032230

  Basis Set: AUG-CC-PVTZ
    Blend: AUG-CC-PVTZ
  Basis Set: (AUG-CC-PVTZ AUX)
    Blend: AUG-CC-PVTZ-JKFIT
	 Reference Energy          =   -1029.0487592442054847 [Eh]
	 Singles Energy            =      -0.0000000000000000 [Eh]
	 Same-Spin Energy          =      -1.0499793917344296 [Eh]
	 Opposite-Spin Energy      =      -2.9503954659229019 [Eh]
	 Correlation Energy        =      -4.0003748576573317 [Eh]
	 Total Energy              =   -1033.0491341018628191 [Eh]

	 ================> DF-SCS-MP2 Energies <==================
	-----------------------------------------------------------
	 SCS Same-Spin Scale       =       0.3333333333333333 [-]
	 SCS Opposite-Spin Scale   =       1.2000000000000000 [-]
	 SCS Same-Spin Energy      =      -0.3499931305781432 [Eh]
	 SCS Opposite-Spin Energy  =      -3.5404745591074822 [Eh]
	 SCS Correlation Energy    =      -3.8904676896856252 [Eh]
	 SCS Total Energy          =   -1032.9392269338911774 [Eh]
	-----------------------------------------------------------

  Dipole Moment: [D]
     X:    -0.1312      Y:    -0.6005      Z:     1.1925     Total:     1.3416

*** Psi4 exiting successfully. Buy a developer a beer!
