                               Psi4 1.4a3.dev225

  ==> Input File <==

--------------------------------------------------------------------------
#psi4
#
memory 32 gb

molecule  {
0 1
  O       -2.9128620    -0.4781290     1.0138340
  O       -2.9681190     0.5148030    -1.0434710
  O       -0.3129680    -3.4309860     0.4641560
  O       -0.2589710     3.4469300    -0.4801560
  O       -1.9011930    -2.4818550    -0.7520780
  O       -1.8407060     2.5208330     0.7644950
  O        3.9597560    -1.1388570    -0.0240200
  O        3.9819620     1.0692260     0.0429750
  N       -0.9295274    -2.3077852    -0.1939315
  N       -0.7967020     2.4883090     0.0943390
  N        3.4069750    -0.0290830     0.0068360
  C       -0.8642630     0.0144850    -0.0118450
  C       -0.1342560    -1.1768520    -0.0236930
  C       -0.1092970     1.1902470     0.0051550
  C        1.9306090    -0.0137700    -0.0002960
  C        1.2541590    -1.2264030    -0.0035910
  C        1.2788880     1.2129500     0.0017720
  C       -2.3665400     0.0542110    -0.0958220
  H        1.7835260    -2.1724740     0.0038120
  H        1.8267950     2.1485240     0.0024160
  H       -3.8857970    -0.4493820     0.8874840
units angstrom
no_reorient  #important for SAPT in psi4, default
symmetry c1  #important for SAPT in psi4, default
}

set PROPERTIES_ORIGIN ["COM"]
properties('MP2/aug-cc-pvtz', properties = ['dipole'])
--------------------------------------------------------------------------

    Molecular point group: c1
  Charge       = 0
  Multiplicity = 1
  Basis Set: AUG-CC-PVTZ
    Blend: AUG-CC-PVTZ
  Basis Set: (AUG-CC-PVTZ AUX)
    Blend: AUG-CC-PVTZ-JKFIT

    Orbital Energies [Eh]
    ---------------------

    Doubly Occupied:

       1A    -20.708551     2A    -20.667288     3A    -20.652953
       4A    -20.652765     5A    -20.651964     6A    -20.651912
       7A    -20.605832     8A    -20.585671     9A    -15.903651
      10A    -15.902635    11A    -15.885347    12A    -11.460969
      13A    -11.387631    14A    -11.386752    15A    -11.383016
      16A    -11.378647    17A    -11.361766    18A    -11.360916
      19A     -1.695049    20A     -1.636558    21A     -1.636067
      22A     -1.515847    23A     -1.437126    24A     -1.436003
      25A     -1.415298    26A     -1.347894    27A     -1.290546
      28A     -1.201335    29A     -1.184741    30A     -1.062762
      31A     -1.052216    32A     -1.033725    33A     -0.930714
      34A     -0.892065    35A     -0.875288    36A     -0.845697
      37A     -0.810646    38A     -0.803182    39A     -0.790253
      40A     -0.786320    41A     -0.775069    42A     -0.766627
      43A     -0.760245    44A     -0.756585    45A     -0.751685
      46A     -0.749276    47A     -0.715064    48A     -0.696514
      49A     -0.675284    50A     -0.649963    51A     -0.637697
      52A     -0.612266    53A     -0.553331    54A     -0.549066
      55A     -0.542804    56A     -0.538817    57A     -0.536366
      58A     -0.519227    59A     -0.518235    60A     -0.496775
      61A     -0.493811    62A     -0.490288    63A     -0.470947
      64A     -0.451052    65A     -0.442364

  @DF-RHF Final Energy: -1028.99590502467117

   => Energetics <=

    Nuclear Repulsion Energy =           1348.2597099868096393
    One-Electron Energy =               -4087.6773169008811237
    Two-Electron Energy =                1710.4217018894000830
    Total Energy =                      -1028.9959050246711740
  Basis Set: (AUG-CC-PVTZ AUX)
    Blend: AUG-CC-PVTZ-RI
    Molecular point group: c1

    Geometry (in Angstrom), charge = 0, multiplicity = 1:

       Center              X                  Y                   Z               Mass
    ------------   -----------------  -----------------  -----------------  -----------------
         O           -2.909326541061    -0.488453621179     1.022262971124    15.994914619570
         O           -2.964583541061     0.504478378821    -1.035042028876    15.994914619570
         O           -0.309432541061    -3.441310621179     0.472584971124    15.994914619570
         O           -0.255435541061     3.436605378821    -0.471727028876    15.994914619570
         O           -1.897657541061    -2.492179621179    -0.743649028876    15.994914619570
         O           -1.837170541061     2.510508378821     0.772923971124    15.994914619570
         O            3.963291458939    -1.149181621179    -0.015591028876    15.994914619570
         O            3.985497458939     1.058901378821     0.051403971124    15.994914619570
         N           -0.925991941061    -2.318109821179    -0.185502528876    14.003074004430
         N           -0.793166541061     2.477984378821     0.102767971124    14.003074004430
         N            3.410510458939    -0.039407621179     0.015264971124    14.003074004430
         C           -0.860727541061     0.004160378821    -0.003416028876    12.000000000000
         C           -0.130720541061    -1.187176621179    -0.015264028876    12.000000000000
         C           -0.105761541061     1.179922378821     0.013583971124    12.000000000000
         C            1.934144458939    -0.024094621179     0.008132971124    12.000000000000
         C            1.257694458939    -1.236727621179     0.004837971124    12.000000000000
         C            1.282423458939     1.202625378821     0.010200971124    12.000000000000
         C           -2.363004541061     0.043886378821    -0.087393028876    12.000000000000
         H            1.787061458939    -2.182798621179     0.012240971124     1.007825032230
         H            1.830330458939     2.138199378821     0.010844971124     1.007825032230
         H           -3.882261541061    -0.459706621179     0.895912971124     1.007825032230

  Basis Set: AUG-CC-PVTZ
    Blend: AUG-CC-PVTZ
  Basis Set: (AUG-CC-PVTZ AUX)
    Blend: AUG-CC-PVTZ-JKFIT
	 Reference Energy          =   -1028.9959050246711740 [Eh]
	 Singles Energy            =      -0.0000000000000000 [Eh]
	 Same-Spin Energy          =      -1.0476112802903617 [Eh]
	 Opposite-Spin Energy      =      -2.9467107112656215 [Eh]
	 Correlation Energy        =      -3.9943219915559833 [Eh]
	 Total Energy              =   -1032.9902270162272089 [Eh]

	 ================> DF-SCS-MP2 Energies <==================
	-----------------------------------------------------------
	 SCS Same-Spin Scale       =       0.3333333333333333 [-]
	 SCS Opposite-Spin Scale   =       1.2000000000000000 [-]
	 SCS Same-Spin Energy      =      -0.3492037600967872 [Eh]
	 SCS Opposite-Spin Energy  =      -3.5360528535187457 [Eh]
	 SCS Correlation Energy    =      -3.8852566136155327 [Eh]
	 SCS Total Energy          =   -1032.8811616382868124 [Eh]
	-----------------------------------------------------------

  Dipole Moment: [D]
     X:    -0.4952      Y:     0.5746      Z:     0.5830     Total:     0.9567

*** Psi4 exiting successfully. Buy a developer a beer!
