                               Psi4 1.4a3.dev225

  ==> Input File <==

--------------------------------------------------------------------------
#psi4
#
memory 32 gb

molecule  {
0 1
  O       -2.9128620    -0.4781290     1.0138340
  O       -2.9681190     0.5148030    -1.0434710
  O       -0.3129680    -3.4309860     0.4641560
  O       -0.2589710     3.4469300    -0.4801560
  O       -1.9011930    -2.4818550    -0.7520780
  O       -1.8407060     2.5208330     0.7644950
  O        3.9597560    -1.1388570    -0.0240200
  O        3.9819620     1.0692260     0.0429750
  N       -0.8439190    -2.4637400    -0.1025570
  N       -0.7967020     2.4883090     0.0943390
  N        3.4069750    -0.0290830     0.0068360
  C       -0.8642630     0.0144850    -0.0118450
  C       -0.0529274    -1.1230343    -0.0227466
  C       -0.1092970     1.1902470     0.0051550
  C        1.9306090    -0.0137700    -0.0002960
  C        1.2541590    -1.2264030    -0.0035910
  C        1.2788880     1.2129500     0.0017720
  C       -2.3665400     0.0542110    -0.0958220
  H        1.7835260    -2.1724740     0.0038120
  H        1.8267950     2.1485240     0.0024160
  H       -3.8857970    -0.4493820     0.8874840
units angstrom
no_reorient  #important for SAPT in psi4, default
symmetry c1  #important for SAPT in psi4, default
}

set PROPERTIES_ORIGIN ["COM"]
properties('MP2/aug-cc-pvtz', properties = ['dipole'])
--------------------------------------------------------------------------

    Molecular point group: c1
  Charge       = 0
  Multiplicity = 1
  Basis Set: AUG-CC-PVTZ
    Blend: AUG-CC-PVTZ
  Basis Set: (AUG-CC-PVTZ AUX)
    Blend: AUG-CC-PVTZ-JKFIT

    Orbital Energies [Eh]
    ---------------------

    Doubly Occupied:

       1A    -20.658530     2A    -20.651196     3A    -20.651174
       4A    -20.650958     5A    -20.650683     6A    -20.650429
       7A    -20.649952     8A    -20.597765     9A    -15.901837
      10A    -15.900377    11A    -15.897109    12A    -11.455777
      13A    -11.387371    14A    -11.385960    15A    -11.381481
      16A    -11.376178    17A    -11.353536    18A    -11.345030
      19A     -1.634975    20A     -1.634481    21A     -1.627353
      22A     -1.507207    23A     -1.435130    24A     -1.434859
      25A     -1.431731    26A     -1.407070    27A     -1.298900
      28A     -1.187570    29A     -1.176089    30A     -1.059481
      31A     -1.033179    32A     -1.017690    33A     -0.926974
      34A     -0.881184    35A     -0.874624    36A     -0.836880
      37A     -0.802828    38A     -0.789641    39A     -0.785108
      40A     -0.774646    41A     -0.764610    42A     -0.759493
      43A     -0.757225    44A     -0.752994    45A     -0.746003
      46A     -0.738907    47A     -0.719361    48A     -0.698655
      49A     -0.668353    50A     -0.647979    51A     -0.633142
      52A     -0.616618    53A     -0.553954    54A     -0.548743
      55A     -0.542958    56A     -0.540503    57A     -0.535191
      58A     -0.529554    59A     -0.518712    60A     -0.511358
      61A     -0.494208    62A     -0.489717    63A     -0.487553
      64A     -0.455943    65A     -0.445497

  @DF-RHF Final Energy: -1029.03757274040117

   => Energetics <=

    Nuclear Repulsion Energy =           1346.0288112715918487
    One-Electron Energy =               -4083.6124236656337416
    Two-Electron Energy =                1708.5460396536404915
    Total Energy =                      -1029.0375727404011741
  Basis Set: (AUG-CC-PVTZ AUX)
    Blend: AUG-CC-PVTZ-RI
    Molecular point group: c1

    Geometry (in Angstrom), charge = 0, multiplicity = 1:

       Center              X                  Y                   Z               Mass
    ------------   -----------------  -----------------  -----------------  -----------------
         O           -2.917788764949    -0.482468866316     1.017239932995    15.994914619570
         O           -2.973045764949     0.510463133684    -1.040065067005    15.994914619570
         O           -0.317894764949    -3.435325866316     0.467561932995    15.994914619570
         O           -0.263897764949     3.442590133684    -0.476750067005    15.994914619570
         O           -1.906119764949    -2.486194866316    -0.748672067005    15.994914619570
         O           -1.845632764949     2.516493133684     0.767900932995    15.994914619570
         O            3.954829235051    -1.143196866316    -0.020614067005    15.994914619570
         O            3.977035235051     1.064886133684     0.046380932995    15.994914619570
         N           -0.848845764949    -2.468079866316    -0.099151067005    14.003074004430
         N           -0.801628764949     2.483969133684     0.097744932995    14.003074004430
         N            3.402048235051    -0.033422866316     0.010241932995    14.003074004430
         C           -0.869189764949     0.010145133684    -0.008439067005    12.000000000000
         C           -0.057854164949    -1.127374166316    -0.019340667005    12.000000000000
         C           -0.114223764949     1.185907133684     0.008560932995    12.000000000000
         C            1.925682235051    -0.018109866316     0.003109932995    12.000000000000
         C            1.249232235051    -1.230742866316    -0.000185067005    12.000000000000
         C            1.273961235051     1.208610133684     0.005177932995    12.000000000000
         C           -2.371466764949     0.049871133684    -0.092416067005    12.000000000000
         H            1.778599235051    -2.176813866316     0.007217932995     1.007825032230
         H            1.821868235051     2.144184133684     0.005821932995     1.007825032230
         H           -3.890723764949    -0.453721866316     0.890889932995     1.007825032230

  Basis Set: AUG-CC-PVTZ
    Blend: AUG-CC-PVTZ
  Basis Set: (AUG-CC-PVTZ AUX)
    Blend: AUG-CC-PVTZ-JKFIT
	 Reference Energy          =   -1029.0375727404011741 [Eh]
	 Singles Energy            =      -0.0000000000000000 [Eh]
	 Same-Spin Energy          =      -1.0505794914388114 [Eh]
	 Opposite-Spin Energy      =      -2.9515386861561135 [Eh]
	 Correlation Energy        =      -4.0021181775949248 [Eh]
	 Total Energy              =   -1033.0396909179960403 [Eh]

	 ================> DF-SCS-MP2 Energies <==================
	-----------------------------------------------------------
	 SCS Same-Spin Scale       =       0.3333333333333333 [-]
	 SCS Opposite-Spin Scale   =       1.2000000000000000 [-]
	 SCS Same-Spin Energy      =      -0.3501931638129371 [Eh]
	 SCS Opposite-Spin Energy  =      -3.5418464233873359 [Eh]
	 SCS Correlation Energy    =      -3.8920395872002729 [Eh]
	 SCS Total Energy          =   -1032.9296123276014896 [Eh]
	-----------------------------------------------------------

  Dipole Moment: [D]
     X:    -0.1007      Y:    -0.5807      Z:     1.1774     Total:     1.3167

*** Psi4 exiting successfully. Buy a developer a beer!
