                               Psi4 1.4a3.dev225

  ==> Input File <==

--------------------------------------------------------------------------
#psi4
#
memory 32 gb

molecule  {
0 1
  O       -2.9128620    -0.4781290     1.0138340
  O       -2.9681190     0.5148030    -1.0434710
  O       -0.3129680    -3.4309860     0.4641560
  O       -0.2589710     3.4469300    -0.4801560
  O       -1.9011930    -2.4818550    -0.7520780
  O       -1.8407060     2.5208330     0.7644950
  O        3.8809668    -1.1746848    -0.0254986
  O        3.9819620     1.0692260     0.0429750
  N       -0.8439190    -2.4637400    -0.1025570
  N       -0.7967020     2.4883090     0.0943390
  N        3.4069750    -0.0290830     0.0068360
  C       -0.8642630     0.0144850    -0.0118450
  C       -0.1342560    -1.1768520    -0.0236930
  C       -0.1092970     1.1902470     0.0051550
  C        1.9306090    -0.0137700    -0.0002960
  C        1.2541590    -1.2264030    -0.0035910
  C        1.2788880     1.2129500     0.0017720
  C       -2.3665400     0.0542110    -0.0958220
  H        1.7835260    -2.1724740     0.0038120
  H        1.8267950     2.1485240     0.0024160
  H       -3.8857970    -0.4493820     0.8874840
units angstrom
no_reorient  #important for SAPT in psi4, default
symmetry c1  #important for SAPT in psi4, default
}

set PROPERTIES_ORIGIN ["COM"]
properties('MP2/aug-cc-pvtz', properties = ['dipole'])
--------------------------------------------------------------------------

    Molecular point group: c1
  Charge       = 0
  Multiplicity = 1
  Basis Set: AUG-CC-PVTZ
    Blend: AUG-CC-PVTZ
  Basis Set: (AUG-CC-PVTZ AUX)
    Blend: AUG-CC-PVTZ-JKFIT

    Orbital Energies [Eh]
    ---------------------

    Doubly Occupied:

       1A    -20.656708     2A    -20.656587     3A    -20.653798
       4A    -20.651655     5A    -20.651465     6A    -20.649135
       7A    -20.648995     8A    -20.594935     9A    -15.904637
      10A    -15.901680    11A    -15.898993    12A    -11.451449
      13A    -11.384933    14A    -11.383793    15A    -11.376824
      16A    -11.374162    17A    -11.353477    18A    -11.353431
      19A     -1.636127    20A     -1.635493    21A     -1.632647
      22A     -1.505180    23A     -1.443862    24A     -1.435647
      25A     -1.433231    26A     -1.404708    27A     -1.288393
      28A     -1.181510    29A     -1.179646    30A     -1.054913
      31A     -1.034022    32A     -1.026353    33A     -0.923919
      34A     -0.882734    35A     -0.870850    36A     -0.838616
      37A     -0.802102    38A     -0.789164    39A     -0.787622
      40A     -0.776053    41A     -0.765314    42A     -0.762283
      43A     -0.760426    44A     -0.755924    45A     -0.744769
      46A     -0.740408    47A     -0.715351    48A     -0.689577
      49A     -0.666509    50A     -0.644671    51A     -0.628660
      52A     -0.606814    53A     -0.553877    54A     -0.549059
      55A     -0.548648    56A     -0.541426    57A     -0.534783
      58A     -0.532900    59A     -0.521412    60A     -0.508106
      61A     -0.499488    62A     -0.491286    63A     -0.486029
      64A     -0.445970    65A     -0.444038

  @DF-RHF Final Energy: -1029.04708894512623

   => Energetics <=

    Nuclear Repulsion Energy =           1347.0211971102626194
    One-Electron Energy =               -4085.6422190335556479
    Two-Electron Energy =                1709.5739329781667948
    Total Energy =                      -1029.0470889451262337
  Basis Set: (AUG-CC-PVTZ AUX)
    Blend: AUG-CC-PVTZ-RI
    Molecular point group: c1

    Geometry (in Angstrom), charge = 0, multiplicity = 1:

       Center              X                  Y                   Z               Mass
    ------------   -----------------  -----------------  -----------------  -----------------
         O           -2.909087445046    -0.477726014651     1.017376150771    15.994914619570
         O           -2.964344445046     0.515205985349    -1.039928849229    15.994914619570
         O           -0.309193445046    -3.430583014651     0.467698150771    15.994914619570
         O           -0.255196445046     3.447332985349    -0.476613849229    15.994914619570
         O           -1.897418445046    -2.481452014651    -0.748535849229    15.994914619570
         O           -1.836931445046     2.521235985349     0.768037150771    15.994914619570
         O            3.884741354954    -1.174281814651    -0.021956449229    15.994914619570
         O            3.985736554954     1.069628985349     0.046517150771    15.994914619570
         N           -0.840144445046    -2.463337014651    -0.099014849229    14.003074004430
         N           -0.792927445046     2.488711985349     0.097881150771    14.003074004430
         N            3.410749554954    -0.028680014651     0.010378150771    14.003074004430
         C           -0.860488445046     0.014887985349    -0.008302849229    12.000000000000
         C           -0.130481445046    -1.176449014651    -0.020150849229    12.000000000000
         C           -0.105522445046     1.190649985349     0.008697150771    12.000000000000
         C            1.934383554954    -0.013367014651     0.003246150771    12.000000000000
         C            1.257933554954    -1.226000014651    -0.000048849229    12.000000000000
         C            1.282662554954     1.213352985349     0.005314150771    12.000000000000
         C           -2.362765445046     0.054613985349    -0.092279849229    12.000000000000
         H            1.787300554954    -2.172071014651     0.007354150771     1.007825032230
         H            1.830569554954     2.148926985349     0.005958150771     1.007825032230
         H           -3.882022445046    -0.448979014651     0.891026150771     1.007825032230

  Basis Set: AUG-CC-PVTZ
    Blend: AUG-CC-PVTZ
  Basis Set: (AUG-CC-PVTZ AUX)
    Blend: AUG-CC-PVTZ-JKFIT
	 Reference Energy          =   -1029.0470889451262337 [Eh]
	 Singles Energy            =      -0.0000000000000000 [Eh]
	 Same-Spin Energy          =      -1.0503185574543212 [Eh]
	 Opposite-Spin Energy      =      -2.9507128492810155 [Eh]
	 Correlation Energy        =      -4.0010314067353363 [Eh]
	 Total Energy              =   -1033.0481203518615985 [Eh]

	 ================> DF-SCS-MP2 Energies <==================
	-----------------------------------------------------------
	 SCS Same-Spin Scale       =       0.3333333333333333 [-]
	 SCS Opposite-Spin Scale   =       1.2000000000000000 [-]
	 SCS Same-Spin Energy      =      -0.3501061858181070 [Eh]
	 SCS Opposite-Spin Energy  =      -3.5408554191372184 [Eh]
	 SCS Correlation Energy    =      -3.8909616049553253 [Eh]
	 SCS Total Energy          =   -1032.9380505500814706 [Eh]
	-----------------------------------------------------------

  Dipole Moment: [D]
     X:     0.1203      Y:    -0.5911      Z:     1.1935     Total:     1.3373

*** Psi4 exiting successfully. Buy a developer a beer!
