                               Psi4 1.4a3.dev225

  ==> Input File <==

--------------------------------------------------------------------------
#psi4
#
memory 32 gb

molecule  {
0 1
  O       -2.9128620    -0.4781290     1.0138340
  O       -2.9681190     0.5148030    -1.0434710
  O       -0.3129680    -3.4309860     0.4641560
  O       -0.2589710     3.4469300    -0.4801560
  O       -1.9011930    -2.4818550    -0.7520780
  O       -1.8407060     2.5208330     0.7644950
  O        3.9597560    -1.1388570    -0.0240200
  O        3.9819620     1.0692260     0.0429750
  N       -0.7985475    -2.4878032    -0.1014458
  N       -0.7967020     2.4883090     0.0943390
  N        3.4069750    -0.0290830     0.0068360
  C       -0.8642630     0.0144850    -0.0118450
  C       -0.1342560    -1.1768520    -0.0236930
  C       -0.1092970     1.1902470     0.0051550
  C        1.9306090    -0.0137700    -0.0002960
  C        1.2541590    -1.2264030    -0.0035910
  C        1.2788880     1.2129500     0.0017720
  C       -2.3665400     0.0542110    -0.0958220
  H        1.7835260    -2.1724740     0.0038120
  H        1.8267950     2.1485240     0.0024160
  H       -3.8857970    -0.4493820     0.8874840
units angstrom
no_reorient  #important for SAPT in psi4, default
symmetry c1  #important for SAPT in psi4, default
}

set PROPERTIES_ORIGIN ["COM"]
properties('MP2/aug-cc-pvtz', properties = ['dipole'])
--------------------------------------------------------------------------

    Molecular point group: c1
  Charge       = 0
  Multiplicity = 1
  Basis Set: AUG-CC-PVTZ
    Blend: AUG-CC-PVTZ
  Basis Set: (AUG-CC-PVTZ AUX)
    Blend: AUG-CC-PVTZ-JKFIT

    Orbital Energies [Eh]
    ---------------------

    Doubly Occupied:

       1A    -20.669396     2A    -20.655089     3A    -20.650940
       4A    -20.650863     5A    -20.649990     6A    -20.649859
       7A    -20.636118     8A    -20.593686     9A    -15.902292
      10A    -15.902225    11A    -15.900002    12A    -11.450678
      13A    -11.386713    14A    -11.385630    15A    -11.380242
      16A    -11.376591    17A    -11.355787    18A    -11.355722
      19A     -1.645528    20A     -1.635079    21A     -1.633508
      22A     -1.503785    23A     -1.435076    24A     -1.434034
      25A     -1.429852    26A     -1.403353    27A     -1.290458
      28A     -1.183648    29A     -1.182296    30A     -1.058142
      31A     -1.035399    32A     -1.026930    33A     -0.923157
      34A     -0.884790    35A     -0.871344    36A     -0.838068
      37A     -0.803547    38A     -0.791108    39A     -0.788934
      40A     -0.776175    41A     -0.767251    42A     -0.763068
      43A     -0.757489    44A     -0.753821    45A     -0.745203
      46A     -0.740275    47A     -0.717108    48A     -0.691220
      49A     -0.665655    50A     -0.646169    51A     -0.628214
      52A     -0.608611    53A     -0.556318    54A     -0.549593
      55A     -0.542883    56A     -0.539636    57A     -0.535366
      58A     -0.533895    59A     -0.520092    60A     -0.507126
      61A     -0.494327    62A     -0.491026    63A     -0.486364
      64A     -0.447195    65A     -0.446459

  @DF-RHF Final Energy: -1029.04651587033936

   => Energetics <=

    Nuclear Repulsion Energy =           1345.5458513736141413
    One-Electron Energy =               -4082.6639431271723879
    Two-Electron Energy =                1708.0715758832191113
    Total Energy =                      -1029.0465158703393627
  Basis Set: (AUG-CC-PVTZ AUX)
    Blend: AUG-CC-PVTZ-RI
    Molecular point group: c1

    Geometry (in Angstrom), charge = 0, multiplicity = 1:

       Center              X                  Y                   Z               Mass
    ------------   -----------------  -----------------  -----------------  -----------------
         O           -2.916463421323    -0.478644735150     1.017223576783    15.994914619570
         O           -2.971720421323     0.514287264850    -1.040081423217    15.994914619570
         O           -0.316569421323    -3.431501735150     0.467545576783    15.994914619570
         O           -0.262572421323     3.446414264850    -0.476766423217    15.994914619570
         O           -1.904794421323    -2.482370735150    -0.748688423217    15.994914619570
         O           -1.844307421323     2.520317264850     0.767884576783    15.994914619570
         O            3.956154578677    -1.139372735150    -0.020630423217    15.994914619570
         O            3.978360578677     1.068710264850     0.046364576783    15.994914619570
         N           -0.802148921323    -2.488318935150    -0.098056223217    14.003074004430
         N           -0.800303421323     2.487793264850     0.097728576783    14.003074004430
         N            3.403373578677    -0.029598735150     0.010225576783    14.003074004430
         C           -0.867864421323     0.013969264850    -0.008455423217    12.000000000000
         C           -0.137857421323    -1.177367735150    -0.020303423217    12.000000000000
         C           -0.112898421323     1.189731264850     0.008544576783    12.000000000000
         C            1.927007578677    -0.014285735150     0.003093576783    12.000000000000
         C            1.250557578677    -1.226918735150    -0.000201423217    12.000000000000
         C            1.275286578677     1.212434264850     0.005161576783    12.000000000000
         C           -2.370141421323     0.053695264850    -0.092432423217    12.000000000000
         H            1.779924578677    -2.172989735150     0.007201576783     1.007825032230
         H            1.823193578677     2.148008264850     0.005805576783     1.007825032230
         H           -3.889398421323    -0.449897735150     0.890873576783     1.007825032230

  Basis Set: AUG-CC-PVTZ
    Blend: AUG-CC-PVTZ
  Basis Set: (AUG-CC-PVTZ AUX)
    Blend: AUG-CC-PVTZ-JKFIT
	 Reference Energy          =   -1029.0465158703393627 [Eh]
	 Singles Energy            =      -0.0000000000000000 [Eh]
	 Same-Spin Energy          =      -1.0496806036622626 [Eh]
	 Opposite-Spin Energy      =      -2.9496849561955134 [Eh]
	 Correlation Energy        =      -3.9993655598577762 [Eh]
	 Total Energy              =   -1033.0458814301971415 [Eh]

	 ================> DF-SCS-MP2 Energies <==================
	-----------------------------------------------------------
	 SCS Same-Spin Scale       =       0.3333333333333333 [-]
	 SCS Opposite-Spin Scale   =       1.2000000000000000 [-]
	 SCS Same-Spin Energy      =      -0.3498935345540875 [Eh]
	 SCS Opposite-Spin Energy  =      -3.5396219474346160 [Eh]
	 SCS Correlation Energy    =      -3.8895154819887034 [Eh]
	 SCS Total Energy          =   -1032.9360313523279729 [Eh]
	-----------------------------------------------------------

  Dipole Moment: [D]
     X:     0.0002      Y:    -0.6905      Z:     1.2884     Total:     1.4617

*** Psi4 exiting successfully. Buy a developer a beer!
