                               Psi4 1.4a3.dev225

  ==> Input File <==

--------------------------------------------------------------------------
#psi4
#
memory 32 gb

molecule  {
0 1
  O       -2.8695776    -0.4862849     1.0302363
  O       -2.9681190     0.5148030    -1.0434710
  O       -0.3129680    -3.4309860     0.4641560
  O       -0.2589710     3.4469300    -0.4801560
  O       -1.9011930    -2.4818550    -0.7520780
  O       -1.8407060     2.5208330     0.7644950
  O        3.9597560    -1.1388570    -0.0240200
  O        3.9819620     1.0692260     0.0429750
  N       -0.8439190    -2.4637400    -0.1025570
  N       -0.7967020     2.4883090     0.0943390
  N        3.4069750    -0.0290830     0.0068360
  C       -0.8642630     0.0144850    -0.0118450
  C       -0.1342560    -1.1768520    -0.0236930
  C       -0.1092970     1.1902470     0.0051550
  C        1.9306090    -0.0137700    -0.0002960
  C        1.2541590    -1.2264030    -0.0035910
  C        1.2788880     1.2129500     0.0017720
  C       -2.3665400     0.0542110    -0.0958220
  H        1.7835260    -2.1724740     0.0038120
  H        1.8267950     2.1485240     0.0024160
  H       -3.8857970    -0.4493820     0.8874840
units angstrom
no_reorient  #important for SAPT in psi4, default
symmetry c1  #important for SAPT in psi4, default
}

set PROPERTIES_ORIGIN ["COM"]
properties('MP2/aug-cc-pvtz', properties = ['dipole'])
--------------------------------------------------------------------------

    Molecular point group: c1
  Charge       = 0
  Multiplicity = 1
  Basis Set: AUG-CC-PVTZ
    Blend: AUG-CC-PVTZ
  Basis Set: (AUG-CC-PVTZ AUX)
    Blend: AUG-CC-PVTZ-JKFIT

    Orbital Energies [Eh]
    ---------------------

    Doubly Occupied:

       1A    -20.663970     2A    -20.652357     3A    -20.651978
       4A    -20.650040     5A    -20.649972     6A    -20.649804
       7A    -20.649623     8A    -20.598196     9A    -15.902305
      10A    -15.901433    11A    -15.899677    12A    -11.453080
      13A    -11.385551    14A    -11.384250    15A    -11.379258
      16A    -11.374203    17A    -11.355315    18A    -11.354981
      19A     -1.636186    20A     -1.634201    21A     -1.633287
      22A     -1.503254    23A     -1.436268    24A     -1.434199
      25A     -1.433834    26A     -1.406202    27A     -1.289545
      28A     -1.183425    29A     -1.180625    30A     -1.055036
      31A     -1.035163    32A     -1.027491    33A     -0.919484
      34A     -0.883241    35A     -0.869140    36A     -0.835695
      37A     -0.802004    38A     -0.789224    39A     -0.787718
      40A     -0.772615    41A     -0.765425    42A     -0.762793
      43A     -0.756816    44A     -0.753123    45A     -0.744341
      46A     -0.741629    47A     -0.715463    48A     -0.691623
      49A     -0.668069    50A     -0.645680    51A     -0.629548
      52A     -0.607103    53A     -0.554920    54A     -0.549545
      55A     -0.543991    56A     -0.539862    57A     -0.535678
      58A     -0.533971    59A     -0.523701    60A     -0.509766
      61A     -0.493455    62A     -0.491940    63A     -0.486888
      64A     -0.446728    65A     -0.445314

  @DF-RHF Final Energy: -1029.04380636981227

   => Energetics <=

    Nuclear Repulsion Energy =           1346.2810855329862534
    One-Electron Energy =               -4084.1673881779647672
    Two-Electron Energy =                1708.8424962751662406
    Total Energy =                      -1029.0438063698122733
  Basis Set: (AUG-CC-PVTZ AUX)
    Blend: AUG-CC-PVTZ-RI
    Molecular point group: c1

    Geometry (in Angstrom), charge = 0, multiplicity = 1:

       Center              X                  Y                   Z               Mass
    ------------   -----------------  -----------------  -----------------  -----------------
         O           -2.873400778448    -0.487604184813     1.032665562226    15.994914619570
         O           -2.971942178448     0.513483715187    -1.041041737774    15.994914619570
         O           -0.316791178448    -3.432305284813     0.466585262226    15.994914619570
         O           -0.262794178448     3.445610715187    -0.477726737774    15.994914619570
         O           -1.905016178448    -2.483174284813    -0.749648737774    15.994914619570
         O           -1.844529178448     2.519513715187     0.766924262226    15.994914619570
         O            3.955932821552    -1.140176284813    -0.021590737774    15.994914619570
         O            3.978138821552     1.067906715187     0.045404262226    15.994914619570
         N           -0.847742178448    -2.465059284813    -0.100127737774    14.003074004430
         N           -0.800525178448     2.486989715187     0.096768262226    14.003074004430
         N            3.403151821552    -0.030402284813     0.009265262226    14.003074004430
         C           -0.868086178448     0.013165715187    -0.009415737774    12.000000000000
         C           -0.138079178448    -1.178171284813    -0.021263737774    12.000000000000
         C           -0.113120178448     1.188927715187     0.007584262226    12.000000000000
         C            1.926785821552    -0.015089284813     0.002133262226    12.000000000000
         C            1.250335821552    -1.227722284813    -0.001161737774    12.000000000000
         C            1.275064821552     1.211630715187     0.004201262226    12.000000000000
         C           -2.370363178448     0.052891715187    -0.093392737774    12.000000000000
         H            1.779702821552    -2.173793284813     0.006241262226     1.007825032230
         H            1.822971821552     2.147204715187     0.004845262226     1.007825032230
         H           -3.889620178448    -0.450701284813     0.889913262226     1.007825032230

  Basis Set: AUG-CC-PVTZ
    Blend: AUG-CC-PVTZ
  Basis Set: (AUG-CC-PVTZ AUX)
    Blend: AUG-CC-PVTZ-JKFIT
	 Reference Energy          =   -1029.0438063698122733 [Eh]
	 Singles Energy            =      -0.0000000000000000 [Eh]
	 Same-Spin Energy          =      -1.0508722718780332 [Eh]
	 Opposite-Spin Energy      =      -2.9521508116766517 [Eh]
	 Correlation Energy        =      -4.0030230835546847 [Eh]
	 Total Energy              =   -1033.0468294533668541 [Eh]

	 ================> DF-SCS-MP2 Energies <==================
	-----------------------------------------------------------
	 SCS Same-Spin Scale       =       0.3333333333333333 [-]
	 SCS Opposite-Spin Scale   =       1.2000000000000000 [-]
	 SCS Same-Spin Energy      =      -0.3502907572926777 [Eh]
	 SCS Opposite-Spin Energy  =      -3.5425809740119818 [Eh]
	 SCS Correlation Energy    =      -3.8928717313046595 [Eh]
	 SCS Total Energy          =   -1032.9366781011169678 [Eh]
	-----------------------------------------------------------

  Dipole Moment: [D]
     X:    -0.2591      Y:    -0.6183      Z:     1.1941     Total:     1.3694

*** Psi4 exiting successfully. Buy a developer a beer!
