                               Psi4 1.4a3.dev225

  ==> Input File <==

--------------------------------------------------------------------------
#psi4
#
memory 32 gb

molecule  {
0 1
  O       -2.9128620    -0.4781290     1.0138340
  O       -2.9681190     0.5148030    -1.0434710
  O       -0.3129680    -3.4309860     0.4641560
  O       -0.2589710     3.4469300    -0.4801560
  O       -1.9011930    -2.4818550    -0.7520780
  O       -1.8407060     2.5208330     0.7644950
  O        3.9597560    -1.1388570    -0.0240200
  O        3.9819620     1.0692260     0.0429750
  N       -0.8439190    -2.4637400    -0.1025570
  N       -0.7967020     2.4883090     0.0943390
  N        3.4069750    -0.0290830     0.0068360
  C       -0.8642630     0.0144850    -0.0118450
  C       -0.1342560    -1.1768520    -0.0236930
  C       -0.1092970     1.1902470     0.0051550
  C        1.9306090    -0.0137700    -0.0002960
  C        1.2054428    -1.3137338    -0.0038283
  C        1.2788880     1.2129500     0.0017720
  C       -2.3665400     0.0542110    -0.0958220
  H        1.7835260    -2.1724740     0.0038120
  H        1.8267950     2.1485240     0.0024160
  H       -3.8857970    -0.4493820     0.8874840
units angstrom
no_reorient  #important for SAPT in psi4, default
symmetry c1  #important for SAPT in psi4, default
}

set PROPERTIES_ORIGIN ["COM"]
properties('MP2/aug-cc-pvtz', properties = ['dipole'])
--------------------------------------------------------------------------

    Molecular point group: c1
  Charge       = 0
  Multiplicity = 1
  Basis Set: AUG-CC-PVTZ
    Blend: AUG-CC-PVTZ
  Basis Set: (AUG-CC-PVTZ AUX)
    Blend: AUG-CC-PVTZ-JKFIT

    Orbital Energies [Eh]
    ---------------------

    Doubly Occupied:

       1A    -20.658454     2A    -20.651868     3A    -20.651547
       4A    -20.651270     5A    -20.650789     6A    -20.650006
       7A    -20.649025     8A    -20.596920     9A    -15.901653
      10A    -15.900866    11A    -15.900323    12A    -11.453871
      13A    -11.387433    14A    -11.387370    15A    -11.384594
      16A    -11.377551    17A    -11.359410    18A    -11.354579
      19A     -1.636286    20A     -1.634569    21A     -1.633574
      22A     -1.507015    23A     -1.436249    24A     -1.435086
      25A     -1.433683    26A     -1.406547    27A     -1.288066
      28A     -1.188651    29A     -1.174869    30A     -1.060858
      31A     -1.033679    32A     -1.025935    33A     -0.923852
      34A     -0.883557    35A     -0.871455    36A     -0.836108
      37A     -0.802811    38A     -0.793925    39A     -0.781425
      40A     -0.779516    41A     -0.766004    42A     -0.763637
      43A     -0.758387    44A     -0.752961    45A     -0.745238
      46A     -0.741662    47A     -0.717472    48A     -0.701621
      49A     -0.666197    50A     -0.644034    51A     -0.630842
      52A     -0.606353    53A     -0.554750    54A     -0.550423
      55A     -0.543864    56A     -0.539558    57A     -0.534516
      58A     -0.534234    59A     -0.522508    60A     -0.510115
      61A     -0.493356    62A     -0.491862    63A     -0.487588
      64A     -0.455265    65A     -0.436739

  @DF-RHF Final Energy: -1029.03680173584257

   => Energetics <=

    Nuclear Repulsion Energy =           1345.1040054962847989
    One-Electron Energy =               -4081.7127586767514913
    Two-Electron Energy =                1707.5719514446243465
    Total Energy =                      -1029.0368017358425732
  Basis Set: (AUG-CC-PVTZ AUX)
    Blend: AUG-CC-PVTZ-RI
    Molecular point group: c1

    Geometry (in Angstrom), charge = 0, multiplicity = 1:

       Center              X                  Y                   Z               Mass
    ------------   -----------------  -----------------  -----------------  -----------------
         O           -2.911716445521    -0.475878070076     1.017295204751    15.994914619570
         O           -2.966973445521     0.517053929924    -1.040009795249    15.994914619570
         O           -0.311822445521    -3.428735070076     0.467617204751    15.994914619570
         O           -0.257825445521     3.449180929924    -0.476694795249    15.994914619570
         O           -1.900047445521    -2.479604070076    -0.748616795249    15.994914619570
         O           -1.839560445521     2.523083929924     0.767956204751    15.994914619570
         O            3.960901554479    -1.136606070076    -0.020558795249    15.994914619570
         O            3.983107554479     1.071476929924     0.046436204751    15.994914619570
         N           -0.842773445521    -2.461489070076    -0.099095795249    14.003074004430
         N           -0.795556445521     2.490559929924     0.097800204751    14.003074004430
         N            3.408120554479    -0.026832070076     0.010297204751    14.003074004430
         C           -0.863117445521     0.016735929924    -0.008383795249    12.000000000000
         C           -0.133110445521    -1.174601070076    -0.020231795249    12.000000000000
         C           -0.108151445521     1.192497929924     0.008616204751    12.000000000000
         C            1.931754554479    -0.011519070076     0.003165204751    12.000000000000
         C            1.206588354479    -1.311482870076    -0.000367095249    12.000000000000
         C            1.280033554479     1.215200929924     0.005233204751    12.000000000000
         C           -2.365394445521     0.056461929924    -0.092360795249    12.000000000000
         H            1.784671554479    -2.170223070076     0.007273204751     1.007825032230
         H            1.827940554479     2.150774929924     0.005877204751     1.007825032230
         H           -3.884651445521    -0.447131070076     0.890945204751     1.007825032230

  Basis Set: AUG-CC-PVTZ
    Blend: AUG-CC-PVTZ
  Basis Set: (AUG-CC-PVTZ AUX)
    Blend: AUG-CC-PVTZ-JKFIT
	 Reference Energy          =   -1029.0368017358425732 [Eh]
	 Singles Energy            =      -0.0000000000000000 [Eh]
	 Same-Spin Energy          =      -1.0499530777618391 [Eh]
	 Opposite-Spin Energy      =      -2.9512511171560476 [Eh]
	 Correlation Energy        =      -4.0012041949178867 [Eh]
	 Total Energy              =   -1033.0380059307603915 [Eh]

	 ================> DF-SCS-MP2 Energies <==================
	-----------------------------------------------------------
	 SCS Same-Spin Scale       =       0.3333333333333333 [-]
	 SCS Opposite-Spin Scale   =       1.2000000000000000 [-]
	 SCS Same-Spin Energy      =      -0.3499843592539463 [Eh]
	 SCS Opposite-Spin Energy  =      -3.5415013405872569 [Eh]
	 SCS Correlation Energy    =      -3.8914856998412031 [Eh]
	 SCS Total Energy          =   -1032.9282874356838420 [Eh]
	-----------------------------------------------------------

  Dipole Moment: [D]
     X:    -0.1145      Y:    -0.5397      Z:     1.2002     Total:     1.3210

*** Psi4 exiting successfully. Buy a developer a beer!
