                               Psi4 1.4a3.dev225

  ==> Input File <==

--------------------------------------------------------------------------
#psi4
#
memory 32 gb

molecule  {
0 1
  O       -2.9128620    -0.4781290     1.0138340
  O       -2.9681190     0.5148030    -1.0434710
  O       -0.3129680    -3.4309860     0.4641560
  O       -0.2589710     3.4469300    -0.4801560
  O       -1.9011930    -2.4818550    -0.7520780
  O       -1.8407060     2.5208330     0.7644950
  O        3.9597560    -1.1388570    -0.0240200
  O        3.9819620     1.0692260     0.0429750
  N       -0.8439190    -2.4637400    -0.1025570
  N       -0.7967020     2.4883090     0.0943390
  N        3.4069750    -0.0290830     0.0068360
  C       -0.8642630     0.0144850    -0.0118450
  C       -0.1342560    -1.1768520    -0.0236930
  C       -0.1092970     1.1902470     0.0051550
  C        1.9306090    -0.0137700    -0.0002960
  C        1.4540108    -1.2335355    -0.0006975
  C        1.2788880     1.2129500     0.0017720
  C       -2.3665400     0.0542110    -0.0958220
  H        1.7835260    -2.1724740     0.0038120
  H        1.8267950     2.1485240     0.0024160
  H       -3.8857970    -0.4493820     0.8874840
units angstrom
no_reorient  #important for SAPT in psi4, default
symmetry c1  #important for SAPT in psi4, default
}

set PROPERTIES_ORIGIN ["COM"]
properties('MP2/aug-cc-pvtz', properties = ['dipole'])
--------------------------------------------------------------------------

    Molecular point group: c1
  Charge       = 0
  Multiplicity = 1
  Basis Set: AUG-CC-PVTZ
    Blend: AUG-CC-PVTZ
  Basis Set: (AUG-CC-PVTZ AUX)
    Blend: AUG-CC-PVTZ-JKFIT

    Orbital Energies [Eh]
    ---------------------

    Doubly Occupied:

       1A    -20.656217     2A    -20.651655     3A    -20.651347
       4A    -20.651004     5A    -20.650706     6A    -20.650192
       7A    -20.648355     8A    -20.594820     9A    -15.902459
      10A    -15.900454    11A    -15.897559    12A    -11.451367
      13A    -11.398631    14A    -11.387340    15A    -11.378023
      16A    -11.372762    17A    -11.363834    18A    -11.358545
      19A     -1.635279    20A     -1.634890    21A     -1.633985
      22A     -1.504797    23A     -1.435404    24A     -1.435026
      25A     -1.434513    26A     -1.404523    27A     -1.285614
      28A     -1.198040    29A     -1.167225    30A     -1.051738
      31A     -1.038791    32A     -1.028219    33A     -0.922728
      34A     -0.884461    35A     -0.870632    36A     -0.837010
      37A     -0.810188    38A     -0.801012    39A     -0.781958
      40A     -0.775138    41A     -0.764990    42A     -0.763461
      43A     -0.757052    44A     -0.752908    45A     -0.747388
      46A     -0.740815    47A     -0.717172    48A     -0.681100
      49A     -0.672263    50A     -0.652033    51A     -0.622277
      52A     -0.604376    53A     -0.554356    54A     -0.548886
      55A     -0.544951    56A     -0.539396    57A     -0.533877
      58A     -0.531313    59A     -0.521788    60A     -0.507428
      61A     -0.494294    62A     -0.491595    63A     -0.487115
      64A     -0.463458    65A     -0.428067

  @DF-RHF Final Energy: -1029.00631294606001

   => Energetics <=

    Nuclear Repulsion Energy =           1343.7085227093466528
    One-Electron Energy =               -4078.9120758292574465
    Two-Electron Energy =                1706.1972401738507870
    Total Energy =                      -1029.0063129460600067
  Basis Set: (AUG-CC-PVTZ AUX)
    Blend: AUG-CC-PVTZ-RI
    Molecular point group: c1

    Geometry (in Angstrom), charge = 0, multiplicity = 1:

       Center              X                  Y                   Z               Mass
    ------------   -----------------  -----------------  -----------------  -----------------
         O           -2.923323094120    -0.479622854145     1.017149014995    15.994914619570
         O           -2.978580094120     0.513309145855    -1.040155985005    15.994914619570
         O           -0.323429094120    -3.432479854145     0.467471014995    15.994914619570
         O           -0.269432094120     3.445436145855    -0.476840985005    15.994914619570
         O           -1.911654094120    -2.483348854145    -0.748762985005    15.994914619570
         O           -1.851167094120     2.519339145855     0.767810014995    15.994914619570
         O            3.949294905880    -1.140350854145    -0.020704985005    15.994914619570
         O            3.971500905880     1.067732145855     0.046290014995    15.994914619570
         N           -0.854380094120    -2.465233854145    -0.099241985005    14.003074004430
         N           -0.807163094120     2.486815145855     0.097654014995    14.003074004430
         N            3.396513905880    -0.030576854145     0.010151014995    14.003074004430
         C           -0.874724094120     0.012991145855    -0.008529985005    12.000000000000
         C           -0.144717094120    -1.178345854145    -0.020377985005    12.000000000000
         C           -0.119758094120     1.188753145855     0.008470014995    12.000000000000
         C            1.920147905880    -0.015263854145     0.003019014995    12.000000000000
         C            1.443549705880    -1.235029354145     0.002617514995    12.000000000000
         C            1.268426905880     1.211456145855     0.005087014995    12.000000000000
         C           -2.377001094120     0.052717145855    -0.092506985005    12.000000000000
         H            1.773064905880    -2.173967854145     0.007127014995     1.007825032230
         H            1.816333905880     2.147030145855     0.005731014995     1.007825032230
         H           -3.896258094120    -0.450875854145     0.890799014995     1.007825032230

  Basis Set: AUG-CC-PVTZ
    Blend: AUG-CC-PVTZ
  Basis Set: (AUG-CC-PVTZ AUX)
    Blend: AUG-CC-PVTZ-JKFIT
	 Reference Energy          =   -1029.0063129460600067 [Eh]
	 Singles Energy            =      -0.0000000000000000 [Eh]
	 Same-Spin Energy          =      -1.0498260291293220 [Eh]
	 Opposite-Spin Energy      =      -2.9529622399064435 [Eh]
	 Correlation Energy        =      -4.0027882690357650 [Eh]
	 Total Energy              =   -1033.0091012150958250 [Eh]

	 ================> DF-SCS-MP2 Energies <==================
	-----------------------------------------------------------
	 SCS Same-Spin Scale       =       0.3333333333333333 [-]
	 SCS Opposite-Spin Scale   =       1.2000000000000000 [-]
	 SCS Same-Spin Energy      =      -0.3499420097097740 [Eh]
	 SCS Opposite-Spin Energy  =      -3.5435546878877320 [Eh]
	 SCS Correlation Energy    =      -3.8934966975975058 [Eh]
	 SCS Total Energy          =   -1032.8998096436575906 [Eh]
	-----------------------------------------------------------

  Dipole Moment: [D]
     X:    -0.2471      Y:    -0.6328      Z:     1.1772     Total:     1.3592

*** Psi4 exiting successfully. Buy a developer a beer!
