                               Psi4 1.4a3.dev225

  ==> Input File <==

--------------------------------------------------------------------------
#psi4
#
memory 32 gb

molecule  {
0 1
  O       -2.9128620    -0.4781290     1.0138340
  O       -2.9681190     0.5148030    -1.0434710
  O       -0.3129680    -3.4309860     0.4641560
  O       -0.2589710     3.4469300    -0.4801560
  O       -1.9011930    -2.4818550    -0.7520780
  O       -1.8407060     2.5208330     0.7644950
  O        3.9597560    -1.1388570    -0.0240200
  O        3.9819620     1.0692260     0.0429750
  N       -0.8439190    -2.4637400    -0.1025570
  N       -0.8387646     2.4896194     0.1213394
  N        3.4069750    -0.0290830     0.0068360
  C       -0.8642630     0.0144850    -0.0118450
  C       -0.1342560    -1.1768520    -0.0236930
  C       -0.1092970     1.1902470     0.0051550
  C        1.9306090    -0.0137700    -0.0002960
  C        1.2541590    -1.2264030    -0.0035910
  C        1.2788880     1.2129500     0.0017720
  C       -2.3665400     0.0542110    -0.0958220
  H        1.7835260    -2.1724740     0.0038120
  H        1.8267950     2.1485240     0.0024160
  H       -3.8857970    -0.4493820     0.8874840
units angstrom
no_reorient  #important for SAPT in psi4, default
symmetry c1  #important for SAPT in psi4, default
}

set PROPERTIES_ORIGIN ["COM"]
properties('MP2/aug-cc-pvtz', properties = ['dipole'])
--------------------------------------------------------------------------

    Molecular point group: c1
  Charge       = 0
  Multiplicity = 1
  Basis Set: AUG-CC-PVTZ
    Blend: AUG-CC-PVTZ
  Basis Set: (AUG-CC-PVTZ AUX)
    Blend: AUG-CC-PVTZ-JKFIT

    Orbital Energies [Eh]
    ---------------------

    Doubly Occupied:

       1A    -20.667746     2A    -20.659639     3A    -20.652467
       4A    -20.652240     5A    -20.649848     6A    -20.649770
       7A    -20.633805     8A    -20.598338     9A    -15.902429
      10A    -15.901241    11A    -15.900510    12A    -11.454075
      13A    -11.385825    14A    -11.385006    15A    -11.379415
      16A    -11.374285    17A    -11.354630    18A    -11.354394
      19A     -1.651774    20A     -1.636340    21A     -1.633964
      22A     -1.508198    23A     -1.436517    24A     -1.436195
      25A     -1.433938    26A     -1.408001    27A     -1.288733
      28A     -1.183634    29A     -1.176472    30A     -1.053659
      31A     -1.033564    32A     -1.025749    33A     -0.924508
      34A     -0.884544    35A     -0.871725    36A     -0.837953
      37A     -0.802771    38A     -0.791423    39A     -0.789217
      40A     -0.777368    41A     -0.768515    42A     -0.765018
      43A     -0.757166    44A     -0.753342    45A     -0.750363
      46A     -0.743559    47A     -0.717268    48A     -0.691548
      49A     -0.669114    50A     -0.646084    51A     -0.631101
      52A     -0.608446    53A     -0.556203    54A     -0.548665
      55A     -0.545184    56A     -0.539578    57A     -0.536317
      58A     -0.528293    59A     -0.522705    60A     -0.511014
      61A     -0.493167    62A     -0.492220    63A     -0.489784
      64A     -0.447194    65A     -0.444470

  @DF-RHF Final Energy: -1029.04861767041848

   => Energetics <=

    Nuclear Repulsion Energy =           1345.8062689335449704
    One-Electron Energy =               -4083.1133156166110894
    Two-Electron Energy =                1708.2584290126474116
    Total Energy =                      -1029.0486176704184800
  Basis Set: (AUG-CC-PVTZ AUX)
    Blend: AUG-CC-PVTZ-RI
    Molecular point group: c1

    Geometry (in Angstrom), charge = 0, multiplicity = 1:

       Center              X                  Y                   Z               Mass
    ------------   -----------------  -----------------  -----------------  -----------------
         O           -2.911699280394    -0.480027301063     1.015812916670    15.994914619570
         O           -2.966956280394     0.512904698937    -1.041492083330    15.994914619570
         O           -0.311805280394    -3.432884301063     0.466134916670    15.994914619570
         O           -0.257808280394     3.445031698937    -0.478177083330    15.994914619570
         O           -1.900030280394    -2.483753301063    -0.750099083330    15.994914619570
         O           -1.839543280394     2.518934698937     0.766473916670    15.994914619570
         O            3.960918719606    -1.140755301063    -0.022041083330    15.994914619570
         O            3.983124719606     1.067327698937     0.044953916670    15.994914619570
         N           -0.842756280394    -2.465638301063    -0.100578083330    14.003074004430
         N           -0.837601880394     2.487721098937     0.123318316670    14.003074004430
         N            3.408137719606    -0.030981301063     0.008814916670    14.003074004430
         C           -0.863100280394     0.012586698937    -0.009866083330    12.000000000000
         C           -0.133093280394    -1.178750301063    -0.021714083330    12.000000000000
         C           -0.108134280394     1.188348698937     0.007133916670    12.000000000000
         C            1.931771719606    -0.015668301063     0.001682916670    12.000000000000
         C            1.255321719606    -1.228301301063    -0.001612083330    12.000000000000
         C            1.280050719606     1.211051698937     0.003750916670    12.000000000000
         C           -2.365377280394     0.052312698937    -0.093843083330    12.000000000000
         H            1.784688719606    -2.174372301063     0.005790916670     1.007825032230
         H            1.827957719606     2.146625698937     0.004394916670     1.007825032230
         H           -3.884634280394    -0.451280301063     0.889462916670     1.007825032230

  Basis Set: AUG-CC-PVTZ
    Blend: AUG-CC-PVTZ
  Basis Set: (AUG-CC-PVTZ AUX)
    Blend: AUG-CC-PVTZ-JKFIT
	 Reference Energy          =   -1029.0486176704184800 [Eh]
	 Singles Energy            =      -0.0000000000000000 [Eh]
	 Same-Spin Energy          =      -1.0490694179642823 [Eh]
	 Opposite-Spin Energy      =      -2.9481706361713194 [Eh]
	 Correlation Energy        =      -3.9972400541356015 [Eh]
	 Total Energy              =   -1033.0458577245540255 [Eh]

	 ================> DF-SCS-MP2 Energies <==================
	-----------------------------------------------------------
	 SCS Same-Spin Scale       =       0.3333333333333333 [-]
	 SCS Opposite-Spin Scale   =       1.2000000000000000 [-]
	 SCS Same-Spin Energy      =      -0.3496898059880941 [Eh]
	 SCS Opposite-Spin Energy  =      -3.5378047634055831 [Eh]
	 SCS Correlation Energy    =      -3.8874945693936773 [Eh]
	 SCS Total Energy          =   -1032.9361122398122461 [Eh]
	-----------------------------------------------------------

  Dipole Moment: [D]
     X:    -0.3254      Y:    -0.6003      Z:     1.3235     Total:     1.4893

*** Psi4 exiting successfully. Buy a developer a beer!
