                               Psi4 1.4a3.dev225

  ==> Input File <==

--------------------------------------------------------------------------
#psi4
#
memory 32 gb

molecule  {
0 1
  O       -2.9128620    -0.4781290     1.0138340
  O       -2.9681190     0.5148030    -1.0434710
  O       -0.3129680    -3.4309860     0.4641560
  O       -0.2589710     3.4469300    -0.4801560
  O       -1.9011930    -2.4818550    -0.7520780
  O       -1.8407060     2.5208330     0.7644950
  O        3.8406818    -1.1905156    -0.0261792
  O        3.9819620     1.0692260     0.0429750
  N       -0.8439190    -2.4637400    -0.1025570
  N       -0.7967020     2.4883090     0.0943390
  N        3.4069750    -0.0290830     0.0068360
  C       -0.8642630     0.0144850    -0.0118450
  C       -0.1342560    -1.1768520    -0.0236930
  C       -0.1092970     1.1902470     0.0051550
  C        1.9306090    -0.0137700    -0.0002960
  C        1.2541590    -1.2264030    -0.0035910
  C        1.2788880     1.2129500     0.0017720
  C       -2.3665400     0.0542110    -0.0958220
  H        1.7835260    -2.1724740     0.0038120
  H        1.8267950     2.1485240     0.0024160
  H       -3.8857970    -0.4493820     0.8874840
units angstrom
no_reorient  #important for SAPT in psi4, default
symmetry c1  #important for SAPT in psi4, default
}

set PROPERTIES_ORIGIN ["COM"]
properties('MP2/aug-cc-pvtz', properties = ['dipole'])
--------------------------------------------------------------------------

    Molecular point group: c1
  Charge       = 0
  Multiplicity = 1
  Basis Set: AUG-CC-PVTZ
    Blend: AUG-CC-PVTZ
  Basis Set: (AUG-CC-PVTZ AUX)
    Blend: AUG-CC-PVTZ-JKFIT

    Orbital Energies [Eh]
    ---------------------

    Doubly Occupied:

       1A    -20.659510     2A    -20.656183     3A    -20.655204
       4A    -20.651067     5A    -20.650884     6A    -20.648574
       7A    -20.648440     8A    -20.594342     9A    -15.905854
      10A    -15.901077    11A    -15.898400    12A    -11.450832
      13A    -11.384006    14A    -11.382923    15A    -11.375100
      16A    -11.373204    17A    -11.352278    18A    -11.352100
      19A     -1.636865    20A     -1.634942    21A     -1.632090
      22A     -1.504631    23A     -1.448262    24A     -1.435070
      25A     -1.432687    26A     -1.404149    27A     -1.287275
      28A     -1.180123    29A     -1.178580    30A     -1.054058
      31A     -1.033141    32A     -1.025362    33A     -0.923826
      34A     -0.882193    35A     -0.870695    36A     -0.839250
      37A     -0.801735    38A     -0.788722    39A     -0.787199
      40A     -0.775282    41A     -0.765102    42A     -0.762349
      43A     -0.761389    44A     -0.756928    45A     -0.744193
      46A     -0.739845    47A     -0.714977    48A     -0.688567
      49A     -0.665890    50A     -0.643814    51A     -0.627999
      52A     -0.605955    53A     -0.553701    54A     -0.551281
      55A     -0.548237    56A     -0.541051    57A     -0.534176
      58A     -0.531701    59A     -0.520863    60A     -0.507520
      61A     -0.502178    62A     -0.490753    63A     -0.485537
      64A     -0.445083    65A     -0.442944

  @DF-RHF Final Energy: -1029.04453197947487

   => Energetics <=

    Nuclear Repulsion Energy =           1347.6755732211454415
    One-Electron Energy =               -4086.9839194231958572
    Two-Electron Energy =                1710.2638142225755473
    Total Energy =                      -1029.0445319794748684
  Basis Set: (AUG-CC-PVTZ AUX)
    Blend: AUG-CC-PVTZ-RI
    Molecular point group: c1

    Geometry (in Angstrom), charge = 0, multiplicity = 1:

       Center              X                  Y                   Z               Mass
    ------------   -----------------  -----------------  -----------------  -----------------
         O           -2.906580148709    -0.476740722188     1.017418510605    15.994914619570
         O           -2.961837148709     0.516191277812    -1.039886489395    15.994914619570
         O           -0.306686148709    -3.429597722188     0.467740510605    15.994914619570
         O           -0.252689148709     3.448318277812    -0.476571489395    15.994914619570
         O           -1.894911148709    -2.480466722188    -0.748493489395    15.994914619570
         O           -1.834424148709     2.522221277812     0.768079510605    15.994914619570
         O            3.846963651291    -1.189127322188    -0.022594689395    15.994914619570
         O            3.988243851291     1.070614277812     0.046559510605    15.994914619570
         N           -0.837637148709    -2.462351722188    -0.098972489395    14.003074004430
         N           -0.790420148709     2.489697277812     0.097923510605    14.003074004430
         N            3.413256851291    -0.027694722188     0.010420510605    14.003074004430
         C           -0.857981148709     0.015873277812    -0.008260489395    12.000000000000
         C           -0.127974148709    -1.175463722188    -0.020108489395    12.000000000000
         C           -0.103015148709     1.191635277812     0.008739510605    12.000000000000
         C            1.936890851291    -0.012381722188     0.003288510605    12.000000000000
         C            1.260440851291    -1.225014722188    -0.000006489395    12.000000000000
         C            1.285169851291     1.214338277812     0.005356510605    12.000000000000
         C           -2.360258148709     0.055599277812    -0.092237489395    12.000000000000
         H            1.789807851291    -2.171085722188     0.007396510605     1.007825032230
         H            1.833076851291     2.149912277812     0.006000510605     1.007825032230
         H           -3.879515148709    -0.447993722188     0.891068510605     1.007825032230

  Basis Set: AUG-CC-PVTZ
    Blend: AUG-CC-PVTZ
  Basis Set: (AUG-CC-PVTZ AUX)
    Blend: AUG-CC-PVTZ-JKFIT
	 Reference Energy          =   -1029.0445319794748684 [Eh]
	 Singles Energy            =      -0.0000000000000000 [Eh]
	 Same-Spin Energy          =      -1.0505224834580100 [Eh]
	 Opposite-Spin Energy      =      -2.9509865661271357 [Eh]
	 Correlation Energy        =      -4.0015090495851453 [Eh]
	 Total Energy              =   -1033.0460410290600066 [Eh]

	 ================> DF-SCS-MP2 Energies <==================
	-----------------------------------------------------------
	 SCS Same-Spin Scale       =       0.3333333333333333 [-]
	 SCS Opposite-Spin Scale   =       1.2000000000000000 [-]
	 SCS Same-Spin Energy      =      -0.3501741611526700 [Eh]
	 SCS Opposite-Spin Energy  =      -3.5411838793525630 [Eh]
	 SCS Correlation Energy    =      -3.8913580405052328 [Eh]
	 SCS Total Energy          =   -1032.9358900199802065 [Eh]
	-----------------------------------------------------------

  Dipole Moment: [D]
     X:     0.2538      Y:    -0.5802      Z:     1.1949     Total:     1.3523

*** Psi4 exiting successfully. Buy a developer a beer!
