                               Psi4 1.4a3.dev225

  ==> Input File <==

--------------------------------------------------------------------------
#psi4
#
memory 32 gb

molecule  {
0 1
  O       -2.9128620    -0.4781290     1.0138340
  O       -2.9681190     0.5148030    -1.0434710
  O       -0.3129680    -3.4309860     0.4641560
  O       -0.2589710     3.4469300    -0.4801560
  O       -1.9011930    -2.4818550    -0.7520780
  O       -1.8407060     2.5208330     0.7644950
  O        3.9597560    -1.1388570    -0.0240200
  O        3.9819620     1.0692260     0.0429750
  N       -0.8439190    -2.4637400    -0.1025570
  N       -0.7967020     2.4883090     0.0943390
  N        3.4069750    -0.0290830     0.0068360
  C       -0.8642630     0.0144850    -0.0118450
  C       -0.1342560    -1.1768520    -0.0236930
  C       -0.1092970     1.1902470     0.0051550
  C        1.9306090    -0.0137700    -0.0002960
  C        1.2541590    -1.2264030    -0.0035910
  C        1.2788880     1.2129500     0.0017720
  C       -2.4476841    -0.0248564     0.0689930
  H        1.7835260    -2.1724740     0.0038120
  H        1.8267950     2.1485240     0.0024160
  H       -3.8857970    -0.4493820     0.8874840
units angstrom
no_reorient  #important for SAPT in psi4, default
symmetry c1  #important for SAPT in psi4, default
}

set PROPERTIES_ORIGIN ["COM"]
properties('MP2/aug-cc-pvtz', properties = ['dipole'])
--------------------------------------------------------------------------

    Molecular point group: c1
  Charge       = 0
  Multiplicity = 1
  Basis Set: AUG-CC-PVTZ
    Blend: AUG-CC-PVTZ
  Basis Set: (AUG-CC-PVTZ AUX)
    Blend: AUG-CC-PVTZ-JKFIT

    Orbital Energies [Eh]
    ---------------------

    Doubly Occupied:

       1A    -20.718545     2A    -20.653324     3A    -20.652751
       4A    -20.646919     5A    -20.646778     6A    -20.645038
       7A    -20.644650     8A    -20.560671     9A    -15.902795
      10A    -15.898392    11A    -15.894795    12A    -11.462436
      13A    -11.379672    14A    -11.379295    15A    -11.374841
      16A    -11.374267    17A    -11.352281    18A    -11.351891
      19A     -1.640988    20A     -1.634935    21A     -1.631133
      22A     -1.627683    23A     -1.437696    24A     -1.431182
      25A     -1.428867    26A     -1.331453    27A     -1.283385
      28A     -1.178690    29A     -1.175052    30A     -1.050064
      31A     -1.032409    32A     -1.023723    33A     -0.973707
      34A     -0.880618    35A     -0.876190    36A     -0.841323
      37A     -0.816450    38A     -0.797976    39A     -0.788019
      40A     -0.783814    41A     -0.773103    42A     -0.768970
      43A     -0.759169    44A     -0.754730    45A     -0.752341
      46A     -0.741524    47A     -0.740598    48A     -0.706659
      49A     -0.682497    50A     -0.643936    51A     -0.608117
      52A     -0.578725    53A     -0.552669    54A     -0.548463
      55A     -0.541972    56A     -0.536963    57A     -0.532991
      58A     -0.529861    59A     -0.496145    60A     -0.493997
      61A     -0.490831    62A     -0.482091    63A     -0.466543
      64A     -0.442669    65A     -0.432905

  @DF-RHF Final Energy: -1028.98381221132036

   => Energetics <=

    Nuclear Repulsion Energy =           1345.3311110316260510
    One-Electron Energy =               -4082.1035090539362500
    Two-Electron Energy =                1707.7885858109896162
    Total Energy =                      -1028.9838122113203553
  Basis Set: (AUG-CC-PVTZ AUX)
    Blend: AUG-CC-PVTZ-RI
    Molecular point group: c1

    Geometry (in Angstrom), charge = 0, multiplicity = 1:

       Center              X                  Y                   Z               Mass
    ------------   -----------------  -----------------  -----------------  -----------------
         O           -2.910202255279    -0.476263921755     1.009588243089    15.994914619570
         O           -2.965459255279     0.516668078245    -1.047716756911    15.994914619570
         O           -0.310308255279    -3.429120921755     0.459910243089    15.994914619570
         O           -0.256311255279     3.448795078245    -0.484401756911    15.994914619570
         O           -1.898533255279    -2.479989921755    -0.756323756911    15.994914619570
         O           -1.838046255279     2.522698078245     0.760249243089    15.994914619570
         O            3.962415744721    -1.136991921755    -0.028265756911    15.994914619570
         O            3.984621744721     1.071091078245     0.038729243089    15.994914619570
         N           -0.841259255279    -2.461874921755    -0.106802756911    14.003074004430
         N           -0.794042255279     2.490174078245     0.090093243089    14.003074004430
         N            3.409634744721    -0.027217921755     0.002590243089    14.003074004430
         C           -0.861603255279     0.016350078245    -0.016090756911    12.000000000000
         C           -0.131596255279    -1.174986921755    -0.027938756911    12.000000000000
         C           -0.106637255279     1.192112078245     0.000909243089    12.000000000000
         C            1.933268744721    -0.011904921755    -0.004541756911    12.000000000000
         C            1.256818744721    -1.224537921755    -0.007836756911    12.000000000000
         C            1.281547744721     1.214815078245    -0.002473756911    12.000000000000
         C           -2.445024355279    -0.022991321755     0.064747243089    12.000000000000
         H            1.786185744721    -2.170608921755    -0.000433756911     1.007825032230
         H            1.829454744721     2.150389078245    -0.001829756911     1.007825032230
         H           -3.883137255279    -0.447516921755     0.883238243089     1.007825032230

  Basis Set: AUG-CC-PVTZ
    Blend: AUG-CC-PVTZ
  Basis Set: (AUG-CC-PVTZ AUX)
    Blend: AUG-CC-PVTZ-JKFIT
	 Reference Energy          =   -1028.9838122113203553 [Eh]
	 Singles Energy            =      -0.0000000000000000 [Eh]
	 Same-Spin Energy          =      -1.0509564982373338 [Eh]
	 Opposite-Spin Energy      =      -2.9499407517104013 [Eh]
	 Correlation Energy        =      -4.0008972499477355 [Eh]
	 Total Energy              =   -1032.9847094612680394 [Eh]

	 ================> DF-SCS-MP2 Energies <==================
	-----------------------------------------------------------
	 SCS Same-Spin Scale       =       0.3333333333333333 [-]
	 SCS Opposite-Spin Scale   =       1.2000000000000000 [-]
	 SCS Same-Spin Energy      =      -0.3503188327457779 [Eh]
	 SCS Opposite-Spin Energy  =      -3.5399289020524813 [Eh]
	 SCS Correlation Energy    =      -3.8902477347982591 [Eh]
	 SCS Total Energy          =   -1032.8740599461186775 [Eh]
	-----------------------------------------------------------

  Dipole Moment: [D]
     X:    -0.9513      Y:    -1.2065      Z:     2.5514     Total:     2.9783

*** Psi4 exiting successfully. Buy a developer a beer!
