                               Psi4 1.4a3.dev225

  ==> Input File <==

--------------------------------------------------------------------------
#psi4
#
memory 32 gb

molecule  {
0 1
  O       -2.9128620    -0.4781290     1.0138340
  O       -2.9681190     0.5148030    -1.0434710
  O       -0.3129680    -3.4309860     0.4641560
  O       -0.2589710     3.4469300    -0.4801560
  O       -1.9011930    -2.4818550    -0.7520780
  O       -1.8407060     2.5208330     0.7644950
  O        3.9597560    -1.1388570    -0.0240200
  O        3.9819620     1.0692260     0.0429750
  N       -0.8213379    -2.4759695    -0.1020133
  N       -0.7967020     2.4883090     0.0943390
  N        3.4069750    -0.0290830     0.0068360
  C       -0.8642630     0.0144850    -0.0118450
  C       -0.1342560    -1.1768520    -0.0236930
  C       -0.1092970     1.1902470     0.0051550
  C        1.9306090    -0.0137700    -0.0002960
  C        1.2541590    -1.2264030    -0.0035910
  C        1.2788880     1.2129500     0.0017720
  C       -2.3665400     0.0542110    -0.0958220
  H        1.7835260    -2.1724740     0.0038120
  H        1.8267950     2.1485240     0.0024160
  H       -3.8857970    -0.4493820     0.8874840
units angstrom
no_reorient  #important for SAPT in psi4, default
symmetry c1  #important for SAPT in psi4, default
}

set PROPERTIES_ORIGIN ["COM"]
properties('MP2/aug-cc-pvtz', properties = ['dipole'])
--------------------------------------------------------------------------

    Molecular point group: c1
  Charge       = 0
  Multiplicity = 1
  Basis Set: AUG-CC-PVTZ
    Blend: AUG-CC-PVTZ
  Basis Set: (AUG-CC-PVTZ AUX)
    Blend: AUG-CC-PVTZ-JKFIT

    Orbital Energies [Eh]
    ---------------------

    Doubly Occupied:

       1A    -20.661149     2A    -20.656388     3A    -20.650817
       4A    -20.650743     5A    -20.650094     6A    -20.649952
       7A    -20.644343     8A    -20.594862     9A    -15.902752
      10A    -15.902147    11A    -15.900061    12A    -11.451644
      13A    -11.386687    14A    -11.385543    15A    -11.380260
      16A    -11.376285    17A    -11.355866    18A    -11.355730
      19A     -1.639013    20A     -1.634957    21A     -1.633602
      22A     -1.505003    23A     -1.435150    24A     -1.434918
      25A     -1.434123    26A     -1.404551    27A     -1.290516
      28A     -1.184017    29A     -1.181861    30A     -1.057342
      31A     -1.035588    32A     -1.027578    33A     -0.923698
      34A     -0.884156    35A     -0.871183    36A     -0.837471
      37A     -0.803097    38A     -0.790264    39A     -0.788623
      40A     -0.776754    41A     -0.766405    42A     -0.763127
      43A     -0.757406    44A     -0.753663    45A     -0.745357
      46A     -0.740830    47A     -0.716508    48A     -0.691328
      49A     -0.666648    50A     -0.646225    51A     -0.629048
      52A     -0.608504    53A     -0.555553    54A     -0.550289
      55A     -0.543448    56A     -0.540187    57A     -0.535817
      58A     -0.534718    59A     -0.521412    60A     -0.508210
      61A     -0.494159    62A     -0.491972    63A     -0.486670
      64A     -0.447464    65A     -0.446270

  @DF-RHF Final Energy: -1029.04876175954291

   => Energetics <=

    Nuclear Repulsion Energy =           1345.6745639539924468
    One-Electron Energy =               -4082.9066397874407812
    Two-Electron Energy =                1708.1833140739051942
    Total Energy =                      -1029.0487617595429128
  Basis Set: (AUG-CC-PVTZ AUX)
    Blend: AUG-CC-PVTZ-RI
    Molecular point group: c1

    Geometry (in Angstrom), charge = 0, multiplicity = 1:

       Center              X                  Y                   Z               Mass
    ------------   -----------------  -----------------  -----------------  -----------------
         O           -2.915221609748    -0.479289534085     1.017254498929    15.994914619570
         O           -2.970478609748     0.513642465915    -1.040050501071    15.994914619570
         O           -0.315327609748    -3.432146534085     0.467576498929    15.994914619570
         O           -0.261330609748     3.445769465915    -0.476735501071    15.994914619570
         O           -1.903552609748    -2.483015534085    -0.748657501071    15.994914619570
         O           -1.843065609748     2.519672465915     0.767915498929    15.994914619570
         O            3.957396390252    -1.140017534085    -0.020599501071    15.994914619570
         O            3.979602390252     1.068065465915     0.046395498929    15.994914619570
         N           -0.823697509748    -2.477130034085    -0.098592801071    14.003074004430
         N           -0.799061609748     2.487148465915     0.097759498929    14.003074004430
         N            3.404615390252    -0.030243534085     0.010256498929    14.003074004430
         C           -0.866622609748     0.013324465915    -0.008424501071    12.000000000000
         C           -0.136615609748    -1.178012534085    -0.020272501071    12.000000000000
         C           -0.111656609748     1.189086465915     0.008575498929    12.000000000000
         C            1.928249390252    -0.014930534085     0.003124498929    12.000000000000
         C            1.251799390252    -1.227563534085    -0.000170501071    12.000000000000
         C            1.276528390252     1.211789465915     0.005192498929    12.000000000000
         C           -2.368899609748     0.053050465915    -0.092401501071    12.000000000000
         H            1.781166390252    -2.173634534085     0.007232498929     1.007825032230
         H            1.824435390252     2.147363465915     0.005836498929     1.007825032230
         H           -3.888156609748    -0.450542534085     0.890904498929     1.007825032230

  Basis Set: AUG-CC-PVTZ
    Blend: AUG-CC-PVTZ
  Basis Set: (AUG-CC-PVTZ AUX)
    Blend: AUG-CC-PVTZ-JKFIT
	 Reference Energy          =   -1029.0487617595429128 [Eh]
	 Singles Energy            =      -0.0000000000000000 [Eh]
	 Same-Spin Energy          =      -1.0498934334416272 [Eh]
	 Opposite-Spin Energy      =      -2.9501203677401913 [Eh]
	 Correlation Energy        =      -4.0000138011818187 [Eh]
	 Total Energy              =   -1033.0487755607248346 [Eh]

	 ================> DF-SCS-MP2 Energies <==================
	-----------------------------------------------------------
	 SCS Same-Spin Scale       =       0.3333333333333333 [-]
	 SCS Opposite-Spin Scale   =       1.2000000000000000 [-]
	 SCS Same-Spin Energy      =      -0.3499644778138757 [Eh]
	 SCS Opposite-Spin Energy  =      -3.5401444412882292 [Eh]
	 SCS Correlation Energy    =      -3.8901089191021048 [Eh]
	 SCS Total Energy          =   -1032.9388706786451166 [Eh]
	-----------------------------------------------------------

  Dipole Moment: [D]
     X:    -0.0725      Y:    -0.6565      Z:     1.2373     Total:     1.4025

*** Psi4 exiting successfully. Buy a developer a beer!
