                               Psi4 1.4a3.dev225

  ==> Input File <==

--------------------------------------------------------------------------
#psi4
#
memory 32 gb

molecule  {
0 1
  O       -2.9128620    -0.4781290     1.0138340
  O       -2.9681190     0.5148030    -1.0434710
  O       -0.3129680    -3.4309860     0.4641560
  O       -0.2589710     3.4469300    -0.4801560
  O       -1.9011930    -2.4818550    -0.7520780
  O       -1.8407060     2.5208330     0.7644950
  O        3.9597560    -1.1388570    -0.0240200
  O        3.9819620     1.0692260     0.0429750
  N       -0.8439190    -2.4637400    -0.1025570
  N       -0.7967020     2.4883090     0.0943390
  N        3.4292608    -0.0738244     0.0055920
  C       -0.8642630     0.0144850    -0.0118450
  C       -0.1342560    -1.1768520    -0.0236930
  C       -0.1092970     1.1902470     0.0051550
  C        1.9306090    -0.0137700    -0.0002960
  C        1.2541590    -1.2264030    -0.0035910
  C        1.2788880     1.2129500     0.0017720
  C       -2.3665400     0.0542110    -0.0958220
  H        1.7835260    -2.1724740     0.0038120
  H        1.8267950     2.1485240     0.0024160
  H       -3.8857970    -0.4493820     0.8874840
units angstrom
no_reorient  #important for SAPT in psi4, default
symmetry c1  #important for SAPT in psi4, default
}

set PROPERTIES_ORIGIN ["COM"]
properties('MP2/aug-cc-pvtz', properties = ['dipole'])
--------------------------------------------------------------------------

    Molecular point group: c1
  Charge       = 0
  Multiplicity = 1
  Basis Set: AUG-CC-PVTZ
    Blend: AUG-CC-PVTZ
  Basis Set: (AUG-CC-PVTZ AUX)
    Blend: AUG-CC-PVTZ-JKFIT

    Orbital Energies [Eh]
    ---------------------

    Doubly Occupied:

       1A    -20.668572     2A    -20.656995     3A    -20.652404
       4A    -20.652258     5A    -20.649283     6A    -20.649100
       7A    -20.634895     8A    -20.595226     9A    -15.902656
      10A    -15.902389    11A    -15.899224    12A    -11.451757
      13A    -11.385865    14A    -11.384540    15A    -11.379841
      16A    -11.374469    17A    -11.354421    18A    -11.354377
      19A     -1.653204    20A     -1.636314    21A     -1.632776
      22A     -1.505472    23A     -1.437559    24A     -1.436425
      25A     -1.433320    26A     -1.404993    27A     -1.288746
      28A     -1.180572    29A     -1.179426    30A     -1.054380
      31A     -1.031386    32A     -1.026686    33A     -0.923692
      34A     -0.882941    35A     -0.871829    36A     -0.839913
      37A     -0.802083    38A     -0.790227    39A     -0.788702
      40A     -0.777287    41A     -0.766779    42A     -0.763250
      43A     -0.762313    44A     -0.757859    45A     -0.745339
      46A     -0.740747    47A     -0.715930    48A     -0.691474
      49A     -0.667095    50A     -0.645479    51A     -0.629218
      52A     -0.608328    53A     -0.555328    54A     -0.549373
      55A     -0.545341    56A     -0.540461    57A     -0.534313
      58A     -0.529033    59A     -0.521682    60A     -0.508543
      61A     -0.496479    62A     -0.492060    63A     -0.486015
      64A     -0.446280    65A     -0.445355

  @DF-RHF Final Energy: -1029.04846336902710

   => Energetics <=

    Nuclear Repulsion Energy =           1345.6062931881353961
    One-Electron Energy =               -4082.7689549708838967
    Two-Electron Energy =                1708.1141984137216241
    Total Energy =                      -1029.0484633690271039
  Basis Set: (AUG-CC-PVTZ AUX)
    Blend: AUG-CC-PVTZ-RI
    Molecular point group: c1

    Geometry (in Angstrom), charge = 0, multiplicity = 1:

       Center              X                  Y                   Z               Mass
    ------------   -----------------  -----------------  -----------------  -----------------
         O           -2.915205519335    -0.477518013894     1.017351907774    15.994914619570
         O           -2.970462519335     0.515413986106    -1.039953092226    15.994914619570
         O           -0.315311519335    -3.430375013894     0.467673907774    15.994914619570
         O           -0.261314519335     3.447540986106    -0.476638092226    15.994914619570
         O           -1.903536519335    -2.481244013894    -0.748560092226    15.994914619570
         O           -1.843049519335     2.521443986106     0.768012907774    15.994914619570
         O            3.957412480665    -1.138246013894    -0.020502092226    15.994914619570
         O            3.979618480665     1.069836986106     0.046492907774    15.994914619570
         N           -0.846262519335    -2.463129013894    -0.099039092226    14.003074004430
         N           -0.799045519335     2.488919986106     0.097856907774    14.003074004430
         N            3.426917280665    -0.073213413894     0.009109907774    14.003074004430
         C           -0.866606519335     0.015095986106    -0.008327092226    12.000000000000
         C           -0.136599519335    -1.176241013894    -0.020175092226    12.000000000000
         C           -0.111640519335     1.190857986106     0.008672907774    12.000000000000
         C            1.928265480665    -0.013159013894     0.003221907774    12.000000000000
         C            1.251815480665    -1.225792013894    -0.000073092226    12.000000000000
         C            1.276544480665     1.213560986106     0.005289907774    12.000000000000
         C           -2.368883519335     0.054821986106    -0.092304092226    12.000000000000
         H            1.781182480665    -2.171863013894     0.007329907774     1.007825032230
         H            1.824451480665     2.149134986106     0.005933907774     1.007825032230
         H           -3.888140519335    -0.448771013894     0.891001907774     1.007825032230

  Basis Set: AUG-CC-PVTZ
    Blend: AUG-CC-PVTZ
  Basis Set: (AUG-CC-PVTZ AUX)
    Blend: AUG-CC-PVTZ-JKFIT
	 Reference Energy          =   -1029.0484633690271039 [Eh]
	 Singles Energy            =      -0.0000000000000000 [Eh]
	 Same-Spin Energy          =      -1.0491256164164238 [Eh]
	 Opposite-Spin Energy      =      -2.9483068394078287 [Eh]
	 Correlation Energy        =      -3.9974324558242524 [Eh]
	 Total Energy              =   -1033.0458958248514136 [Eh]

	 ================> DF-SCS-MP2 Energies <==================
	-----------------------------------------------------------
	 SCS Same-Spin Scale       =       0.3333333333333333 [-]
	 SCS Opposite-Spin Scale   =       1.2000000000000000 [-]
	 SCS Same-Spin Energy      =      -0.3497085388054746 [Eh]
	 SCS Opposite-Spin Energy  =      -3.5379682072893943 [Eh]
	 SCS Correlation Energy    =      -3.8876767460948689 [Eh]
	 SCS Total Energy          =   -1032.9361401151220434 [Eh]
	-----------------------------------------------------------

  Dipole Moment: [D]
     X:     0.0032      Y:    -0.8172      Z:     1.1824     Total:     1.4373

*** Psi4 exiting successfully. Buy a developer a beer!
