                               Psi4 1.4a3.dev225

  ==> Input File <==

--------------------------------------------------------------------------
#psi4
#
memory 32 gb

molecule  {
0 1
  O       -2.9128620    -0.4781290     1.0138340
  O       -2.9681190     0.5148030    -1.0434710
  O       -0.3129680    -3.4309860     0.4641560
  O       -0.2589710     3.4469300    -0.4801560
  O       -1.9011930    -2.4818550    -0.7520780
  O       -1.8407060     2.5208330     0.7644950
  O        3.9597560    -1.1388570    -0.0240200
  O        3.9626962     1.0790922     0.0431740
  N       -0.8439190    -2.4637400    -0.1025570
  N       -0.7967020     2.4883090     0.0943390
  N        3.4069750    -0.0290830     0.0068360
  C       -0.8642630     0.0144850    -0.0118450
  C       -0.1342560    -1.1768520    -0.0236930
  C       -0.1092970     1.1902470     0.0051550
  C        1.9306090    -0.0137700    -0.0002960
  C        1.2541590    -1.2264030    -0.0035910
  C        1.2788880     1.2129500     0.0017720
  C       -2.3665400     0.0542110    -0.0958220
  H        1.7835260    -2.1724740     0.0038120
  H        1.8267950     2.1485240     0.0024160
  H       -3.8857970    -0.4493820     0.8874840
units angstrom
no_reorient  #important for SAPT in psi4, default
symmetry c1  #important for SAPT in psi4, default
}

set PROPERTIES_ORIGIN ["COM"]
properties('MP2/aug-cc-pvtz', properties = ['dipole'])
--------------------------------------------------------------------------

    Molecular point group: c1
  Charge       = 0
  Multiplicity = 1
  Basis Set: AUG-CC-PVTZ
    Blend: AUG-CC-PVTZ
  Basis Set: (AUG-CC-PVTZ AUX)
    Blend: AUG-CC-PVTZ-JKFIT

    Orbital Energies [Eh]
    ---------------------

    Doubly Occupied:

       1A    -20.657467     2A    -20.652533     3A    -20.652333
       4A    -20.652119     5A    -20.651518     6A    -20.649923
       7A    -20.649773     8A    -20.595791     9A    -15.902726
      10A    -15.902571    11A    -15.899837    12A    -11.452340
      13A    -11.386278    14A    -11.385030    15A    -11.379414
      16A    -11.375542    17A    -11.355459    18A    -11.355079
      19A     -1.636447    20A     -1.635090    21A     -1.633424
      22A     -1.505974    23A     -1.437123    24A     -1.436498
      25A     -1.433991    26A     -1.405514    27A     -1.290011
      28A     -1.183683    29A     -1.181018    30A     -1.056179
      31A     -1.035356    32A     -1.027787    33A     -0.924165
      34A     -0.883529    35A     -0.871147    36A     -0.837613
      37A     -0.802609    38A     -0.789971    39A     -0.788100
      40A     -0.777146    41A     -0.765858    42A     -0.762991
      43A     -0.758098    44A     -0.754209    45A     -0.745615
      46A     -0.741214    47A     -0.715852    48A     -0.691056
      49A     -0.667412    50A     -0.645915    51A     -0.629612
      52A     -0.608062    53A     -0.555035    54A     -0.549673
      55A     -0.544931    56A     -0.541081    57A     -0.535721
      58A     -0.534303    59A     -0.522199    60A     -0.508992
      61A     -0.495388    62A     -0.492090    63A     -0.486706
      64A     -0.447170    65A     -0.445668

  @DF-RHF Final Energy: -1029.04918720291971

   => Energetics <=

    Nuclear Repulsion Energy =           1346.1063632821155807
    One-Electron Energy =               -4083.7651778156564433
    Two-Electron Energy =                1708.6096273306211515
    Total Energy =                      -1029.0491872029197111
  Basis Set: (AUG-CC-PVTZ AUX)
    Blend: AUG-CC-PVTZ-RI
    Molecular point group: c1

    Geometry (in Angstrom), charge = 0, multiplicity = 1:

       Center              X                  Y                   Z               Mass
    ------------   -----------------  -----------------  -----------------  -----------------
         O           -2.912792119311    -0.480569961500     1.017271738699    15.994914619570
         O           -2.968049119311     0.512362038500    -1.040033261301    15.994914619570
         O           -0.312898119311    -3.433426961500     0.467593738699    15.994914619570
         O           -0.258901119311     3.444489038500    -0.476718261301    15.994914619570
         O           -1.901123119311    -2.484295961500    -0.748640261301    15.994914619570
         O           -1.840636119311     2.518392038500     0.767932738699    15.994914619570
         O            3.959825880689    -1.141297961500    -0.020582261301    15.994914619570
         O            3.962766080689     1.076651238500     0.046611738699    15.994914619570
         N           -0.843849119311    -2.466180961500    -0.099119261301    14.003074004430
         N           -0.796632119311     2.485868038500     0.097776738699    14.003074004430
         N            3.407044880689    -0.031523961500     0.010273738699    14.003074004430
         C           -0.864193119311     0.012044038500    -0.008407261301    12.000000000000
         C           -0.134186119311    -1.179292961500    -0.020255261301    12.000000000000
         C           -0.109227119311     1.187806038500     0.008592738699    12.000000000000
         C            1.930678880689    -0.016210961500     0.003141738699    12.000000000000
         C            1.254228880689    -1.228843961500    -0.000153261301    12.000000000000
         C            1.278957880689     1.210509038500     0.005209738699    12.000000000000
         C           -2.366470119311     0.051770038500    -0.092384261301    12.000000000000
         H            1.783595880689    -2.174914961500     0.007249738699     1.007825032230
         H            1.826864880689     2.146083038500     0.005853738699     1.007825032230
         H           -3.885727119311    -0.451822961500     0.890921738699     1.007825032230

  Basis Set: AUG-CC-PVTZ
    Blend: AUG-CC-PVTZ
  Basis Set: (AUG-CC-PVTZ AUX)
    Blend: AUG-CC-PVTZ-JKFIT
	 Reference Energy          =   -1029.0491872029197111 [Eh]
	 Singles Energy            =      -0.0000000000000000 [Eh]
	 Same-Spin Energy          =      -1.0500575021846426 [Eh]
	 Opposite-Spin Energy      =      -2.9503935923877078 [Eh]
	 Correlation Energy        =      -4.0004510945723499 [Eh]
	 Total Energy              =   -1033.0496382974920380 [Eh]

	 ================> DF-SCS-MP2 Energies <==================
	-----------------------------------------------------------
	 SCS Same-Spin Scale       =       0.3333333333333333 [-]
	 SCS Opposite-Spin Scale   =       1.2000000000000000 [-]
	 SCS Same-Spin Energy      =      -0.3500191673948808 [Eh]
	 SCS Opposite-Spin Energy  =      -3.5404723108652494 [Eh]
	 SCS Correlation Energy    =      -3.8904914782601301 [Eh]
	 SCS Total Energy          =   -1032.9396786811798847 [Eh]
	-----------------------------------------------------------

  Dipole Moment: [D]
     X:    -0.0742      Y:    -0.6265      Z:     1.1904     Total:     1.3472

*** Psi4 exiting successfully. Buy a developer a beer!
