                               Psi4 1.4a3.dev225

  ==> Input File <==

--------------------------------------------------------------------------
#psi4
#
memory 32 gb

molecule  {
0 1
  O       -2.9128620    -0.4781290     1.0138340
  O       -2.9681190     0.5148030    -1.0434710
  O       -0.3129680    -3.4309860     0.4641560
  O       -0.2589710     3.4469300    -0.4801560
  O       -1.9011930    -2.4818550    -0.7520780
  O       -1.8407060     2.5208330     0.7644950
  O        3.9597560    -1.1388570    -0.0240200
  O        3.9819620     1.0692260     0.0429750
  N       -0.8439190    -2.4637400    -0.1025570
  N       -0.7967020     2.4883090     0.0943390
  N        3.4069750    -0.0290830     0.0068360
  C       -0.8642630     0.0144850    -0.0118450
  C       -0.1551597    -1.1894092    -0.0239207
  C       -0.1092970     1.1902470     0.0051550
  C        1.9306090    -0.0137700    -0.0002960
  C        1.2541590    -1.2264030    -0.0035910
  C        1.2788880     1.2129500     0.0017720
  C       -2.3665400     0.0542110    -0.0958220
  H        1.7835260    -2.1724740     0.0038120
  H        1.8267950     2.1485240     0.0024160
  H       -3.8857970    -0.4493820     0.8874840
units angstrom
no_reorient  #important for SAPT in psi4, default
symmetry c1  #important for SAPT in psi4, default
}

set PROPERTIES_ORIGIN ["COM"]
properties('MP2/aug-cc-pvtz', properties = ['dipole'])
--------------------------------------------------------------------------

    Molecular point group: c1
  Charge       = 0
  Multiplicity = 1
  Basis Set: AUG-CC-PVTZ
    Blend: AUG-CC-PVTZ
  Basis Set: (AUG-CC-PVTZ AUX)
    Blend: AUG-CC-PVTZ-JKFIT

    Orbital Energies [Eh]
    ---------------------

    Doubly Occupied:

       1A    -20.657504     2A    -20.653119     3A    -20.652666
       4A    -20.650841     5A    -20.650591     6A    -20.650027
       7A    -20.649896     8A    -20.595653     9A    -15.903540
      10A    -15.902217    11A    -15.900136    12A    -11.451880
      13A    -11.386941    14A    -11.385125    15A    -11.380147
      16A    -11.376207    17A    -11.358783    18A    -11.356417
      19A     -1.638881    20A     -1.634911    21A     -1.633578
      22A     -1.505992    23A     -1.437708    24A     -1.434885
      25A     -1.434129    26A     -1.405458    27A     -1.288950
      28A     -1.186160    29A     -1.181318    30A     -1.057868
      31A     -1.036964    32A     -1.028300    33A     -0.923664
      34A     -0.884511    35A     -0.870382    36A     -0.837360
      37A     -0.803447    38A     -0.791398    39A     -0.788170
      40A     -0.777723    41A     -0.767138    42A     -0.763384
      43A     -0.757529    44A     -0.753915    45A     -0.745875
      46A     -0.741695    47A     -0.715268    48A     -0.689330
      49A     -0.667530    50A     -0.646062    51A     -0.628822
      52A     -0.606764    53A     -0.556059    54A     -0.550247
      55A     -0.544710    56A     -0.540241    57A     -0.537144
      58A     -0.534561    59A     -0.522665    60A     -0.508616
      61A     -0.494046    62A     -0.492742    63A     -0.486862
      64A     -0.448227    65A     -0.443869

  @DF-RHF Final Energy: -1029.04888976441475

   => Energetics <=

    Nuclear Repulsion Energy =           1345.8014991265433764
    One-Electron Energy =               -4083.1272837074948256
    Two-Electron Energy =                1708.2768948165364691
    Total Energy =                      -1029.0488897644147528
  Basis Set: (AUG-CC-PVTZ AUX)
    Blend: AUG-CC-PVTZ-RI
    Molecular point group: c1

    Geometry (in Angstrom), charge = 0, multiplicity = 1:

       Center              X                  Y                   Z               Mass
    ------------   -----------------  -----------------  -----------------  -----------------
         O           -2.913015124008    -0.479369552889     1.017294756488    15.994914619570
         O           -2.968272124008     0.513562447111    -1.040010243512    15.994914619570
         O           -0.313121124008    -3.432226552889     0.467616756488    15.994914619570
         O           -0.259124124008     3.445689447111    -0.476695243512    15.994914619570
         O           -1.901346124008    -2.483095552889    -0.748617243512    15.994914619570
         O           -1.840859124008     2.519592447111     0.767955756488    15.994914619570
         O            3.959602875992    -1.140097552889    -0.020559243512    15.994914619570
         O            3.981808875992     1.067985447111     0.046435756488    15.994914619570
         N           -0.844072124008    -2.464980552889    -0.099096243512    14.003074004430
         N           -0.796855124008     2.487068447111     0.097799756488    14.003074004430
         N            3.406821875992    -0.030323552889     0.010296756488    14.003074004430
         C           -0.864416124008     0.013244447111    -0.008384243512    12.000000000000
         C           -0.155312824008    -1.190649752889    -0.020459943512    12.000000000000
         C           -0.109450124008     1.189006447111     0.008615756488    12.000000000000
         C            1.930455875992    -0.015010552889     0.003164756488    12.000000000000
         C            1.254005875992    -1.227643552889    -0.000130243512    12.000000000000
         C            1.278734875992     1.211709447111     0.005232756488    12.000000000000
         C           -2.366693124008     0.052970447111    -0.092361243512    12.000000000000
         H            1.783372875992    -2.173714552889     0.007272756488     1.007825032230
         H            1.826641875992     2.147283447111     0.005876756488     1.007825032230
         H           -3.885950124008    -0.450622552889     0.890944756488     1.007825032230

  Basis Set: AUG-CC-PVTZ
    Blend: AUG-CC-PVTZ
  Basis Set: (AUG-CC-PVTZ AUX)
    Blend: AUG-CC-PVTZ-JKFIT
	 Reference Energy          =   -1029.0488897644147528 [Eh]
	 Singles Energy            =      -0.0000000000000000 [Eh]
	 Same-Spin Energy          =      -1.0499357652216967 [Eh]
	 Opposite-Spin Energy      =      -2.9502118350887461 [Eh]
	 Correlation Energy        =      -4.0001476003104433 [Eh]
	 Total Energy              =   -1033.0490373647251090 [Eh]

	 ================> DF-SCS-MP2 Energies <==================
	-----------------------------------------------------------
	 SCS Same-Spin Scale       =       0.3333333333333333 [-]
	 SCS Opposite-Spin Scale   =       1.2000000000000000 [-]
	 SCS Same-Spin Energy      =      -0.3499785884072322 [Eh]
	 SCS Opposite-Spin Energy  =      -3.5402542021064951 [Eh]
	 SCS Correlation Energy    =      -3.8902327905137275 [Eh]
	 SCS Total Energy          =   -1032.9391225549284172 [Eh]
	-----------------------------------------------------------

  Dipole Moment: [D]
     X:    -0.1432      Y:    -0.6225      Z:     1.1941     Total:     1.3542

*** Psi4 exiting successfully. Buy a developer a beer!
