                               Psi4 1.4a3.dev225

  ==> Input File <==

--------------------------------------------------------------------------
#psi4
#
memory 32 gb

molecule  {
0 1
  O       -2.9128620    -0.4781290     1.0138340
  O       -2.9681190     0.5148030    -1.0434710
  O       -0.3129680    -3.4309860     0.4641560
  O       -0.2589710     3.4469300    -0.4801560
  O       -1.9011930    -2.4818550    -0.7520780
  O       -1.8407060     2.5208330     0.7644950
  O        3.9597560    -1.1388570    -0.0240200
  O        3.9819620     1.0692260     0.0429750
  N       -0.8439190    -2.4637400    -0.1025570
  N       -0.7967020     2.4883090     0.0943390
  N        3.4069750    -0.0290830     0.0068360
  C       -0.8642630     0.0144850    -0.0118450
  C       -0.1342560    -1.1768520    -0.0236930
  C       -0.1092970     1.1902470     0.0051550
  C        1.9306090    -0.0137700    -0.0002960
  C        1.2541590    -1.2264030    -0.0035910
  C        1.2788880     1.2129500     0.0017720
  C       -2.3259679     0.0937447    -0.1782295
  H        1.7835260    -2.1724740     0.0038120
  H        1.8267950     2.1485240     0.0024160
  H       -3.8857970    -0.4493820     0.8874840
units angstrom
no_reorient  #important for SAPT in psi4, default
symmetry c1  #important for SAPT in psi4, default
}

set PROPERTIES_ORIGIN ["COM"]
properties('MP2/aug-cc-pvtz', properties = ['dipole'])
--------------------------------------------------------------------------

    Molecular point group: c1
  Charge       = 0
  Multiplicity = 1
  Basis Set: AUG-CC-PVTZ
    Blend: AUG-CC-PVTZ
  Basis Set: (AUG-CC-PVTZ AUX)
    Blend: AUG-CC-PVTZ-JKFIT

    Orbital Energies [Eh]
    ---------------------

    Doubly Occupied:

       1A    -20.652702     2A    -20.652561     3A    -20.652508
       4A    -20.652473     5A    -20.652423     6A    -20.652412
       7A    -20.627667     8A    -20.611464     9A    -15.903806
      10A    -15.902787    11A    -15.902626    12A    -11.447638
      13A    -11.390203    14A    -11.388408    15A    -11.383092
      16A    -11.377818    17A    -11.357899    18A    -11.357583
      19A     -1.636820    20A     -1.636387    21A     -1.636101
      22A     -1.508811    23A     -1.436797    24A     -1.436509
      25A     -1.436410    26A     -1.392850    27A     -1.293748
      28A     -1.188419    29A     -1.183649    30A     -1.062482
      31A     -1.037678    32A     -1.030225    33A     -0.918450
      34A     -0.885750    35A     -0.868669    36A     -0.835484
      37A     -0.805509    38A     -0.790845    39A     -0.790489
      40A     -0.770563    41A     -0.765518    42A     -0.761529
      43A     -0.758772    44A     -0.754938    45A     -0.745415
      46A     -0.740678    47A     -0.717983    48A     -0.692166
      49A     -0.660598    50A     -0.646021    51A     -0.635533
      52A     -0.607533    53A     -0.556730    54A     -0.550816
      55A     -0.543384    56A     -0.539403    57A     -0.537886
      58A     -0.536092    59A     -0.532432    60A     -0.509213
      61A     -0.495500    62A     -0.491173    63A     -0.490367
      64A     -0.451602    65A     -0.448234

  @DF-RHF Final Energy: -1029.03880433981749

   => Energetics <=

    Nuclear Repulsion Energy =           1346.3000434845464497
    One-Electron Energy =               -4084.0412281262761098
    Two-Electron Energy =                1708.7023803019123989
    Total Energy =                      -1029.0388043398174887
  Basis Set: (AUG-CC-PVTZ AUX)
    Blend: AUG-CC-PVTZ-RI
    Molecular point group: c1

    Geometry (in Angstrom), charge = 0, multiplicity = 1:

       Center              X                  Y                   Z               Mass
    ------------   -----------------  -----------------  -----------------  -----------------
         O           -2.915885678576    -0.481801888392     1.021132064833    15.994914619570
         O           -2.971142678576     0.511130111608    -1.036172935167    15.994914619570
         O           -0.315991678576    -3.434658888392     0.471454064833    15.994914619570
         O           -0.261994678576     3.443257111608    -0.472857935167    15.994914619570
         O           -1.904216678576    -2.485527888392    -0.744779935167    15.994914619570
         O           -1.843729678576     2.517160111608     0.771793064833    15.994914619570
         O            3.956732321424    -1.142529888392    -0.016721935167    15.994914619570
         O            3.978938321424     1.065553111608     0.050273064833    15.994914619570
         N           -0.846942678576    -2.467412888392    -0.095258935167    14.003074004430
         N           -0.799725678576     2.484636111608     0.101637064833    14.003074004430
         N            3.403951321424    -0.032755888392     0.014134064833    14.003074004430
         C           -0.867286678576     0.010812111608    -0.004546935167    12.000000000000
         C           -0.137279678576    -1.180524888392    -0.016394935167    12.000000000000
         C           -0.112320678576     1.186574111608     0.012453064833    12.000000000000
         C            1.927585321424    -0.017442888392     0.007002064833    12.000000000000
         C            1.251135321424    -1.230075888392     0.003707064833    12.000000000000
         C            1.275864321424     1.209277111608     0.009070064833    12.000000000000
         C           -2.328991578576     0.090071811608    -0.170931435167    12.000000000000
         H            1.780502321424    -2.176146888392     0.011110064833     1.007825032230
         H            1.823771321424     2.144851111608     0.009714064833     1.007825032230
         H           -3.888820678576    -0.453054888392     0.894782064833     1.007825032230

  Basis Set: AUG-CC-PVTZ
    Blend: AUG-CC-PVTZ
  Basis Set: (AUG-CC-PVTZ AUX)
    Blend: AUG-CC-PVTZ-JKFIT
	 Reference Energy          =   -1029.0388043398174887 [Eh]
	 Singles Energy            =      -0.0000000000000000 [Eh]
	 Same-Spin Energy          =      -1.0498477341721577 [Eh]
	 Opposite-Spin Energy      =      -2.9510511139737154 [Eh]
	 Correlation Energy        =      -4.0008988481458729 [Eh]
	 Total Energy              =   -1033.0397031879633687 [Eh]

	 ================> DF-SCS-MP2 Energies <==================
	-----------------------------------------------------------
	 SCS Same-Spin Scale       =       0.3333333333333333 [-]
	 SCS Opposite-Spin Scale   =       1.2000000000000000 [-]
	 SCS Same-Spin Energy      =      -0.3499492447240525 [Eh]
	 SCS Opposite-Spin Energy  =      -3.5412613367684584 [Eh]
	 SCS Correlation Energy    =      -3.8912105814925111 [Eh]
	 SCS Total Energy          =   -1032.9300149213099758 [Eh]
	-----------------------------------------------------------

  Dipole Moment: [D]
     X:     0.3061      Y:    -0.3204      Z:     0.5081     Total:     0.6742

*** Psi4 exiting successfully. Buy a developer a beer!
