                               Psi4 1.4a3.dev225

  ==> Input File <==

--------------------------------------------------------------------------
#psi4
#
memory 32 gb

molecule  {
0 1
  O       -2.9128620    -0.4781290     1.0138340
  O       -2.9681190     0.5148030    -1.0434710
  O       -0.3129680    -3.4309860     0.4641560
  O       -0.2589710     3.4469300    -0.4801560
  O       -1.9011930    -2.4818550    -0.7520780
  O       -1.8407060     2.5208330     0.7644950
  O        3.9597560    -1.1388570    -0.0240200
  O        3.9819620     1.0692260     0.0429750
  N       -0.8439190    -2.4637400    -0.1025570
  N       -0.6284516     2.4830675    -0.0136625
  N        3.4069750    -0.0290830     0.0068360
  C       -0.8642630     0.0144850    -0.0118450
  C       -0.1342560    -1.1768520    -0.0236930
  C       -0.1092970     1.1902470     0.0051550
  C        1.9306090    -0.0137700    -0.0002960
  C        1.2541590    -1.2264030    -0.0035910
  C        1.2788880     1.2129500     0.0017720
  C       -2.3665400     0.0542110    -0.0958220
  H        1.7835260    -2.1724740     0.0038120
  H        1.8267950     2.1485240     0.0024160
  H       -3.8857970    -0.4493820     0.8874840
units angstrom
no_reorient  #important for SAPT in psi4, default
symmetry c1  #important for SAPT in psi4, default
}

set PROPERTIES_ORIGIN ["COM"]
properties('MP2/aug-cc-pvtz', properties = ['dipole'])
--------------------------------------------------------------------------

    Molecular point group: c1
  Charge       = 0
  Multiplicity = 1
  Basis Set: AUG-CC-PVTZ
    Blend: AUG-CC-PVTZ
  Basis Set: (AUG-CC-PVTZ AUX)
    Blend: AUG-CC-PVTZ-JKFIT

    Orbital Energies [Eh]
    ---------------------

    Doubly Occupied:

       1A    -20.707498     2A    -20.653940     3A    -20.653813
       4A    -20.653434     5A    -20.653368     6A    -20.650917
       7A    -20.587999     8A    -20.584115     9A    -15.904594
      10A    -15.904302    11A    -15.884326    12A    -11.447279
      13A    -11.389730    14A    -11.386045    15A    -11.382697
      16A    -11.382303    17A    -11.360896    18A    -11.359498
      19A     -1.693325    20A     -1.637919    21A     -1.637491
      22A     -1.499128    23A     -1.437843    24A     -1.437554
      25A     -1.398552    26A     -1.347144    27A     -1.290137
      28A     -1.199552    29A     -1.186369    30A     -1.072249
      31A     -1.041666    32A     -1.032311    33A     -0.923779
      34A     -0.890642    35A     -0.877925    36A     -0.844134
      37A     -0.811893    38A     -0.800185    39A     -0.793670
      40A     -0.779445    41A     -0.772186    42A     -0.766071
      43A     -0.759523    44A     -0.756451    45A     -0.749429
      46A     -0.735693    47A     -0.718610    48A     -0.692800
      49A     -0.664073    50A     -0.648439    51A     -0.625729
      52A     -0.611100    53A     -0.554349    54A     -0.547071
      55A     -0.545031    56A     -0.539687    57A     -0.525029
      58A     -0.519681    59A     -0.504960    60A     -0.497012
      61A     -0.493028    62A     -0.492390    63A     -0.465411
      64A     -0.451156    65A     -0.441273

  @DF-RHF Final Energy: -1028.99629161499752

   => Energetics <=

    Nuclear Repulsion Energy =           1346.4247678774445376
    One-Electron Energy =               -4084.3304197541933718
    Two-Electron Energy =                1708.9093602617513170
    Total Energy =                      -1028.9962916149975172
  Basis Set: (AUG-CC-PVTZ AUX)
    Blend: AUG-CC-PVTZ-RI
    Molecular point group: c1

    Geometry (in Angstrom), charge = 0, multiplicity = 1:

       Center              X                  Y                   Z               Mass
    ------------   -----------------  -----------------  -----------------  -----------------
         O           -2.923158891362    -0.479670298762     1.023168949126    15.994914619570
         O           -2.978415891362     0.513261701238    -1.034136050874    15.994914619570
         O           -0.323264891362    -3.432527298762     0.473490949126    15.994914619570
         O           -0.269267891362     3.445388701238    -0.470821050874    15.994914619570
         O           -1.911489891362    -2.483396298762    -0.742743050874    15.994914619570
         O           -1.851002891362     2.519291701238     0.773829949126    15.994914619570
         O            3.949459108638    -1.140398298762    -0.014685050874    15.994914619570
         O            3.971665108638     1.067684701238     0.052309949126    15.994914619570
         N           -0.854215891362    -2.465281298762    -0.093222050874    14.003074004430
         N           -0.638748491362     2.481526201238    -0.004327550874    14.003074004430
         N            3.396678108638    -0.030624298762     0.016170949126    14.003074004430
         C           -0.874559891362     0.012943701238    -0.002510050874    12.000000000000
         C           -0.144552891362    -1.178393298762    -0.014358050874    12.000000000000
         C           -0.119593891362     1.188705701238     0.014489949126    12.000000000000
         C            1.920312108638    -0.015311298762     0.009038949126    12.000000000000
         C            1.243862108638    -1.227944298762     0.005743949126    12.000000000000
         C            1.268591108638     1.211408701238     0.011106949126    12.000000000000
         C           -2.376836891362     0.052669701238    -0.086487050874    12.000000000000
         H            1.773229108638    -2.174015298762     0.013146949126     1.007825032230
         H            1.816498108638     2.146982701238     0.011750949126     1.007825032230
         H           -3.896093891362    -0.450923298762     0.896818949126     1.007825032230

  Basis Set: AUG-CC-PVTZ
    Blend: AUG-CC-PVTZ
  Basis Set: (AUG-CC-PVTZ AUX)
    Blend: AUG-CC-PVTZ-JKFIT
	 Reference Energy          =   -1028.9962916149975172 [Eh]
	 Singles Energy            =      -0.0000000000000000 [Eh]
	 Same-Spin Energy          =      -1.0474285602895330 [Eh]
	 Opposite-Spin Energy      =      -2.9464754232787729 [Eh]
	 Correlation Energy        =      -3.9939039835683059 [Eh]
	 Total Energy              =   -1032.9901955985658333 [Eh]

	 ================> DF-SCS-MP2 Energies <==================
	-----------------------------------------------------------
	 SCS Same-Spin Scale       =       0.3333333333333333 [-]
	 SCS Opposite-Spin Scale   =       1.2000000000000000 [-]
	 SCS Same-Spin Energy      =      -0.3491428534298443 [Eh]
	 SCS Opposite-Spin Energy  =      -3.5357705079345272 [Eh]
	 SCS Correlation Energy    =      -3.8849133613643714 [Eh]
	 SCS Total Energy          =   -1032.8812049763619143 [Eh]
	-----------------------------------------------------------

  Dipole Moment: [D]
     X:     0.9243      Y:    -0.8208      Z:     0.4691     Total:     1.3221

*** Psi4 exiting successfully. Buy a developer a beer!
