                               Psi4 1.4a3.dev225

  ==> Input File <==

--------------------------------------------------------------------------
#psi4
#
memory 32 gb

molecule  {
0 1
  O       -2.9128620    -0.4781290     1.0138340
  O       -2.9681190     0.5148030    -1.0434710
  O       -0.3129680    -3.4309860     0.4641560
  O       -0.2589710     3.4469300    -0.4801560
  O       -1.9011930    -2.4818550    -0.7520780
  O       -1.8407060     2.5208330     0.7644950
  O        3.9597560    -1.1388570    -0.0240200
  O        3.9819620     1.0692260     0.0429750
  N       -0.8439190    -2.4637400    -0.1025570
  N       -0.7967020     2.4883090     0.0943390
  N        3.4069750    -0.0290830     0.0068360
  C       -0.8642630     0.0144850    -0.0118450
  C       -0.1342560    -1.1768520    -0.0236930
  C       -0.1092970     1.1902470     0.0051550
  C        1.7306221    -0.0116957    -0.0012621
  C        1.2541590    -1.2264030    -0.0035910
  C        1.2788880     1.2129500     0.0017720
  C       -2.3665400     0.0542110    -0.0958220
  H        1.7835260    -2.1724740     0.0038120
  H        1.8267950     2.1485240     0.0024160
  H       -3.8857970    -0.4493820     0.8874840
units angstrom
no_reorient  #important for SAPT in psi4, default
symmetry c1  #important for SAPT in psi4, default
}

set PROPERTIES_ORIGIN ["COM"]
properties('MP2/aug-cc-pvtz', properties = ['dipole'])
--------------------------------------------------------------------------

    Molecular point group: c1
  Charge       = 0
  Multiplicity = 1
  Basis Set: AUG-CC-PVTZ
    Blend: AUG-CC-PVTZ
  Basis Set: (AUG-CC-PVTZ AUX)
    Blend: AUG-CC-PVTZ-JKFIT

    Orbital Energies [Eh]
    ---------------------

    Doubly Occupied:

       1A    -20.657771     2A    -20.655373     3A    -20.655049
       4A    -20.652763     5A    -20.652519     6A    -20.643060
       7A    -20.643003     8A    -20.595790     9A    -15.904260
      10A    -15.901559    11A    -15.882663    12A    -11.452516
      13A    -11.392043    14A    -11.390943    15A    -11.382707
      16A    -11.371740    17A    -11.348123    18A    -11.347967
      19A     -1.638956    20A     -1.635996    21A     -1.613476
      22A     -1.506241    23A     -1.439024    24A     -1.436522
      25A     -1.421406    26A     -1.405741    27A     -1.313067
      28A     -1.192030    29A     -1.179567    30A     -1.054423
      31A     -1.051490    32A     -0.999110    33A     -0.919396
      34A     -0.886771    35A     -0.873584    36A     -0.832312
      37A     -0.810141    38A     -0.792649    39A     -0.785572
      40A     -0.771599    41A     -0.765799    42A     -0.765048
      43A     -0.749697    44A     -0.746453    45A     -0.742411
      46A     -0.732448    47A     -0.723472    48A     -0.689082
      49A     -0.686490    50A     -0.661677    51A     -0.630653
      52A     -0.628564    53A     -0.555489    54A     -0.551468
      55A     -0.546195    56A     -0.538927    57A     -0.530126
      58A     -0.523388    59A     -0.511392    60A     -0.501547
      61A     -0.494260    62A     -0.488843    63A     -0.486267
      64A     -0.458631    65A     -0.452367

  @DF-RHF Final Energy: -1029.00910969604683

   => Energetics <=

    Nuclear Repulsion Energy =           1347.8688085125190810
    One-Electron Energy =               -4087.2566053561549779
    Two-Electron Energy =                1710.3786871475890621
    Total Energy =                      -1029.0091096960468349
  Basis Set: (AUG-CC-PVTZ AUX)
    Blend: AUG-CC-PVTZ-RI
    Molecular point group: c1

    Geometry (in Angstrom), charge = 0, multiplicity = 1:

       Center              X                  Y                   Z               Mass
    ------------   -----------------  -----------------  -----------------  -----------------
         O           -2.904653002687    -0.480052756998     1.017329235381    15.994914619570
         O           -2.959910002687     0.512879243002    -1.039975764619    15.994914619570
         O           -0.304759002687    -3.432909756998     0.467651235381    15.994914619570
         O           -0.250762002687     3.445006243002    -0.476660764619    15.994914619570
         O           -1.892984002687    -2.483778756998    -0.748582764619    15.994914619570
         O           -1.832497002687     2.518909243002     0.767990235381    15.994914619570
         O            3.967964997313    -1.140780756998    -0.020524764619    15.994914619570
         O            3.990170997313     1.067302243002     0.046470235381    15.994914619570
         N           -0.835710002687    -2.465663756998    -0.099061764619    14.003074004430
         N           -0.788493002687     2.486385243002     0.097834235381    14.003074004430
         N            3.415183997313    -0.031006756998     0.010331235381    14.003074004430
         C           -0.856054002687     0.012561243002    -0.008349764619    12.000000000000
         C           -0.126047002687    -1.178775756998    -0.020197764619    12.000000000000
         C           -0.101088002687     1.188323243002     0.008650235381    12.000000000000
         C            1.738831097313    -0.013619456998     0.002233135381    12.000000000000
         C            1.262367997313    -1.228326756998    -0.000095764619    12.000000000000
         C            1.287096997313     1.211026243002     0.005267235381    12.000000000000
         C           -2.358331002687     0.052287243002    -0.092326764619    12.000000000000
         H            1.791734997313    -2.174397756998     0.007307235381     1.007825032230
         H            1.835003997313     2.146600243002     0.005911235381     1.007825032230
         H           -3.877588002687    -0.451305756998     0.890979235381     1.007825032230

  Basis Set: AUG-CC-PVTZ
    Blend: AUG-CC-PVTZ
  Basis Set: (AUG-CC-PVTZ AUX)
    Blend: AUG-CC-PVTZ-JKFIT
	 Reference Energy          =   -1029.0091096960468349 [Eh]
	 Singles Energy            =      -0.0000000000000000 [Eh]
	 Same-Spin Energy          =      -1.0525557663767324 [Eh]
	 Opposite-Spin Energy      =      -2.9540546019704590 [Eh]
	 Correlation Energy        =      -4.0066103683471912 [Eh]
	 Total Energy              =   -1033.0157200643939177 [Eh]

	 ================> DF-SCS-MP2 Energies <==================
	-----------------------------------------------------------
	 SCS Same-Spin Scale       =       0.3333333333333333 [-]
	 SCS Opposite-Spin Scale   =       1.2000000000000000 [-]
	 SCS Same-Spin Energy      =      -0.3508519221255775 [Eh]
	 SCS Opposite-Spin Energy  =      -3.5448655223645509 [Eh]
	 SCS Correlation Energy    =      -3.8957174444901281 [Eh]
	 SCS Total Energy          =   -1032.9048271405370087 [Eh]
	-----------------------------------------------------------

  Dipole Moment: [D]
     X:    -0.3442      Y:    -0.6146      Z:     1.1919     Total:     1.3845

*** Psi4 exiting successfully. Buy a developer a beer!
