                               Psi4 1.4a3.dev225

  ==> Input File <==

--------------------------------------------------------------------------
#psi4
#
memory 32 gb

molecule  {
0 1
  O       -2.9128620    -0.4781290     1.0138340
  O       -2.9681190     0.5148030    -1.0434710
  O       -0.3129680    -3.4309860     0.4641560
  O       -0.2589710     3.4469300    -0.4801560
  O       -1.9011930    -2.4818550    -0.7520780
  O       -1.8407060     2.5208330     0.7644950
  O        3.9597560    -1.1388570    -0.0240200
  O        3.9819620     1.0692260     0.0429750
  N       -0.8439190    -2.4637400    -0.1025570
  N       -0.7967020     2.4883090     0.0943390
  N        3.4069750    -0.0290830     0.0068360
  C       -0.9847790    -0.0683061    -0.0152653
  C       -0.1342560    -1.1768520    -0.0236930
  C       -0.1092970     1.1902470     0.0051550
  C        1.9306090    -0.0137700    -0.0002960
  C        1.2541590    -1.2264030    -0.0035910
  C        1.2788880     1.2129500     0.0017720
  C       -2.3665400     0.0542110    -0.0958220
  H        1.7835260    -2.1724740     0.0038120
  H        1.8267950     2.1485240     0.0024160
  H       -3.8857970    -0.4493820     0.8874840
units angstrom
no_reorient  #important for SAPT in psi4, default
symmetry c1  #important for SAPT in psi4, default
}

set PROPERTIES_ORIGIN ["COM"]
properties('MP2/aug-cc-pvtz', properties = ['dipole'])
--------------------------------------------------------------------------

    Molecular point group: c1
  Charge       = 0
  Multiplicity = 1
  Basis Set: AUG-CC-PVTZ
    Blend: AUG-CC-PVTZ
  Basis Set: (AUG-CC-PVTZ AUX)
    Blend: AUG-CC-PVTZ-JKFIT

    Orbital Energies [Eh]
    ---------------------

    Doubly Occupied:

       1A    -20.657175     2A    -20.652445     3A    -20.651924
       4A    -20.651447     5A    -20.651403     6A    -20.647994
       7A    -20.647938     8A    -20.598724     9A    -15.903166
      10A    -15.899568    11A    -15.898299    12A    -11.446804
      13A    -11.397629    14A    -11.392887    15A    -11.386663
      16A    -11.383188    17A    -11.358907    18A    -11.355034
      19A     -1.636302    20A     -1.635928    21A     -1.631646
      22A     -1.511220    23A     -1.436212    24A     -1.435942
      25A     -1.432317    26A     -1.408494    27A     -1.283290
      28A     -1.190635    29A     -1.173806    30A     -1.075497
      31A     -1.033937    32A     -1.028466    33A     -0.934781
      34A     -0.876405    35A     -0.870698    36A     -0.837337
      37A     -0.804069    38A     -0.791854    39A     -0.787830
      40A     -0.773519    41A     -0.765621    42A     -0.761533
      43A     -0.757406    44A     -0.754119    45A     -0.747176
      46A     -0.742309    47A     -0.714642    48A     -0.694701
      49A     -0.668497    50A     -0.645592    51A     -0.631546
      52A     -0.602313    53A     -0.554849    54A     -0.548838
      55A     -0.544566    56A     -0.540597    57A     -0.535659
      58A     -0.532113    59A     -0.521417    60A     -0.516337
      61A     -0.495000    62A     -0.492097    63A     -0.485820
      64A     -0.452747    65A     -0.433536

  @DF-RHF Final Energy: -1029.01870460850319

   => Energetics <=

    Nuclear Repulsion Energy =           1345.5242783341006998
    One-Electron Energy =               -4082.4651399876588584
    Two-Electron Energy =                1707.9221570450552008
    Total Energy =                      -1029.0187046085031852
  Basis Set: (AUG-CC-PVTZ AUX)
    Blend: AUG-CC-PVTZ-RI
    Molecular point group: c1

    Geometry (in Angstrom), charge = 0, multiplicity = 1:

       Center              X                  Y                   Z               Mass
    ------------   -----------------  -----------------  -----------------  -----------------
         O           -2.908363821498    -0.476090047091     1.017443831938    15.994914619570
         O           -2.963620821498     0.516841952909    -1.039861168062    15.994914619570
         O           -0.308469821498    -3.428947047091     0.467765831938    15.994914619570
         O           -0.254472821498     3.448968952909    -0.476546168062    15.994914619570
         O           -1.896694821498    -2.479816047091    -0.748468168062    15.994914619570
         O           -1.836207821498     2.522871952909     0.768104831938    15.994914619570
         O            3.964254178502    -1.136818047091    -0.020410168062    15.994914619570
         O            3.986460178502     1.071264952909     0.046584831938    15.994914619570
         N           -0.839420821498    -2.461701047091    -0.098947168062    14.003074004430
         N           -0.792203821498     2.490347952909     0.097948831938    14.003074004430
         N            3.411473178502    -0.027044047091     0.010445831938    14.003074004430
         C           -0.980280821498    -0.066267147091    -0.011655468062    12.000000000000
         C           -0.129757821498    -1.174813047091    -0.020083168062    12.000000000000
         C           -0.104798821498     1.192285952909     0.008764831938    12.000000000000
         C            1.935107178502    -0.011731047091     0.003313831938    12.000000000000
         C            1.258657178502    -1.224364047091     0.000018831938    12.000000000000
         C            1.283386178502     1.214988952909     0.005381831938    12.000000000000
         C           -2.362041821498     0.056249952909    -0.092212168062    12.000000000000
         H            1.788024178502    -2.170435047091     0.007421831938     1.007825032230
         H            1.831293178502     2.150562952909     0.006025831938     1.007825032230
         H           -3.881298821498    -0.447343047091     0.891093831938     1.007825032230

  Basis Set: AUG-CC-PVTZ
    Blend: AUG-CC-PVTZ
  Basis Set: (AUG-CC-PVTZ AUX)
    Blend: AUG-CC-PVTZ-JKFIT
	 Reference Energy          =   -1029.0187046085031852 [Eh]
	 Singles Energy            =      -0.0000000000000000 [Eh]
	 Same-Spin Energy          =      -1.0523628584194982 [Eh]
	 Opposite-Spin Energy      =      -2.9547319660206428 [Eh]
	 Correlation Energy        =      -4.0070948244401414 [Eh]
	 Total Energy              =   -1033.0257994329433586 [Eh]

	 ================> DF-SCS-MP2 Energies <==================
	-----------------------------------------------------------
	 SCS Same-Spin Scale       =       0.3333333333333333 [-]
	 SCS Opposite-Spin Scale   =       1.2000000000000000 [-]
	 SCS Same-Spin Energy      =      -0.3507876194731661 [Eh]
	 SCS Opposite-Spin Energy  =      -3.5456783592247714 [Eh]
	 SCS Correlation Energy    =      -3.8964659786979374 [Eh]
	 SCS Total Energy          =   -1032.9151705872011462 [Eh]
	-----------------------------------------------------------

  Dipole Moment: [D]
     X:     0.0296      Y:    -0.5767      Z:     1.1664     Total:     1.3016

*** Psi4 exiting successfully. Buy a developer a beer!
