                               Psi4 1.4a3.dev225

  ==> Input File <==

--------------------------------------------------------------------------
#psi4
#
memory 32 gb

molecule  {
0 1
  O       -2.9128620    -0.4781290     1.0138340
  O       -2.9681190     0.5148030    -1.0434710
  O       -0.3129680    -3.4309860     0.4641560
  O       -0.2589710     3.4469300    -0.4801560
  O       -1.9011930    -2.4818550    -0.7520780
  O       -1.8407060     2.5208330     0.7644950
  O        3.9597560    -1.1388570    -0.0240200
  O        3.9819620     1.0692260     0.0429750
  N       -0.8439190    -2.4637400    -0.1025570
  N       -0.7125768     2.4856882     0.0403382
  N        3.4069750    -0.0290830     0.0068360
  C       -0.8642630     0.0144850    -0.0118450
  C       -0.1342560    -1.1768520    -0.0236930
  C       -0.1092970     1.1902470     0.0051550
  C        1.9306090    -0.0137700    -0.0002960
  C        1.2541590    -1.2264030    -0.0035910
  C        1.2788880     1.2129500     0.0017720
  C       -2.3665400     0.0542110    -0.0958220
  H        1.7835260    -2.1724740     0.0038120
  H        1.8267950     2.1485240     0.0024160
  H       -3.8857970    -0.4493820     0.8874840
units angstrom
no_reorient  #important for SAPT in psi4, default
symmetry c1  #important for SAPT in psi4, default
}

set PROPERTIES_ORIGIN ["COM"]
properties('MP2/aug-cc-pvtz', properties = ['dipole'])
--------------------------------------------------------------------------

    Molecular point group: c1
  Charge       = 0
  Multiplicity = 1
  Basis Set: AUG-CC-PVTZ
    Blend: AUG-CC-PVTZ
  Basis Set: (AUG-CC-PVTZ AUX)
    Blend: AUG-CC-PVTZ-JKFIT

    Orbital Energies [Eh]
    ---------------------

    Doubly Occupied:

       1A    -20.681678     2A    -20.654019     3A    -20.653367
       4A    -20.653208     5A    -20.652202     6A    -20.652141
       7A    -20.614939     8A    -20.591694     9A    -15.903586
      10A    -15.903497    11A    -15.895041    12A    -11.449757
      13A    -11.388255    14A    -11.385637    15A    -11.381676
      16A    -11.379239    17A    -11.358592    18A    -11.357891
      19A     -1.649555    20A     -1.637287    21A     -1.636312
      22A     -1.502419    23A     -1.437294    24A     -1.436333
      25A     -1.402839    26A     -1.392458    27A     -1.293090
      28A     -1.191494    29A     -1.185589    30A     -1.064180
      31A     -1.039745    32A     -1.030910    33A     -0.923890
      34A     -0.886073    35A     -0.872695    36A     -0.839539
      37A     -0.805789    38A     -0.792762    39A     -0.791853
      40A     -0.777644    41A     -0.766209    42A     -0.762091
      43A     -0.757907    44A     -0.754803    45A     -0.744595
      46A     -0.738417    47A     -0.715313    48A     -0.691753
      49A     -0.665120    50A     -0.647436    51A     -0.627654
      52A     -0.609122    53A     -0.556788    54A     -0.548423
      55A     -0.544883    56A     -0.539180    57A     -0.537785
      58A     -0.525978    59A     -0.515646    60A     -0.505488
      61A     -0.495553    62A     -0.492404    63A     -0.476750
      64A     -0.449609    65A     -0.445572

  @DF-RHF Final Energy: -1029.03258897684213

   => Energetics <=

    Nuclear Repulsion Energy =           1346.0390842555816562
    One-Electron Energy =               -4083.6220559472862988
    Two-Electron Energy =                1708.5503827148625078
    Total Energy =                      -1029.0325889768421348
  Basis Set: (AUG-CC-PVTZ AUX)
    Blend: AUG-CC-PVTZ-RI
    Molecular point group: c1

    Geometry (in Angstrom), charge = 0, multiplicity = 1:

       Center              X                  Y                   Z               Mass
    ------------   -----------------  -----------------  -----------------  -----------------
         O           -2.918575046974    -0.479813096413     1.020226539413    15.994914619570
         O           -2.973832046974     0.513118903587    -1.037078460587    15.994914619570
         O           -0.318681046974    -3.432670096413     0.470548539413    15.994914619570
         O           -0.264684046974     3.445245903587    -0.473763460587    15.994914619570
         O           -1.906906046974    -2.483539096413    -0.745685460587    15.994914619570
         O           -1.846419046974     2.519148903587     0.770887539413    15.994914619570
         O            3.954042953026    -1.140541096413    -0.017627460587    15.994914619570
         O            3.976248953026     1.067541903587     0.049367539413    15.994914619570
         N           -0.849632046974    -2.465424096413    -0.096164460587    14.003074004430
         N           -0.718289846974     2.484004103587     0.046730739413    14.003074004430
         N            3.401261953026    -0.030767096413     0.013228539413    14.003074004430
         C           -0.869976046974     0.012800903587    -0.005452460587    12.000000000000
         C           -0.139969046974    -1.178536096413    -0.017300460587    12.000000000000
         C           -0.115010046974     1.188562903587     0.011547539413    12.000000000000
         C            1.924895953026    -0.015454096413     0.006096539413    12.000000000000
         C            1.248445953026    -1.228087096413     0.002801539413    12.000000000000
         C            1.273174953026     1.211265903587     0.008164539413    12.000000000000
         C           -2.372253046974     0.052526903587    -0.089429460587    12.000000000000
         H            1.777812953026    -2.174158096413     0.010204539413     1.007825032230
         H            1.821081953026     2.146839903587     0.008808539413     1.007825032230
         H           -3.891510046974    -0.451066096413     0.893876539413     1.007825032230

  Basis Set: AUG-CC-PVTZ
    Blend: AUG-CC-PVTZ
  Basis Set: (AUG-CC-PVTZ AUX)
    Blend: AUG-CC-PVTZ-JKFIT
	 Reference Energy          =   -1029.0325889768421348 [Eh]
	 Singles Energy            =      -0.0000000000000000 [Eh]
	 Same-Spin Energy          =      -1.0499223840094782 [Eh]
	 Opposite-Spin Energy      =      -2.9505505470334348 [Eh]
	 Correlation Energy        =      -4.0004729310429132 [Eh]
	 Total Energy              =   -1033.0330619078849850 [Eh]

	 ================> DF-SCS-MP2 Energies <==================
	-----------------------------------------------------------
	 SCS Same-Spin Scale       =       0.3333333333333333 [-]
	 SCS Opposite-Spin Scale   =       1.2000000000000000 [-]
	 SCS Same-Spin Energy      =      -0.3499741280031594 [Eh]
	 SCS Opposite-Spin Energy  =      -3.5406606564401217 [Eh]
	 SCS Correlation Energy    =      -3.8906347844432809 [Eh]
	 SCS Total Energy          =   -1032.9232237612854988 [Eh]
	-----------------------------------------------------------

  Dipole Moment: [D]
     X:     0.2399      Y:    -0.7106      Z:     0.9348     Total:     1.1985

*** Psi4 exiting successfully. Buy a developer a beer!
