                               Psi4 1.4a3.dev225

  ==> Input File <==

--------------------------------------------------------------------------
#psi4
#
memory 32 gb

molecule  {
0 1
  O       -2.9128620    -0.4781290     1.0138340
  O       -2.9681190     0.5148030    -1.0434710
  O       -0.3129680    -3.4309860     0.4641560
  O       -0.2589710     3.4469300    -0.4801560
  O       -1.9011930    -2.4818550    -0.7520780
  O       -1.8407060     2.5208330     0.7644950
  O        3.9597560    -1.1388570    -0.0240200
  O        4.0936769     1.0031156     0.0415524
  N       -0.8439190    -2.4637400    -0.1025570
  N       -0.7967020     2.4883090     0.0943390
  N        3.4069750    -0.0290830     0.0068360
  C       -0.8642630     0.0144850    -0.0118450
  C       -0.1342560    -1.1768520    -0.0236930
  C       -0.1092970     1.1902470     0.0051550
  C        1.9306090    -0.0137700    -0.0002960
  C        1.2541590    -1.2264030    -0.0035910
  C        1.2788880     1.2129500     0.0017720
  C       -2.3665400     0.0542110    -0.0958220
  H        1.7835260    -2.1724740     0.0038120
  H        1.8267950     2.1485240     0.0024160
  H       -3.8857970    -0.4493820     0.8874840
units angstrom
no_reorient  #important for SAPT in psi4, default
symmetry c1  #important for SAPT in psi4, default
}

set PROPERTIES_ORIGIN ["COM"]
properties('MP2/aug-cc-pvtz', properties = ['dipole'])
--------------------------------------------------------------------------

    Molecular point group: c1
  Charge       = 0
  Multiplicity = 1
  Basis Set: AUG-CC-PVTZ
    Blend: AUG-CC-PVTZ
  Basis Set: (AUG-CC-PVTZ AUX)
    Blend: AUG-CC-PVTZ-JKFIT

    Orbital Energies [Eh]
    ---------------------

    Doubly Occupied:

       1A    -20.659095     2A    -20.654252     3A    -20.654029
       4A    -20.651803     5A    -20.651639     6A    -20.645075
       7A    -20.641587     8A    -20.597611     9A    -15.904391
      10A    -15.901768    11A    -15.897902    12A    -11.454236
      13A    -11.388976    14A    -11.387836    15A    -11.385369
      16A    -11.378475    17A    -11.359184    18A    -11.359066
      19A     -1.638142    20A     -1.635332    21A     -1.633747
      22A     -1.507672    23A     -1.438179    24A     -1.435844
      25A     -1.420492    26A     -1.407237    27A     -1.293491
      28A     -1.188743    29A     -1.183572    30A     -1.059013
      31A     -1.038807    32A     -1.030528    33A     -0.925062
      34A     -0.885812    35A     -0.871495    36A     -0.834904
      37A     -0.804476    38A     -0.790588    39A     -0.789596
      40A     -0.779377    41A     -0.767173    42A     -0.764745
      43A     -0.753197    44A     -0.750330    45A     -0.746451
      46A     -0.742974    47A     -0.716700    48A     -0.694072
      49A     -0.669309    50A     -0.648637    51A     -0.631695
      52A     -0.610745    53A     -0.557674    54A     -0.551467
      55A     -0.545012    56A     -0.539257    57A     -0.537304
      58A     -0.527040    59A     -0.523880    60A     -0.510849
      61A     -0.493580    62A     -0.488428    63A     -0.485544
      64A     -0.450714    65A     -0.448046

  @DF-RHF Final Energy: -1029.04636744405593

   => Energetics <=

    Nuclear Repulsion Energy =           1344.2831357495219891
    One-Electron Energy =               -4080.0205500875513280
    Two-Electron Energy =                1706.6910468939734074
    Total Energy =                      -1029.0463674440559316
  Basis Set: (AUG-CC-PVTZ AUX)
    Blend: AUG-CC-PVTZ-RI
    Molecular point group: c1

    Geometry (in Angstrom), charge = 0, multiplicity = 1:

       Center              X                  Y                   Z               Mass
    ------------   -----------------  -----------------  -----------------  -----------------
         O           -2.920944221317    -0.475841257246     1.017372665390    15.994914619570
         O           -2.976201221317     0.517090742754    -1.039932334610    15.994914619570
         O           -0.321050221317    -3.428698257246     0.467694665390    15.994914619570
         O           -0.267053221317     3.449217742754    -0.476617334610    15.994914619570
         O           -1.909275221317    -2.479567257246    -0.748539334610    15.994914619570
         O           -1.848788221317     2.523120742754     0.768033665390    15.994914619570
         O            3.951673778683    -1.136569257246    -0.020481334610    15.994914619570
         O            4.085594678683     1.005403342754     0.045091065390    15.994914619570
         N           -0.852001221317    -2.461452257246    -0.099018334610    14.003074004430
         N           -0.804784221317     2.490596742754     0.097877665390    14.003074004430
         N            3.398892778683    -0.026795257246     0.010374665390    14.003074004430
         C           -0.872345221317     0.016772742754    -0.008306334610    12.000000000000
         C           -0.142338221317    -1.174564257246    -0.020154334610    12.000000000000
         C           -0.117379221317     1.192534742754     0.008693665390    12.000000000000
         C            1.922526778683    -0.011482257246     0.003242665390    12.000000000000
         C            1.246076778683    -1.224115257246    -0.000052334610    12.000000000000
         C            1.270805778683     1.215237742754     0.005310665390    12.000000000000
         C           -2.374622221317     0.056498742754    -0.092283334610    12.000000000000
         H            1.775443778683    -2.170186257246     0.007350665390     1.007825032230
         H            1.818712778683     2.150811742754     0.005954665390     1.007825032230
         H           -3.893879221317    -0.447094257246     0.891022665390     1.007825032230

  Basis Set: AUG-CC-PVTZ
    Blend: AUG-CC-PVTZ
  Basis Set: (AUG-CC-PVTZ AUX)
    Blend: AUG-CC-PVTZ-JKFIT
	 Reference Energy          =   -1029.0463674440559316 [Eh]
	 Singles Energy            =      -0.0000000000000000 [Eh]
	 Same-Spin Energy          =      -1.0496391081752423 [Eh]
	 Opposite-Spin Energy      =      -2.9500477245882761 [Eh]
	 Correlation Energy        =      -3.9996868327635182 [Eh]
	 Total Energy              =   -1033.0460542768194045 [Eh]

	 ================> DF-SCS-MP2 Energies <==================
	-----------------------------------------------------------
	 SCS Same-Spin Scale       =       0.3333333333333333 [-]
	 SCS Opposite-Spin Scale   =       1.2000000000000000 [-]
	 SCS Same-Spin Energy      =      -0.3498797027250807 [Eh]
	 SCS Opposite-Spin Energy  =      -3.5400572695059314 [Eh]
	 SCS Correlation Energy    =      -3.8899369722310122 [Eh]
	 SCS Total Energy          =   -1032.9363044162869301 [Eh]
	-----------------------------------------------------------

  Dipole Moment: [D]
     X:    -0.4975      Y:    -0.5583      Z:     1.1916     Total:     1.4068

*** Psi4 exiting successfully. Buy a developer a beer!
