                               Psi4 1.4a3.dev225

  ==> Input File <==

--------------------------------------------------------------------------
#psi4
#
memory 32 gb

molecule  {
0 1
  O       -2.9128620    -0.4781290     1.0138340
  O       -2.9681190     0.5148030    -1.0434710
  O       -0.3129680    -3.4309860     0.4641560
  O       -0.2589710     3.4469300    -0.4801560
  O       -1.9011930    -2.4818550    -0.7520780
  O       -1.8407060     2.5208330     0.7644950
  O        3.9597560    -1.1388570    -0.0240200
  O        3.9819620     1.0692260     0.0429750
  N       -0.8609583    -2.4640319    -0.1130249
  N       -0.7967020     2.4883090     0.0943390
  N        3.4069750    -0.0290830     0.0068360
  C       -0.8642630     0.0144850    -0.0118450
  C       -0.1342560    -1.1768520    -0.0236930
  C       -0.1092970     1.1902470     0.0051550
  C        1.9306090    -0.0137700    -0.0002960
  C        1.2541590    -1.2264030    -0.0035910
  C        1.2788880     1.2129500     0.0017720
  C       -2.3665400     0.0542110    -0.0958220
  H        1.7835260    -2.1724740     0.0038120
  H        1.8267950     2.1485240     0.0024160
  H       -3.8857970    -0.4493820     0.8874840
units angstrom
no_reorient  #important for SAPT in psi4, default
symmetry c1  #important for SAPT in psi4, default
}

set PROPERTIES_ORIGIN ["COM"]
properties('MP2/aug-cc-pvtz', properties = ['dipole'])
--------------------------------------------------------------------------

    Molecular point group: c1
  Charge       = 0
  Multiplicity = 1
  Basis Set: AUG-CC-PVTZ
    Blend: AUG-CC-PVTZ
  Basis Set: (AUG-CC-PVTZ AUX)
    Blend: AUG-CC-PVTZ-JKFIT

    Orbital Energies [Eh]
    ---------------------

    Doubly Occupied:

       1A    -20.659694     2A    -20.658680     3A    -20.650348
       4A    -20.650280     5A    -20.650067     6A    -20.649905
       7A    -20.646275     8A    -20.596866     9A    -15.903187
      10A    -15.901735    11A    -15.899952    12A    -11.453197
      13A    -11.386552    14A    -11.385102    15A    -11.379928
      16A    -11.375306    17A    -11.355494    18A    -11.355137
      19A     -1.641468    20A     -1.634505    21A     -1.633561
      22A     -1.507090    23A     -1.439489    24A     -1.434481
      25A     -1.434128    26A     -1.406616    27A     -1.289806
      28A     -1.183939    29A     -1.179547    30A     -1.055295
      31A     -1.034756    32A     -1.027534    33A     -0.924449
      34A     -0.884189    35A     -0.871015    36A     -0.837429
      37A     -0.802568    38A     -0.790755    39A     -0.787892
      40A     -0.778052    41A     -0.767094    42A     -0.763554
      43A     -0.757336    44A     -0.753694    45A     -0.746496
      46A     -0.742695    47A     -0.716348    48A     -0.691507
      49A     -0.668247    50A     -0.646223    51A     -0.630480
      52A     -0.608437    53A     -0.555722    54A     -0.549370
      55A     -0.544687    56A     -0.540193    57A     -0.535714
      58A     -0.533307    59A     -0.522865    60A     -0.509913
      61A     -0.493838    62A     -0.493381    63A     -0.486993
      64A     -0.447516    65A     -0.445425

  @DF-RHF Final Energy: -1029.04997021610484

   => Energetics <=

    Nuclear Repulsion Energy =           1345.8054535557050713
    One-Electron Energy =               -4083.1362385834627275
    Two-Electron Energy =                1708.2808148116530447
    Total Energy =                      -1029.0499702161048390
  Basis Set: (AUG-CC-PVTZ AUX)
    Blend: AUG-CC-PVTZ-RI
    Molecular point group: c1

    Geometry (in Angstrom), charge = 0, multiplicity = 1:

       Center              X                  Y                   Z               Mass
    ------------   -----------------  -----------------  -----------------  -----------------
         O           -2.913062759033    -0.479939994360     1.017854502980    15.994914619570
         O           -2.968319759033     0.512992005640    -1.039450497020    15.994914619570
         O           -0.313168759033    -3.432796994360     0.468176502980    15.994914619570
         O           -0.259171759033     3.445119005640    -0.476135497020    15.994914619570
         O           -1.901393759033    -2.483665994360    -0.748057497020    15.994914619570
         O           -1.840906759033     2.519022005640     0.768515502980    15.994914619570
         O            3.959555240967    -1.140667994360    -0.019999497020    15.994914619570
         O            3.981761240967     1.067415005640     0.046995502980    15.994914619570
         N           -0.861159059033    -2.465842894360    -0.109004397020    14.003074004430
         N           -0.796902759033     2.486498005640     0.098359502980    14.003074004430
         N            3.406774240967    -0.030893994360     0.010856502980    14.003074004430
         C           -0.864463759033     0.012674005640    -0.007824497020    12.000000000000
         C           -0.134456759033    -1.178662994360    -0.019672497020    12.000000000000
         C           -0.109497759033     1.188436005640     0.009175502980    12.000000000000
         C            1.930408240967    -0.015580994360     0.003724502980    12.000000000000
         C            1.253958240967    -1.228213994360     0.000429502980    12.000000000000
         C            1.278687240967     1.211139005640     0.005792502980    12.000000000000
         C           -2.366740759033     0.052400005640    -0.091801497020    12.000000000000
         H            1.783325240967    -2.174284994360     0.007832502980     1.007825032230
         H            1.826594240967     2.146713005640     0.006436502980     1.007825032230
         H           -3.885997759033    -0.451192994360     0.891504502980     1.007825032230

  Basis Set: AUG-CC-PVTZ
    Blend: AUG-CC-PVTZ
  Basis Set: (AUG-CC-PVTZ AUX)
    Blend: AUG-CC-PVTZ-JKFIT
	 Reference Energy          =   -1029.0499702161048390 [Eh]
	 Singles Energy            =      -0.0000000000000000 [Eh]
	 Same-Spin Energy          =      -1.0496826471766079 [Eh]
	 Opposite-Spin Energy      =      -2.9496092898204793 [Eh]
	 Correlation Energy        =      -3.9992919369970874 [Eh]
	 Total Energy              =   -1033.0492621531018358 [Eh]

	 ================> DF-SCS-MP2 Energies <==================
	-----------------------------------------------------------
	 SCS Same-Spin Scale       =       0.3333333333333333 [-]
	 SCS Opposite-Spin Scale   =       1.2000000000000000 [-]
	 SCS Same-Spin Energy      =      -0.3498942157255359 [Eh]
	 SCS Opposite-Spin Energy  =      -3.5395311477845750 [Eh]
	 SCS Correlation Energy    =      -3.8894253635101110 [Eh]
	 SCS Total Energy          =   -1032.9393955796149385 [Eh]
	-----------------------------------------------------------

  Dipole Moment: [D]
     X:    -0.2095      Y:    -0.6283      Z:     1.1430     Total:     1.3210

*** Psi4 exiting successfully. Buy a developer a beer!
