                               Psi4 1.4a3.dev225

  ==> Input File <==

--------------------------------------------------------------------------
#psi4
#
memory 32 gb

molecule  {
0 1
  O       -2.9128620    -0.4781290     1.0138340
  O       -2.9681190     0.5148030    -1.0434710
  O       -0.3129680    -3.4309860     0.4641560
  O       -0.2589710     3.4469300    -0.4801560
  O       -1.9011930    -2.4818550    -0.7520780
  O       -1.8407060     2.5208330     0.7644950
  O        3.9597560    -1.1388570    -0.0240200
  O        3.9819620     1.0692260     0.0429750
  N       -0.8439190    -2.4637400    -0.1025570
  N       -0.7967020     2.4883090     0.0943390
  N        3.4069750    -0.0290830     0.0068360
  C       -0.8642630     0.0144850    -0.0118450
  C       -0.1342560    -1.1768520    -0.0236930
  C       -0.1092970     1.1902470     0.0051550
  C        1.9306090    -0.0137700    -0.0002960
  C        1.2541590    -1.2264030    -0.0035910
  C        1.2588907     1.2126230     0.0018207
  C       -2.3665400     0.0542110    -0.0958220
  H        1.7835260    -2.1724740     0.0038120
  H        1.8267950     2.1485240     0.0024160
  H       -3.8857970    -0.4493820     0.8874840
units angstrom
no_reorient  #important for SAPT in psi4, default
symmetry c1  #important for SAPT in psi4, default
}

set PROPERTIES_ORIGIN ["COM"]
properties('MP2/aug-cc-pvtz', properties = ['dipole'])
--------------------------------------------------------------------------

    Molecular point group: c1
  Charge       = 0
  Multiplicity = 1
  Basis Set: AUG-CC-PVTZ
    Blend: AUG-CC-PVTZ
  Basis Set: (AUG-CC-PVTZ AUX)
    Blend: AUG-CC-PVTZ-JKFIT

    Orbital Energies [Eh]
    ---------------------

    Doubly Occupied:

       1A    -20.657811     2A    -20.652845     3A    -20.652574
       4A    -20.650883     5A    -20.650560     6A    -20.650283
       7A    -20.650182     8A    -20.596240     9A    -15.902857
      10A    -15.902491    11A    -15.900062    12A    -11.452768
      13A    -11.386616    14A    -11.383578    15A    -11.380656
      16A    -11.376289    17A    -11.355656    18A    -11.354619
      19A     -1.636715    20A     -1.634834    21A     -1.633821
      22A     -1.506351    23A     -1.436786    24A     -1.434821
      25A     -1.434351    26A     -1.405923    27A     -1.291483
      28A     -1.183483    29A     -1.182877    30A     -1.057331
      31A     -1.036255    32A     -1.027437    33A     -0.924294
      34A     -0.883620    35A     -0.871818    36A     -0.837267
      37A     -0.803061    38A     -0.790130    39A     -0.788820
      40A     -0.776929    41A     -0.766023    42A     -0.763242
      43A     -0.757401    44A     -0.753695    45A     -0.745689
      46A     -0.741368    47A     -0.716533    48A     -0.692409
      49A     -0.667277    50A     -0.643080    51A     -0.630166
      52A     -0.609140    53A     -0.555508    54A     -0.550044
      55A     -0.544179    56A     -0.540433    57A     -0.536319
      58A     -0.534566    59A     -0.522494    60A     -0.509371
      61A     -0.494024    62A     -0.492319    63A     -0.487004
      64A     -0.448625    65A     -0.445986

  @DF-RHF Final Energy: -1029.04902766271243

   => Energetics <=

    Nuclear Repulsion Energy =           1346.0686918477404106
    One-Electron Energy =               -4083.6709013089061955
    Two-Electron Energy =                1708.5531817984533518
    Total Energy =                      -1029.0490276627124331
  Basis Set: (AUG-CC-PVTZ AUX)
    Blend: AUG-CC-PVTZ-RI
    Molecular point group: c1

    Geometry (in Angstrom), charge = 0, multiplicity = 1:

       Center              X                  Y                   Z               Mass
    ------------   -----------------  -----------------  -----------------  -----------------
         O           -2.913057447502    -0.479940630556     1.017281850251    15.994914619570
         O           -2.968314447502     0.512991369444    -1.040023149749    15.994914619570
         O           -0.313163447502    -3.432797630556     0.467603850251    15.994914619570
         O           -0.259166447502     3.445118369444    -0.476708149749    15.994914619570
         O           -1.901388447502    -2.483666630556    -0.748630149749    15.994914619570
         O           -1.840901447502     2.519021369444     0.767942850251    15.994914619570
         O            3.959560552498    -1.140668630556    -0.020572149749    15.994914619570
         O            3.981766552498     1.067414369444     0.046422850251    15.994914619570
         N           -0.844114447502    -2.465551630556    -0.099109149749    14.003074004430
         N           -0.796897447502     2.486497369444     0.097786850251    14.003074004430
         N            3.406779552498    -0.030894630556     0.010283850251    14.003074004430
         C           -0.864458447502     0.012673369444    -0.008397149749    12.000000000000
         C           -0.134451447502    -1.178663630556    -0.020245149749    12.000000000000
         C           -0.109492447502     1.188435369444     0.008602850251    12.000000000000
         C            1.930413552498    -0.015581630556     0.003151850251    12.000000000000
         C            1.253963552498    -1.228214630556    -0.000143149749    12.000000000000
         C            1.258695252498     1.210811369444     0.005268550251    12.000000000000
         C           -2.366735447502     0.052399369444    -0.092374149749    12.000000000000
         H            1.783330552498    -2.174285630556     0.007259850251     1.007825032230
         H            1.826599552498     2.146712369444     0.005863850251     1.007825032230
         H           -3.885992447502    -0.451193630556     0.890931850251     1.007825032230

  Basis Set: AUG-CC-PVTZ
    Blend: AUG-CC-PVTZ
  Basis Set: (AUG-CC-PVTZ AUX)
    Blend: AUG-CC-PVTZ-JKFIT
	 Reference Energy          =   -1029.0490276627124331 [Eh]
	 Singles Energy            =      -0.0000000000000000 [Eh]
	 Same-Spin Energy          =      -1.0499947945097128 [Eh]
	 Opposite-Spin Energy      =      -2.9503265218452008 [Eh]
	 Correlation Energy        =      -4.0003213163549134 [Eh]
	 Total Energy              =   -1033.0493489790674175 [Eh]

	 ================> DF-SCS-MP2 Energies <==================
	-----------------------------------------------------------
	 SCS Same-Spin Scale       =       0.3333333333333333 [-]
	 SCS Opposite-Spin Scale   =       1.2000000000000000 [-]
	 SCS Same-Spin Energy      =      -0.3499982648365709 [Eh]
	 SCS Opposite-Spin Energy  =      -3.5403918262142411 [Eh]
	 SCS Correlation Energy    =      -3.8903900910508118 [Eh]
	 SCS Total Energy          =   -1032.9394177537633368 [Eh]
	-----------------------------------------------------------

  Dipole Moment: [D]
     X:    -0.1189      Y:    -0.6224      Z:     1.1891     Total:     1.3473

*** Psi4 exiting successfully. Buy a developer a beer!
