                               Psi4 1.4a3.dev225

  ==> Input File <==

--------------------------------------------------------------------------
#psi4
#
memory 32 gb

molecule  {
0 1
  O       -2.9128620    -0.4781290     1.0138340
  O       -2.9681190     0.5148030    -1.0434710
  O       -0.3129680    -3.4309860     0.4641560
  O       -0.2589710     3.4469300    -0.4801560
  O       -1.9011930    -2.4818550    -0.7520780
  O       -1.8407060     2.5208330     0.7644950
  O        3.9597560    -1.1388570    -0.0240200
  O        3.9819620     1.0692260     0.0429750
  N       -0.8439190    -2.4637400    -0.1025570
  N       -0.7967020     2.4883090     0.0943390
  N        3.4069750    -0.0290830     0.0068360
  C       -0.8642630     0.0144850    -0.0118450
  C       -0.1342560    -1.1768520    -0.0236930
  C       -0.1326536     1.2343524     0.0081853
  C        1.9306090    -0.0137700    -0.0002960
  C        1.2541590    -1.2264030    -0.0035910
  C        1.2788880     1.2129500     0.0017720
  C       -2.3665400     0.0542110    -0.0958220
  H        1.7835260    -2.1724740     0.0038120
  H        1.8267950     2.1485240     0.0024160
  H       -3.8857970    -0.4493820     0.8874840
units angstrom
no_reorient  #important for SAPT in psi4, default
symmetry c1  #important for SAPT in psi4, default
}

set PROPERTIES_ORIGIN ["COM"]
properties('MP2/aug-cc-pvtz', properties = ['dipole'])
--------------------------------------------------------------------------

    Molecular point group: c1
  Charge       = 0
  Multiplicity = 1
  Basis Set: AUG-CC-PVTZ
    Blend: AUG-CC-PVTZ
  Basis Set: (AUG-CC-PVTZ AUX)
    Blend: AUG-CC-PVTZ-JKFIT

    Orbital Energies [Eh]
    ---------------------

    Doubly Occupied:

       1A    -20.657236     2A    -20.652841     3A    -20.652581
       4A    -20.650568     5A    -20.650501     6A    -20.650360
       7A    -20.650272     8A    -20.595533     9A    -15.903145
      10A    -15.902293    11A    -15.901123    12A    -11.451492
      13A    -11.386398    14A    -11.386004    15A    -11.379959
      16A    -11.379400    17A    -11.359028    18A    -11.357814
      19A     -1.638922    20A     -1.636725    21A     -1.634767
      22A     -1.505776    23A     -1.436855    24A     -1.436239
      25A     -1.434741    26A     -1.405324    27A     -1.286824
      28A     -1.187474    29A     -1.182698    30A     -1.059435
      31A     -1.038591    32A     -1.029814    33A     -0.921911
      34A     -0.883545    35A     -0.870601    36A     -0.837376
      37A     -0.804265    38A     -0.793000    39A     -0.789934
      40A     -0.776189    41A     -0.767338    42A     -0.764837
      43A     -0.757524    44A     -0.753850    45A     -0.747900
      46A     -0.741487    47A     -0.714591    48A     -0.687617
      49A     -0.667439    50A     -0.644074    51A     -0.626848
      52A     -0.604494    53A     -0.556226    54A     -0.550451
      55A     -0.545666    56A     -0.540140    57A     -0.537791
      58A     -0.536091    59A     -0.522912    60A     -0.508447
      61A     -0.493954    62A     -0.492340    63A     -0.487710
      64A     -0.447178    65A     -0.442522

  @DF-RHF Final Energy: -1029.04674649112917

   => Energetics <=

    Nuclear Repulsion Energy =           1345.6108131777446033
    One-Electron Energy =               -4082.7211580356633931
    Two-Electron Energy =                1708.0635983667896198
    Total Energy =                      -1029.0467464911291700
  Basis Set: (AUG-CC-PVTZ AUX)
    Blend: AUG-CC-PVTZ-RI
    Molecular point group: c1

    Geometry (in Angstrom), charge = 0, multiplicity = 1:

       Center              X                  Y                   Z               Mass
    ------------   -----------------  -----------------  -----------------  -----------------
         O           -2.912900588153    -0.482015359617     1.017142627247    15.994914619570
         O           -2.968157588153     0.510916640383    -1.040162372753    15.994914619570
         O           -0.313006588153    -3.434872359617     0.467464627247    15.994914619570
         O           -0.259009588153     3.443043640383    -0.476847372753    15.994914619570
         O           -1.901231588153    -2.485741359617    -0.748769372753    15.994914619570
         O           -1.840744588153     2.516946640383     0.767803627247    15.994914619570
         O            3.959717411847    -1.142743359617    -0.020711372753    15.994914619570
         O            3.981923411847     1.065339640383     0.046283627247    15.994914619570
         N           -0.843957588153    -2.467626359617    -0.099248372753    14.003074004430
         N           -0.796740588153     2.484422640383     0.097647627247    14.003074004430
         N            3.406936411847    -0.032969359617     0.010144627247    14.003074004430
         C           -0.864301588153     0.010598640383    -0.008536372753    12.000000000000
         C           -0.134294588153    -1.180738359617    -0.020384372753    12.000000000000
         C           -0.132692188153     1.230466040383     0.011493927247    12.000000000000
         C            1.930570411847    -0.017656359617     0.003012627247    12.000000000000
         C            1.254120411847    -1.230289359617    -0.000282372753    12.000000000000
         C            1.278849411847     1.209063640383     0.005080627247    12.000000000000
         C           -2.366578588153     0.050324640383    -0.092513372753    12.000000000000
         H            1.783487411847    -2.176360359617     0.007120627247     1.007825032230
         H            1.826756411847     2.144637640383     0.005724627247     1.007825032230
         H           -3.885835588153    -0.453268359617     0.890792627247     1.007825032230

  Basis Set: AUG-CC-PVTZ
    Blend: AUG-CC-PVTZ
  Basis Set: (AUG-CC-PVTZ AUX)
    Blend: AUG-CC-PVTZ-JKFIT
	 Reference Energy          =   -1029.0467464911291700 [Eh]
	 Singles Energy            =      -0.0000000000000000 [Eh]
	 Same-Spin Energy          =      -1.0500164880122551 [Eh]
	 Opposite-Spin Energy      =      -2.9502237962530877 [Eh]
	 Correlation Energy        =      -4.0002402842653426 [Eh]
	 Total Energy              =   -1033.0469867753945437 [Eh]

	 ================> DF-SCS-MP2 Energies <==================
	-----------------------------------------------------------
	 SCS Same-Spin Scale       =       0.3333333333333333 [-]
	 SCS Opposite-Spin Scale   =       1.2000000000000000 [-]
	 SCS Same-Spin Energy      =      -0.3500054960040850 [Eh]
	 SCS Opposite-Spin Energy  =      -3.5402685555037050 [Eh]
	 SCS Correlation Energy    =      -3.8902740515077898 [Eh]
	 SCS Total Energy          =   -1032.9370205426369012 [Eh]
	-----------------------------------------------------------

  Dipole Moment: [D]
     X:    -0.1337      Y:    -0.5948      Z:     1.1936     Total:     1.3402

*** Psi4 exiting successfully. Buy a developer a beer!
