                               Psi4 1.4a3.dev225

  ==> Input File <==

--------------------------------------------------------------------------
#psi4
#
memory 32 gb

molecule  {
0 1
  O       -2.9128620    -0.4781290     1.0138340
  O       -2.9681190     0.5148030    -1.0434710
  O       -0.3129680    -3.4309860     0.4641560
  O       -0.2589710     3.4469300    -0.4801560
  O       -1.9011930    -2.4818550    -0.7520780
  O       -1.8407060     2.5208330     0.7644950
  O        3.9597560    -1.1388570    -0.0240200
  O        3.9819620     1.0692260     0.0429750
  N       -0.8439190    -2.4637400    -0.1025570
  N       -0.7967020     2.4883090     0.0943390
  N        3.4069750    -0.0290830     0.0068360
  C       -0.8642630     0.0144850    -0.0118450
  C       -0.1342560    -1.1768520    -0.0236930
  C       -0.2027233     1.3666687     0.0172761
  C        1.9306090    -0.0137700    -0.0002960
  C        1.2541590    -1.2264030    -0.0035910
  C        1.2788880     1.2129500     0.0017720
  C       -2.3665400     0.0542110    -0.0958220
  H        1.7835260    -2.1724740     0.0038120
  H        1.8267950     2.1485240     0.0024160
  H       -3.8857970    -0.4493820     0.8874840
units angstrom
no_reorient  #important for SAPT in psi4, default
symmetry c1  #important for SAPT in psi4, default
}

set PROPERTIES_ORIGIN ["COM"]
properties('MP2/aug-cc-pvtz', properties = ['dipole'])
--------------------------------------------------------------------------

    Molecular point group: c1
  Charge       = 0
  Multiplicity = 1
  Basis Set: AUG-CC-PVTZ
    Blend: AUG-CC-PVTZ
  Basis Set: (AUG-CC-PVTZ AUX)
    Blend: AUG-CC-PVTZ-JKFIT

    Orbital Energies [Eh]
    ---------------------

    Doubly Occupied:

       1A    -20.656330     2A    -20.654321     3A    -20.653881
       4A    -20.651794     5A    -20.651450     6A    -20.644293
       7A    -20.644135     8A    -20.594250     9A    -15.905374
      10A    -15.904397    11A    -15.893681    12A    -11.449228
      13A    -11.392789    14A    -11.387614    15A    -11.387468
      16A    -11.381312    17A    -11.372349    18A    -11.366351
      19A     -1.654441    20A     -1.638263    21A     -1.636080
      22A     -1.504841    23A     -1.438308    24A     -1.437617
      25A     -1.435979    26A     -1.404273    27A     -1.281519
      28A     -1.216887    29A     -1.182353    30A     -1.075981
      31A     -1.038946    32A     -1.029721    33A     -0.917496
      34A     -0.880692    35A     -0.869092    36A     -0.838045
      37A     -0.810487    38A     -0.804378    39A     -0.791138
      40A     -0.777421    41A     -0.770926    42A     -0.765841
      43A     -0.758647    44A     -0.755882    45A     -0.752692
      46A     -0.740972    47A     -0.712865    48A     -0.679083
      49A     -0.667737    50A     -0.639999    51A     -0.610452
      52A     -0.594656    53A     -0.557974    54A     -0.550903
      55A     -0.549527    56A     -0.541405    57A     -0.539394
      58A     -0.534664    59A     -0.523004    60A     -0.505992
      61A     -0.495102    62A     -0.493471    63A     -0.487156
      64A     -0.448040    65A     -0.430632

  @DF-RHF Final Energy: -1028.99667785784004

   => Energetics <=

    Nuclear Repulsion Energy =           1345.3308857277313564
    One-Electron Energy =               -4081.9311496065683968
    Two-Electron Energy =                1707.6035860209967723
    Total Energy =                      -1028.9966778578400408
  Basis Set: (AUG-CC-PVTZ AUX)
    Blend: AUG-CC-PVTZ-RI
    Molecular point group: c1

    Geometry (in Angstrom), charge = 0, multiplicity = 1:

       Center              X                  Y                   Z               Mass
    ------------   -----------------  -----------------  -----------------  -----------------
         O           -2.909628749520    -0.488193744598     1.016718140905    15.994914619570
         O           -2.964885749520     0.504738255402    -1.040586859095    15.994914619570
         O           -0.309734749520    -3.441050744598     0.467040140905    15.994914619570
         O           -0.255737749520     3.436865255402    -0.477271859095    15.994914619570
         O           -1.897959749520    -2.491919744598    -0.749193859095    15.994914619570
         O           -1.837472749520     2.510768255402     0.767379140905    15.994914619570
         O            3.962989250480    -1.148921744598    -0.021135859095    15.994914619570
         O            3.985195250480     1.059161255402     0.045859140905    15.994914619570
         N           -0.840685749520    -2.473804744598    -0.099672859095    14.003074004430
         N           -0.793468749520     2.478244255402     0.097223140905    14.003074004430
         N            3.410208250480    -0.039147744598     0.009720140905    14.003074004430
         C           -0.861029749520     0.004420255402    -0.008960859095    12.000000000000
         C           -0.131022749520    -1.186916744598    -0.020808859095    12.000000000000
         C           -0.199490049520     1.356603955402     0.020160240905    12.000000000000
         C            1.933842250480    -0.023834744598     0.002588140905    12.000000000000
         C            1.257392250480    -1.236467744598    -0.000706859095    12.000000000000
         C            1.282121250480     1.202885255402     0.004656140905    12.000000000000
         C           -2.363306749520     0.044146255402    -0.092937859095    12.000000000000
         H            1.786759250480    -2.182538744598     0.006696140905     1.007825032230
         H            1.830028250480     2.138459255402     0.005300140905     1.007825032230
         H           -3.882563749520    -0.459446744598     0.890368140905     1.007825032230

  Basis Set: AUG-CC-PVTZ
    Blend: AUG-CC-PVTZ
  Basis Set: (AUG-CC-PVTZ AUX)
    Blend: AUG-CC-PVTZ-JKFIT
	 Reference Energy          =   -1028.9966778578400408 [Eh]
	 Singles Energy            =      -0.0000000000000000 [Eh]
	 Same-Spin Energy          =      -1.0517837115028259 [Eh]
	 Opposite-Spin Energy      =      -2.9522387319482322 [Eh]
	 Correlation Energy        =      -4.0040224434510581 [Eh]
	 Total Energy              =   -1033.0007003012910900 [Eh]

	 ================> DF-SCS-MP2 Energies <==================
	-----------------------------------------------------------
	 SCS Same-Spin Scale       =       0.3333333333333333 [-]
	 SCS Opposite-Spin Scale   =       1.2000000000000000 [-]
	 SCS Same-Spin Energy      =      -0.3505945705009419 [Eh]
	 SCS Opposite-Spin Energy  =      -3.5426864783378784 [Eh]
	 SCS Correlation Energy    =      -3.8932810488388205 [Eh]
	 SCS Total Energy          =   -1032.8899589066788849 [Eh]
	-----------------------------------------------------------

  Dipole Moment: [D]
     X:    -0.1162      Y:    -0.5384      Z:     1.2029     Total:     1.3230

*** Psi4 exiting successfully. Buy a developer a beer!
