                               Psi4 1.4a3.dev225

  ==> Input File <==

--------------------------------------------------------------------------
#psi4
#
memory 32 gb

molecule  {
0 1
  O       -2.9128620    -0.4781290     1.0138340
  O       -2.9681190     0.5148030    -1.0434710
  O       -0.3129680    -3.4309860     0.4641560
  O       -0.2589710     3.4469300    -0.4801560
  O       -1.9011930    -2.4818550    -0.7520780
  O       -1.8407060     2.5208330     0.7644950
  O        3.9597560    -1.1388570    -0.0240200
  O        3.9819620     1.0692260     0.0429750
  N       -0.8439190    -2.4637400    -0.1025570
  N       -0.7967020     2.4883090     0.0943390
  N        3.4069750    -0.0290830     0.0068360
  C       -0.8642630     0.0144850    -0.0118450
  C       -0.1342560    -1.1768520    -0.0236930
  C       -0.1092970     1.1902470     0.0051550
  C        1.8806123    -0.0132514    -0.0005375
  C        1.2541590    -1.2264030    -0.0035910
  C        1.2788880     1.2129500     0.0017720
  C       -2.3665400     0.0542110    -0.0958220
  H        1.7835260    -2.1724740     0.0038120
  H        1.8267950     2.1485240     0.0024160
  H       -3.8857970    -0.4493820     0.8874840
units angstrom
no_reorient  #important for SAPT in psi4, default
symmetry c1  #important for SAPT in psi4, default
}

set PROPERTIES_ORIGIN ["COM"]
properties('MP2/aug-cc-pvtz', properties = ['dipole'])
--------------------------------------------------------------------------

    Molecular point group: c1
  Charge       = 0
  Multiplicity = 1
  Basis Set: AUG-CC-PVTZ
    Blend: AUG-CC-PVTZ
  Basis Set: (AUG-CC-PVTZ AUX)
    Blend: AUG-CC-PVTZ-JKFIT

    Orbital Energies [Eh]
    ---------------------

    Doubly Occupied:

       1A    -20.657384     2A    -20.653101     3A    -20.652870
       4A    -20.650505     5A    -20.650332     6A    -20.650219
       7A    -20.650152     8A    -20.595604     9A    -15.902848
      10A    -15.900130    11A    -15.899606    12A    -11.452185
      13A    -11.387414    14A    -11.386218    15A    -11.380274
      16A    -11.374261    17A    -11.353012    18A    -11.352749
      19A     -1.636920    20A     -1.633956    21A     -1.630062
      22A     -1.505872    23A     -1.437005    24A     -1.434507
      25A     -1.432575    26A     -1.405399    27A     -1.294919
      28A     -1.183196    29A     -1.181444    30A     -1.054148
      31A     -1.033404    32A     -1.027854    33A     -0.923091
      34A     -0.884369    35A     -0.871688    36A     -0.836171
      37A     -0.803931    38A     -0.789421    39A     -0.787904
      40A     -0.776477    41A     -0.765860    42A     -0.763498
      43A     -0.755425    44A     -0.749423    45A     -0.746045
      46A     -0.741443    47A     -0.717417    48A     -0.690139
      49A     -0.670556    50A     -0.653234    51A     -0.629570
      52A     -0.612916    53A     -0.554735    54A     -0.549972
      55A     -0.544164    56A     -0.540022    57A     -0.534817
      58A     -0.530169    59A     -0.522380    60A     -0.509182
      61A     -0.492930    62A     -0.492481    63A     -0.487126
      64A     -0.450517    65A     -0.447110

  @DF-RHF Final Energy: -1029.04626697640015

   => Energetics <=

    Nuclear Repulsion Energy =           1346.2672379992959577
    One-Electron Energy =               -4084.0983966284911730
    Two-Electron Energy =                1708.7848916527950678
    Total Energy =                      -1029.0462669764001475
  Basis Set: (AUG-CC-PVTZ AUX)
    Blend: AUG-CC-PVTZ-RI
    Molecular point group: c1

    Geometry (in Angstrom), charge = 0, multiplicity = 1:

       Center              X                  Y                   Z               Mass
    ------------   -----------------  -----------------  -----------------  -----------------
         O           -2.911656653780    -0.479980115052     1.017295400866    15.994914619570
         O           -2.966913653780     0.512951884948    -1.040009599134    15.994914619570
         O           -0.311762653780    -3.432837115052     0.467617400866    15.994914619570
         O           -0.257765653780     3.445078884948    -0.476694599134    15.994914619570
         O           -1.899987653780    -2.483706115052    -0.748616599134    15.994914619570
         O           -1.839500653780     2.518981884948     0.767956400866    15.994914619570
         O            3.960961346220    -1.140708115052    -0.020558599134    15.994914619570
         O            3.983167346220     1.067374884948     0.046436400866    15.994914619570
         N           -0.842713653780    -2.465591115052    -0.099095599134    14.003074004430
         N           -0.795496653780     2.486457884948     0.097800400866    14.003074004430
         N            3.408180346220    -0.030934115052     0.010297400866    14.003074004430
         C           -0.863057653780     0.012633884948    -0.008383599134    12.000000000000
         C           -0.133050653780    -1.178703115052    -0.020231599134    12.000000000000
         C           -0.108091653780     1.188395884948     0.008616400866    12.000000000000
         C            1.881817646220    -0.015102515052     0.002923900866    12.000000000000
         C            1.255364346220    -1.228254115052    -0.000129599134    12.000000000000
         C            1.280093346220     1.211098884948     0.005233400866    12.000000000000
         C           -2.365334653780     0.052359884948    -0.092360599134    12.000000000000
         H            1.784731346220    -2.174325115052     0.007273400866     1.007825032230
         H            1.828000346220     2.146672884948     0.005877400866     1.007825032230
         H           -3.884591653780    -0.451233115052     0.890945400866     1.007825032230

  Basis Set: AUG-CC-PVTZ
    Blend: AUG-CC-PVTZ
  Basis Set: (AUG-CC-PVTZ AUX)
    Blend: AUG-CC-PVTZ-JKFIT
	 Reference Energy          =   -1029.0462669764001475 [Eh]
	 Singles Energy            =      -0.0000000000000000 [Eh]
	 Same-Spin Energy          =      -1.0503173585561658 [Eh]
	 Opposite-Spin Energy      =      -2.9508032417682672 [Eh]
	 Correlation Energy        =      -4.0011206003244331 [Eh]
	 Total Energy              =   -1033.0473875767245318 [Eh]

	 ================> DF-SCS-MP2 Energies <==================
	-----------------------------------------------------------
	 SCS Same-Spin Scale       =       0.3333333333333333 [-]
	 SCS Opposite-Spin Scale   =       1.2000000000000000 [-]
	 SCS Same-Spin Energy      =      -0.3501057861853886 [Eh]
	 SCS Opposite-Spin Energy  =      -3.5409638901219207 [Eh]
	 SCS Correlation Energy    =      -3.8910696763073092 [Eh]
	 SCS Total Energy          =   -1032.9373366527074722 [Eh]
	-----------------------------------------------------------

  Dipole Moment: [D]
     X:    -0.1621      Y:    -0.6174      Z:     1.1910     Total:     1.3513

*** Psi4 exiting successfully. Buy a developer a beer!
