                               Psi4 1.4a3.dev225

  ==> Input File <==

--------------------------------------------------------------------------
#psi4
#
memory 32 gb

molecule  {
0 1
  O       -2.9128620    -0.4781290     1.0138340
  O       -2.9681190     0.5148030    -1.0434710
  O       -0.3129680    -3.4309860     0.4641560
  O       -0.2589710     3.4469300    -0.4801560
  O       -1.9011930    -2.4818550    -0.7520780
  O       -1.8407060     2.5208330     0.7644950
  O        3.9597560    -1.1388570    -0.0240200
  O        3.9819620     1.0692260     0.0429750
  N       -0.8439190    -2.4637400    -0.1025570
  N       -0.7967020     2.4883090     0.0943390
  N        3.4069750    -0.0290830     0.0068360
  C       -0.8642630     0.0144850    -0.0118450
  C       -0.1342560    -1.1768520    -0.0236930
  C       -0.1633241     1.1061067     0.0039384
  C        1.9306090    -0.0137700    -0.0002960
  C        1.2541590    -1.2264030    -0.0035910
  C        1.2788880     1.2129500     0.0017720
  C       -2.3665400     0.0542110    -0.0958220
  H        1.7835260    -2.1724740     0.0038120
  H        1.8267950     2.1485240     0.0024160
  H       -3.8857970    -0.4493820     0.8874840
units angstrom
no_reorient  #important for SAPT in psi4, default
symmetry c1  #important for SAPT in psi4, default
}

set PROPERTIES_ORIGIN ["COM"]
properties('MP2/aug-cc-pvtz', properties = ['dipole'])
--------------------------------------------------------------------------

    Molecular point group: c1
  Charge       = 0
  Multiplicity = 1
  Basis Set: AUG-CC-PVTZ
    Blend: AUG-CC-PVTZ
  Basis Set: (AUG-CC-PVTZ AUX)
    Blend: AUG-CC-PVTZ-JKFIT

    Orbital Energies [Eh]
    ---------------------

    Doubly Occupied:

       1A    -20.657552     2A    -20.652191     3A    -20.651563
       4A    -20.651373     5A    -20.651181     6A    -20.651100
       7A    -20.648703     8A    -20.595864     9A    -15.902375
      10A    -15.901856    11A    -15.898511    12A    -11.452500
      13A    -11.385832    14A    -11.385126    15A    -11.380938
      16A    -11.363358    17A    -11.361955    18A    -11.354508
      19A     -1.635784    20A     -1.635445    21A     -1.629195
      22A     -1.506190    23A     -1.435765    24A     -1.435573
      25A     -1.432483    26A     -1.405672    27A     -1.296596
      28A     -1.191387    29A     -1.173571    30A     -1.056325
      31A     -1.034376    32A     -1.018088    33A     -0.930919
      34A     -0.889990    35A     -0.867082    36A     -0.837011
      37A     -0.804308    38A     -0.789687    39A     -0.782771
      40A     -0.777228    41A     -0.765179    42A     -0.760871
      43A     -0.757571    44A     -0.753495    45A     -0.743949
      46A     -0.740349    47A     -0.717441    48A     -0.691974
      49A     -0.666811    50A     -0.651918    51A     -0.630080
      52A     -0.613239    53A     -0.554725    54A     -0.548886
      55A     -0.543905    56A     -0.540561    57A     -0.535917
      58A     -0.529603    59A     -0.520980    60A     -0.508803
      61A     -0.494634    62A     -0.491489    63A     -0.486406
      64A     -0.460824    65A     -0.438538

  @DF-RHF Final Energy: -1029.03547475104483

   => Energetics <=

    Nuclear Repulsion Energy =           1346.6662075647827805
    One-Electron Energy =               -4084.8832058094662898
    Two-Electron Energy =                1709.1815234936386787
    Total Energy =                      -1029.0354747510448306
  Basis Set: (AUG-CC-PVTZ AUX)
    Blend: AUG-CC-PVTZ-RI
    Molecular point group: c1

    Geometry (in Angstrom), charge = 0, multiplicity = 1:

       Center              X                  Y                   Z               Mass
    ------------   -----------------  -----------------  -----------------  -----------------
         O           -2.911468458048    -0.476027047468     1.017340932242    15.994914619570
         O           -2.966725458048     0.516904952532    -1.039964067758    15.994914619570
         O           -0.311574458048    -3.428884047468     0.467662932242    15.994914619570
         O           -0.257577458048     3.449031952532    -0.476649067758    15.994914619570
         O           -1.899799458048    -2.479753047468    -0.748571067758    15.994914619570
         O           -1.839312458048     2.522934952532     0.768001932242    15.994914619570
         O            3.961149541952    -1.136755047468    -0.020513067758    15.994914619570
         O            3.983355541952     1.071327952532     0.046481932242    15.994914619570
         N           -0.842525458048    -2.461638047468    -0.099050067758    14.003074004430
         N           -0.795308458048     2.490410952532     0.097845932242    14.003074004430
         N            3.408368541952    -0.026981047468     0.010342932242    14.003074004430
         C           -0.862869458048     0.016586952532    -0.008338067758    12.000000000000
         C           -0.132862458048    -1.174750047468    -0.020186067758    12.000000000000
         C           -0.161930558048     1.108208652532     0.007445332242    12.000000000000
         C            1.932002541952    -0.011668047468     0.003210932242    12.000000000000
         C            1.255552541952    -1.224301047468    -0.000084067758    12.000000000000
         C            1.280281541952     1.215051952532     0.005278932242    12.000000000000
         C           -2.365146458048     0.056312952532    -0.092315067758    12.000000000000
         H            1.784919541952    -2.170372047468     0.007318932242     1.007825032230
         H            1.828188541952     2.150625952532     0.005922932242     1.007825032230
         H           -3.884403458048    -0.447280047468     0.890990932242     1.007825032230

  Basis Set: AUG-CC-PVTZ
    Blend: AUG-CC-PVTZ
  Basis Set: (AUG-CC-PVTZ AUX)
    Blend: AUG-CC-PVTZ-JKFIT
	 Reference Energy          =   -1029.0354747510448306 [Eh]
	 Singles Energy            =      -0.0000000000000000 [Eh]
	 Same-Spin Energy          =      -1.0498181216406233 [Eh]
	 Opposite-Spin Energy      =      -2.9510527689299813 [Eh]
	 Correlation Energy        =      -4.0008708905706047 [Eh]
	 Total Energy              =   -1033.0363456416155259 [Eh]

	 ================> DF-SCS-MP2 Energies <==================
	-----------------------------------------------------------
	 SCS Same-Spin Scale       =       0.3333333333333333 [-]
	 SCS Opposite-Spin Scale   =       1.2000000000000000 [-]
	 SCS Same-Spin Energy      =      -0.3499393738802077 [Eh]
	 SCS Opposite-Spin Energy  =      -3.5412633227159773 [Eh]
	 SCS Correlation Energy    =      -3.8912026965961850 [Eh]
	 SCS Total Energy          =   -1032.9266774476409410 [Eh]
	-----------------------------------------------------------

  Dipole Moment: [D]
     X:    -0.1996      Y:    -0.6661      Z:     1.1678     Total:     1.3592

*** Psi4 exiting successfully. Buy a developer a beer!
