                               Psi4 1.4a3.dev225

  ==> Input File <==

--------------------------------------------------------------------------
#psi4
#
memory 32 gb

molecule  {
0 1
  O       -2.9128620    -0.4781290     1.0138340
  O       -2.9681190     0.5148030    -1.0434710
  O       -0.3129680    -3.4309860     0.4641560
  O       -0.2589710     3.4469300    -0.4801560
  O       -1.9011930    -2.4818550    -0.7520780
  O       -1.8407060     2.5208330     0.7644950
  O        3.9597560    -1.1388570    -0.0240200
  O        3.9819620     1.0692260     0.0429750
  N       -0.8439190    -2.4637400    -0.1025570
  N       -0.7967020     2.4883090     0.0943390
  N        3.4515466    -0.1185659     0.0043480
  C       -0.8642630     0.0144850    -0.0118450
  C       -0.1342560    -1.1768520    -0.0236930
  C       -0.1092970     1.1902470     0.0051550
  C        1.9306090    -0.0137700    -0.0002960
  C        1.2541590    -1.2264030    -0.0035910
  C        1.2788880     1.2129500     0.0017720
  C       -2.3665400     0.0542110    -0.0958220
  H        1.7835260    -2.1724740     0.0038120
  H        1.8267950     2.1485240     0.0024160
  H       -3.8857970    -0.4493820     0.8874840
units angstrom
no_reorient  #important for SAPT in psi4, default
symmetry c1  #important for SAPT in psi4, default
}

set PROPERTIES_ORIGIN ["COM"]
properties('MP2/aug-cc-pvtz', properties = ['dipole'])
--------------------------------------------------------------------------

    Molecular point group: c1
  Charge       = 0
  Multiplicity = 1
  Basis Set: AUG-CC-PVTZ
    Blend: AUG-CC-PVTZ
  Basis Set: (AUG-CC-PVTZ AUX)
    Blend: AUG-CC-PVTZ-JKFIT

    Orbital Energies [Eh]
    ---------------------

    Doubly Occupied:

       1A    -20.686200     2A    -20.656239     3A    -20.651959
       4A    -20.651866     5A    -20.648291     6A    -20.648075
       7A    -20.619347     8A    -20.594348     9A    -15.901914
      10A    -15.901866    11A    -15.898237    12A    -11.450848
      13A    -11.384952    14A    -11.383480    15A    -11.378836
      16A    -11.372913    17A    -11.352914    18A    -11.352753
      19A     -1.690167    20A     -1.635889    21A     -1.631763
      22A     -1.504674    23A     -1.436032    24A     -1.432312
      25A     -1.426909    26A     -1.404173    27A     -1.286813
      28A     -1.179604    29A     -1.174650    30A     -1.052557
      31A     -1.028893    32A     -1.022817    33A     -0.923639
      34A     -0.882270    35A     -0.874282    36A     -0.845358
      37A     -0.802488    38A     -0.791870    39A     -0.789089
      40A     -0.778643    41A     -0.776613    42A     -0.766965
      43A     -0.762462    44A     -0.760095    45A     -0.744614
      46A     -0.739959    47A     -0.715549    48A     -0.692110
      49A     -0.666424    50A     -0.644667    51A     -0.628619
      52A     -0.608288    53A     -0.555168    54A     -0.548634
      55A     -0.543845    56A     -0.539214    57A     -0.533436
      58A     -0.521149    59A     -0.517185    60A     -0.507838
      61A     -0.496486    62A     -0.491747    63A     -0.485007
      64A     -0.445212    65A     -0.443743

  @DF-RHF Final Energy: -1029.03918561622322

   => Energetics <=

    Nuclear Repulsion Energy =           1345.4807325774700075
    One-Electron Energy =               -4082.5099222393523632
    Two-Electron Energy =                1707.9900040456591341
    Total Energy =                      -1029.0391856162232216
  Basis Set: (AUG-CC-PVTZ AUX)
    Blend: AUG-CC-PVTZ-RI
    Molecular point group: c1

    Geometry (in Angstrom), charge = 0, multiplicity = 1:

       Center              X                  Y                   Z               Mass
    ------------   -----------------  -----------------  -----------------  -----------------
         O           -2.916419836082    -0.475080122827     1.017419691297    15.994914619570
         O           -2.971676836082     0.517851877173    -1.039885308703    15.994914619570
         O           -0.316525836082    -3.427937122827     0.467741691297    15.994914619570
         O           -0.262528836082     3.449978877173    -0.476570308703    15.994914619570
         O           -1.904750836082    -2.478806122827    -0.748492308703    15.994914619570
         O           -1.844263836082     2.523881877173     0.768080691297    15.994914619570
         O            3.956198163918    -1.135808122827    -0.020434308703    15.994914619570
         O            3.978404163918     1.072274877173     0.046560691297    15.994914619570
         N           -0.847476836082    -2.460691122827    -0.098971308703    14.003074004430
         N           -0.800259836082     2.491357877173     0.097924691297    14.003074004430
         N            3.447988763918    -0.115517022827     0.007933691297    14.003074004430
         C           -0.867820836082     0.017533877173    -0.008259308703    12.000000000000
         C           -0.137813836082    -1.173803122827    -0.020107308703    12.000000000000
         C           -0.112854836082     1.193295877173     0.008740691297    12.000000000000
         C            1.927051163918    -0.010721122827     0.003289691297    12.000000000000
         C            1.250601163918    -1.223354122827    -0.000005308703    12.000000000000
         C            1.275330163918     1.215998877173     0.005357691297    12.000000000000
         C           -2.370097836082     0.057259877173    -0.092236308703    12.000000000000
         H            1.779968163918    -2.169425122827     0.007397691297     1.007825032230
         H            1.823237163918     2.151572877173     0.006001691297     1.007825032230
         H           -3.889354836082    -0.446333122827     0.891069691297     1.007825032230

  Basis Set: AUG-CC-PVTZ
    Blend: AUG-CC-PVTZ
  Basis Set: (AUG-CC-PVTZ AUX)
    Blend: AUG-CC-PVTZ-JKFIT
	 Reference Energy          =   -1029.0391856162232216 [Eh]
	 Singles Energy            =      -0.0000000000000000 [Eh]
	 Same-Spin Energy          =      -1.0478150709292482 [Eh]
	 Opposite-Spin Energy      =      -2.9453312806242211 [Eh]
	 Correlation Energy        =      -3.9931463515534693 [Eh]
	 Total Energy              =   -1033.0323319677765994 [Eh]

	 ================> DF-SCS-MP2 Energies <==================
	-----------------------------------------------------------
	 SCS Same-Spin Scale       =       0.3333333333333333 [-]
	 SCS Opposite-Spin Scale   =       1.2000000000000000 [-]
	 SCS Same-Spin Energy      =      -0.3492716903097494 [Eh]
	 SCS Opposite-Spin Energy  =      -3.5343975367490654 [Eh]
	 SCS Correlation Energy    =      -3.8836692270588147 [Eh]
	 SCS Total Energy          =   -1032.9228548432820389 [Eh]
	-----------------------------------------------------------

  Dipole Moment: [D]
     X:     0.1461      Y:    -1.0940      Z:     1.1711     Total:     1.6092

*** Psi4 exiting successfully. Buy a developer a beer!
