                               Psi4 1.4a3.dev225

  ==> Input File <==

--------------------------------------------------------------------------
#psi4
#
memory 32 gb

molecule  {
0 1
  O       -2.9128620    -0.4781290     1.0138340
  O       -2.9681190     0.5148030    -1.0434710
  O       -0.3129680    -3.4309860     0.4641560
  O       -0.2589710     3.4469300    -0.4801560
  O       -1.9011930    -2.4818550    -0.7520780
  O       -1.8407060     2.5208330     0.7644950
  O        3.9597560    -1.1388570    -0.0240200
  O        3.9819620     1.0692260     0.0429750
  N       -0.8439190    -2.4637400    -0.1025570
  N       -0.8135270     2.4888332     0.1051392
  N        3.4069750    -0.0290830     0.0068360
  C       -0.8642630     0.0144850    -0.0118450
  C       -0.1342560    -1.1768520    -0.0236930
  C       -0.1092970     1.1902470     0.0051550
  C        1.9306090    -0.0137700    -0.0002960
  C        1.2541590    -1.2264030    -0.0035910
  C        1.2788880     1.2129500     0.0017720
  C       -2.3665400     0.0542110    -0.0958220
  H        1.7835260    -2.1724740     0.0038120
  H        1.8267950     2.1485240     0.0024160
  H       -3.8857970    -0.4493820     0.8874840
units angstrom
no_reorient  #important for SAPT in psi4, default
symmetry c1  #important for SAPT in psi4, default
}

set PROPERTIES_ORIGIN ["COM"]
properties('MP2/aug-cc-pvtz', properties = ['dipole'])
--------------------------------------------------------------------------

    Molecular point group: c1
  Charge       = 0
  Multiplicity = 1
  Basis Set: AUG-CC-PVTZ
    Blend: AUG-CC-PVTZ
  Basis Set: (AUG-CC-PVTZ AUX)
    Blend: AUG-CC-PVTZ-JKFIT

    Orbital Energies [Eh]
    ---------------------

    Doubly Occupied:

       1A    -20.658482     2A    -20.657160     3A    -20.652668
       4A    -20.652456     5A    -20.650364     6A    -20.650291
       7A    -20.643634     8A    -20.596973     9A    -15.902686
      10A    -15.901748    11A    -15.900441    12A    -11.453210
      13A    -11.386350    14A    -11.385323    15A    -11.379946
      16A    -11.375314    17A    -11.355465    18A    -11.355197
      19A     -1.638506    20A     -1.636527    21A     -1.634479
      22A     -1.507011    23A     -1.436966    24A     -1.436584
      25A     -1.434465    26A     -1.406674    27A     -1.289838
      28A     -1.184125    29A     -1.179418    30A     -1.055339
      31A     -1.034922    32A     -1.027339    33A     -0.924363
      34A     -0.883908    35A     -0.871325    36A     -0.837356
      37A     -0.802721    38A     -0.789751    39A     -0.789060
      40A     -0.777446    41A     -0.766409    42A     -0.764287
      43A     -0.757218    44A     -0.753482    45A     -0.747273
      46A     -0.742301    47A     -0.716497    48A     -0.691530
      49A     -0.668277    50A     -0.646196    51A     -0.630401
      52A     -0.608448    53A     -0.555528    54A     -0.549677
      55A     -0.544762    56A     -0.540147    57A     -0.536421
      58A     -0.532283    59A     -0.522871    60A     -0.509975
      61A     -0.493670    62A     -0.492282    63A     -0.488350
      64A     -0.447488    65A     -0.445528

  @DF-RHF Final Energy: -1029.04997003913127

   => Energetics <=

    Nuclear Repulsion Energy =           1345.8052369453412211
    One-Electron Energy =               -4083.1361463686380375
    Two-Electron Energy =                1708.2809393841655492
    Total Energy =                      -1029.0499700391312672
  Basis Set: (AUG-CC-PVTZ AUX)
    Blend: AUG-CC-PVTZ-RI
    Molecular point group: c1

    Geometry (in Angstrom), charge = 0, multiplicity = 1:

       Center              X                  Y                   Z               Mass
    ------------   -----------------  -----------------  -----------------  -----------------
         O           -2.913074435889    -0.479984462313     1.016695639039    15.994914619570
         O           -2.968331435889     0.512947537687    -1.040609360961    15.994914619570
         O           -0.313180435889    -3.432841462313     0.467017639039    15.994914619570
         O           -0.259183435889     3.445074537687    -0.477294360961    15.994914619570
         O           -1.901405435889    -2.483710462313    -0.749216360961    15.994914619570
         O           -1.840918435889     2.518977537687     0.767356639039    15.994914619570
         O            3.959543564111    -1.140712462313    -0.021158360961    15.994914619570
         O            3.981749564111     1.067370537687     0.045836639039    15.994914619570
         N           -0.844131435889    -2.465595462313    -0.099695360961    14.003074004430
         N           -0.813739435889     2.486977737687     0.108000839039    14.003074004430
         N            3.406762564111    -0.030938462313     0.009697639039    14.003074004430
         C           -0.864475435889     0.012629537687    -0.008983360961    12.000000000000
         C           -0.134468435889    -1.178707462313    -0.020831360961    12.000000000000
         C           -0.109509435889     1.188391537687     0.008016639039    12.000000000000
         C            1.930396564111    -0.015625462313     0.002565639039    12.000000000000
         C            1.253946564111    -1.228258462313    -0.000729360961    12.000000000000
         C            1.278675564111     1.211094537687     0.004633639039    12.000000000000
         C           -2.366752435889     0.052355537687    -0.092960360961    12.000000000000
         H            1.783313564111    -2.174329462313     0.006673639039     1.007825032230
         H            1.826582564111     2.146668537687     0.005277639039     1.007825032230
         H           -3.886009435889    -0.451237462313     0.890345639039     1.007825032230

  Basis Set: AUG-CC-PVTZ
    Blend: AUG-CC-PVTZ
  Basis Set: (AUG-CC-PVTZ AUX)
    Blend: AUG-CC-PVTZ-JKFIT
	 Reference Energy          =   -1029.0499700391312672 [Eh]
	 Singles Energy            =      -0.0000000000000000 [Eh]
	 Same-Spin Energy          =      -1.0496834706378320 [Eh]
	 Opposite-Spin Energy      =      -2.9496022276570062 [Eh]
	 Correlation Energy        =      -3.9992856982948384 [Eh]
	 Total Energy              =   -1033.0492557374261651 [Eh]

	 ================> DF-SCS-MP2 Energies <==================
	-----------------------------------------------------------
	 SCS Same-Spin Scale       =       0.3333333333333333 [-]
	 SCS Opposite-Spin Scale   =       1.2000000000000000 [-]
	 SCS Same-Spin Energy      =      -0.3498944902126107 [Eh]
	 SCS Opposite-Spin Energy  =      -3.5395226731884075 [Eh]
	 SCS Correlation Energy    =      -3.8894171634010180 [Eh]
	 SCS Total Energy          =   -1032.9393872025323162 [Eh]
	-----------------------------------------------------------

  Dipole Moment: [D]
     X:    -0.2075      Y:    -0.6075      Z:     1.2396     Total:     1.3960

*** Psi4 exiting successfully. Buy a developer a beer!
