                               Psi4 1.4a3.dev225

  ==> Input File <==

--------------------------------------------------------------------------
#psi4
#
memory 32 gb

molecule  {
0 1
  O       -2.9128620    -0.4781290     1.0138340
  O       -2.9681190     0.5148030    -1.0434710
  O       -0.3129680    -3.4309860     0.4641560
  O       -0.2589710     3.4469300    -0.4801560
  O       -1.9011930    -2.4818550    -0.7520780
  O       -1.8407060     2.5208330     0.7644950
  O        3.9597560    -1.1388570    -0.0240200
  O        3.9819620     1.0692260     0.0429750
  N       -0.8439190    -2.4637400    -0.1025570
  N       -0.7967020     2.4883090     0.0943390
  N        3.4069750    -0.0290830     0.0068360
  C       -0.8642630     0.0144850    -0.0118450
  C       -0.0931220    -1.1506529    -0.0232268
  C       -0.1092970     1.1902470     0.0051550
  C        1.9306090    -0.0137700    -0.0002960
  C        1.2541590    -1.2264030    -0.0035910
  C        1.2788880     1.2129500     0.0017720
  C       -2.3665400     0.0542110    -0.0958220
  H        1.7835260    -2.1724740     0.0038120
  H        1.8267950     2.1485240     0.0024160
  H       -3.8857970    -0.4493820     0.8874840
units angstrom
no_reorient  #important for SAPT in psi4, default
symmetry c1  #important for SAPT in psi4, default
}

set PROPERTIES_ORIGIN ["COM"]
properties('MP2/aug-cc-pvtz', properties = ['dipole'])
--------------------------------------------------------------------------

    Molecular point group: c1
  Charge       = 0
  Multiplicity = 1
  Basis Set: AUG-CC-PVTZ
    Blend: AUG-CC-PVTZ
  Basis Set: (AUG-CC-PVTZ AUX)
    Blend: AUG-CC-PVTZ-JKFIT

    Orbital Energies [Eh]
    ---------------------

    Doubly Occupied:

       1A    -20.658127     2A    -20.651975     3A    -20.651683
       4A    -20.650824     5A    -20.650640     6A    -20.650474
       7A    -20.650444     8A    -20.596906     9A    -15.901870
      10A    -15.900594    11A    -15.900187    12A    -11.454170
      13A    -11.386309    14A    -11.386229    15A    -11.380721
      16A    -11.375861    17A    -11.354472    18A    -11.350444
      19A     -1.634836    20A     -1.634056    21A     -1.632110
      22A     -1.506716    23A     -1.434878    24A     -1.434617
      25A     -1.434412    26A     -1.406417    27A     -1.294294
      28A     -1.184952    29A     -1.178941    30A     -1.056896
      31A     -1.033400    32A     -1.025234    33A     -0.925557
      34A     -0.882556    35A     -0.872844    36A     -0.837036
      37A     -0.802450    38A     -0.789001    39A     -0.787229
      40A     -0.776537    41A     -0.764703    42A     -0.762009
      43A     -0.757190    44A     -0.753228    45A     -0.745832
      46A     -0.740561    47A     -0.717672    48A     -0.695409
      49A     -0.668028    50A     -0.647015    51A     -0.631732
      52A     -0.612263    53A     -0.554455    54A     -0.549279
      55A     -0.543541    56A     -0.540465    57A     -0.535231
      58A     -0.532456    59A     -0.521425    60A     -0.510486
      61A     -0.494024    62A     -0.491200    63A     -0.487221
      64A     -0.451048    65A     -0.446326

  @DF-RHF Final Energy: -1029.04631236962973

   => Energetics <=

    Nuclear Repulsion Energy =           1345.8970548877291549
    One-Electron Energy =               -4083.3473331181367030
    Two-Electron Energy =                1708.4039658607778165
    Total Energy =                      -1029.0463123696297316
  Basis Set: (AUG-CC-PVTZ AUX)
    Blend: AUG-CC-PVTZ-RI
    Molecular point group: c1

    Geometry (in Angstrom), charge = 0, multiplicity = 1:

       Center              X                  Y                   Z               Mass
    ------------   -----------------  -----------------  -----------------  -----------------
         O           -2.915911915967    -0.481179241807     1.017262355481    15.994914619570
         O           -2.971168915967     0.511752758193    -1.040042644519    15.994914619570
         O           -0.316017915967    -3.434036241807     0.467584355481    15.994914619570
         O           -0.262020915967     3.443879758193    -0.476727644519    15.994914619570
         O           -1.904242915967    -2.484905241807    -0.748649644519    15.994914619570
         O           -1.843755915967     2.517782758193     0.767923355481    15.994914619570
         O            3.956706084033    -1.141907241807    -0.020591644519    15.994914619570
         O            3.978912084033     1.066175758193     0.046403355481    15.994914619570
         N           -0.846968915967    -2.466790241807    -0.099128644519    14.003074004430
         N           -0.799751915967     2.485258758193     0.097767355481    14.003074004430
         N            3.403925084033    -0.032133241807     0.010264355481    14.003074004430
         C           -0.867312915967     0.011434758193    -0.008416644519    12.000000000000
         C           -0.096171915967    -1.153703141807    -0.019798444519    12.000000000000
         C           -0.112346915967     1.187196758193     0.008583355481    12.000000000000
         C            1.927559084033    -0.016820241807     0.003132355481    12.000000000000
         C            1.251109084033    -1.229453241807    -0.000162644519    12.000000000000
         C            1.275838084033     1.209899758193     0.005200355481    12.000000000000
         C           -2.369589915967     0.051160758193    -0.092393644519    12.000000000000
         H            1.780476084033    -2.175524241807     0.007240355481     1.007825032230
         H            1.823745084033     2.145473758193     0.005844355481     1.007825032230
         H           -3.888846915967    -0.452432241807     0.890912355481     1.007825032230

  Basis Set: AUG-CC-PVTZ
    Blend: AUG-CC-PVTZ
  Basis Set: (AUG-CC-PVTZ AUX)
    Blend: AUG-CC-PVTZ-JKFIT
	 Reference Energy          =   -1029.0463123696297316 [Eh]
	 Singles Energy            =      -0.0000000000000000 [Eh]
	 Same-Spin Energy          =      -1.0501999261202173 [Eh]
	 Opposite-Spin Energy      =      -2.9507636871450309 [Eh]
	 Correlation Energy        =      -4.0009636132652480 [Eh]
	 Total Energy              =   -1033.0472759828949165 [Eh]

	 ================> DF-SCS-MP2 Energies <==================
	-----------------------------------------------------------
	 SCS Same-Spin Scale       =       0.3333333333333333 [-]
	 SCS Opposite-Spin Scale   =       1.2000000000000000 [-]
	 SCS Same-Spin Energy      =      -0.3500666420400724 [Eh]
	 SCS Opposite-Spin Energy  =      -3.5409164245740370 [Eh]
	 SCS Correlation Energy    =      -3.8909830666141092 [Eh]
	 SCS Total Energy          =   -1032.9372954362438577 [Eh]
	-----------------------------------------------------------

  Dipole Moment: [D]
     X:    -0.1217      Y:    -0.6036      Z:     1.1835     Total:     1.3341

*** Psi4 exiting successfully. Buy a developer a beer!
