                               Psi4 1.4a3.dev225

  ==> Input File <==

--------------------------------------------------------------------------
#psi4
#
memory 32 gb

molecule  {
0 1
  O       -2.9128620    -0.4781290     1.0138340
  O       -2.9681190     0.5148030    -1.0434710
  O       -0.3129680    -3.4309860     0.4641560
  O       -0.2589710     3.4469300    -0.4801560
  O       -1.9011930    -2.4818550    -0.7520780
  O       -1.8407060     2.5208330     0.7644950
  O        3.9597560    -1.1388570    -0.0240200
  O        3.9819620     1.0692260     0.0429750
  N       -0.8439190    -2.4637400    -0.1025570
  N       -0.7967020     2.4883090     0.0943390
  N        3.4961182    -0.2080487     0.0018601
  C       -0.8642630     0.0144850    -0.0118450
  C       -0.1342560    -1.1768520    -0.0236930
  C       -0.1092970     1.1902470     0.0051550
  C        1.9306090    -0.0137700    -0.0002960
  C        1.2541590    -1.2264030    -0.0035910
  C        1.2788880     1.2129500     0.0017720
  C       -2.3665400     0.0542110    -0.0958220
  H        1.7835260    -2.1724740     0.0038120
  H        1.8267950     2.1485240     0.0024160
  H       -3.8857970    -0.4493820     0.8874840
units angstrom
no_reorient  #important for SAPT in psi4, default
symmetry c1  #important for SAPT in psi4, default
}

set PROPERTIES_ORIGIN ["COM"]
properties('MP2/aug-cc-pvtz', properties = ['dipole'])
--------------------------------------------------------------------------

    Molecular point group: c1
  Charge       = 0
  Multiplicity = 1
  Basis Set: AUG-CC-PVTZ
    Blend: AUG-CC-PVTZ
  Basis Set: (AUG-CC-PVTZ AUX)
    Blend: AUG-CC-PVTZ-JKFIT

    Orbital Energies [Eh]
    ---------------------

    Doubly Occupied:

       1A    -20.720804     2A    -20.654394     3A    -20.650691
       4A    -20.650631     5A    -20.645899     6A    -20.645621
       7A    -20.592224     8A    -20.591188     9A    -15.900372
      10A    -15.897736    11A    -15.895796    12A    -11.448651
      13A    -11.382528    14A    -11.380629    15A    -11.374005
      16A    -11.369240    17A    -11.348954    18A    -11.348829
      19A     -1.799984    20A     -1.634620    21A     -1.629321
      22A     -1.502732    23A     -1.434836    24A     -1.429879
      25A     -1.402183    26A     -1.386640    27A     -1.282258
      28A     -1.177046    29A     -1.165791    30A     -1.049300
      31A     -1.026888    32A     -1.013217    33A     -0.928218
      34A     -0.893262    35A     -0.877698    36A     -0.857016
      37A     -0.830079    38A     -0.813547    39A     -0.794385
      40A     -0.791360    41A     -0.775557    42A     -0.771915
      43A     -0.762433    44A     -0.758738    45A     -0.742511
      46A     -0.738007    47A     -0.713796    48A     -0.693646
      49A     -0.664527    50A     -0.642034    51A     -0.627078
      52A     -0.607147    53A     -0.550999    54A     -0.546544
      55A     -0.539720    56A     -0.533016    57A     -0.524522
      58A     -0.519040    59A     -0.505938    60A     -0.491253
      61A     -0.490431    62A     -0.487387    63A     -0.482594
      64A     -0.442749    65A     -0.438754

  @DF-RHF Final Energy: -1028.98463882312421

   => Energetics <=

    Nuclear Repulsion Energy =           1345.5589284312457039
    One-Electron Energy =               -4082.5495575954596461
    Two-Electron Energy =                1708.0059903410895004
    Total Energy =                      -1028.9846388231242145
  Basis Set: (AUG-CC-PVTZ AUX)
    Blend: AUG-CC-PVTZ-RI
    Molecular point group: c1

    Geometry (in Angstrom), charge = 0, multiplicity = 1:

       Center              X                  Y                   Z               Mass
    ------------   -----------------  -----------------  -----------------  -----------------
         O           -2.918848469577    -0.470204351589     1.017555252894    15.994914619570
         O           -2.974105469577     0.522727648411    -1.039749747106    15.994914619570
         O           -0.318954469577    -3.423061351589     0.467877252894    15.994914619570
         O           -0.264957469577     3.454854648411    -0.476434747106    15.994914619570
         O           -1.907179469577    -2.473930351589    -0.748356747106    15.994914619570
         O           -1.846692469577     2.528757648411     0.768216252894    15.994914619570
         O            3.953769530423    -1.130932351589    -0.020298747106    15.994914619570
         O            3.975975530423     1.077150648411     0.046696252894    15.994914619570
         N           -0.849905469577    -2.455815351589    -0.098835747106    14.003074004430
         N           -0.802688469577     2.496233648411     0.098060252894    14.003074004430
         N            3.490131730423    -0.200124051589     0.005581352894    14.003074004430
         C           -0.870249469577     0.022409648411    -0.008123747106    12.000000000000
         C           -0.140242469577    -1.168927351589    -0.019971747106    12.000000000000
         C           -0.115283469577     1.198171648411     0.008876252894    12.000000000000
         C            1.924622530423    -0.005845351589     0.003425252894    12.000000000000
         C            1.248172530423    -1.218478351589     0.000130252894    12.000000000000
         C            1.272901530423     1.220874648411     0.005493252894    12.000000000000
         C           -2.372526469577     0.062135648411    -0.092100747106    12.000000000000
         H            1.777539530423    -2.164549351589     0.007533252894     1.007825032230
         H            1.820808530423     2.156448648411     0.006137252894     1.007825032230
         H           -3.891783469577    -0.441457351589     0.891205252894     1.007825032230

  Basis Set: AUG-CC-PVTZ
    Blend: AUG-CC-PVTZ
  Basis Set: (AUG-CC-PVTZ AUX)
    Blend: AUG-CC-PVTZ-JKFIT
	 Reference Energy          =   -1028.9846388231242145 [Eh]
	 Singles Energy            =      -0.0000000000000000 [Eh]
	 Same-Spin Energy          =      -1.0444620087660330 [Eh]
	 Opposite-Spin Energy      =      -2.9380107873873742 [Eh]
	 Correlation Energy        =      -3.9824727961534072 [Eh]
	 Total Energy              =   -1032.9671116192776026 [Eh]

	 ================> DF-SCS-MP2 Energies <==================
	-----------------------------------------------------------
	 SCS Same-Spin Scale       =       0.3333333333333333 [-]
	 SCS Opposite-Spin Scale   =       1.2000000000000000 [-]
	 SCS Same-Spin Energy      =      -0.3481540029220110 [Eh]
	 SCS Opposite-Spin Energy  =      -3.5256129448648488 [Eh]
	 SCS Correlation Energy    =      -3.8737669477868599 [Eh]
	 SCS Total Energy          =   -1032.8584057709110766 [Eh]
	-----------------------------------------------------------

  Dipole Moment: [D]
     X:     0.4782      Y:    -1.9392      Z:     1.1360     Total:     2.2978

*** Psi4 exiting successfully. Buy a developer a beer!
