                               Psi4 1.4a3.dev225

  ==> Input File <==

--------------------------------------------------------------------------
#psi4
#
memory 32 gb

molecule  {
0 1
  O       -2.9128620    -0.4781290     1.0138340
  O       -2.9681190     0.5148030    -1.0434710
  O       -0.3129680    -3.4309860     0.4641560
  O       -0.2589710     3.4469300    -0.4801560
  O       -1.9011930    -2.4818550    -0.7520780
  O       -1.8407060     2.5208330     0.7644950
  O        3.9597560    -1.1388570    -0.0240200
  O        3.9819620     1.0692260     0.0429750
  N       -0.8439190    -2.4637400    -0.1025570
  N       -0.7967020     2.4883090     0.0943390
  N        3.4069750    -0.0290830     0.0068360
  C       -0.9455792    -0.0393119    -0.0141131
  C       -0.1342560    -1.1768520    -0.0236930
  C       -0.1092970     1.1902470     0.0051550
  C        1.9306090    -0.0137700    -0.0002960
  C        1.2541590    -1.2264030    -0.0035910
  C        1.2788880     1.2129500     0.0017720
  C       -2.3665400     0.0542110    -0.0958220
  H        1.7835260    -2.1724740     0.0038120
  H        1.8267950     2.1485240     0.0024160
  H       -3.8857970    -0.4493820     0.8874840
units angstrom
no_reorient  #important for SAPT in psi4, default
symmetry c1  #important for SAPT in psi4, default
}

set PROPERTIES_ORIGIN ["COM"]
properties('MP2/aug-cc-pvtz', properties = ['dipole'])
--------------------------------------------------------------------------

    Molecular point group: c1
  Charge       = 0
  Multiplicity = 1
  Basis Set: AUG-CC-PVTZ
    Blend: AUG-CC-PVTZ
  Basis Set: (AUG-CC-PVTZ AUX)
    Blend: AUG-CC-PVTZ-JKFIT

    Orbital Energies [Eh]
    ---------------------

    Doubly Occupied:

       1A    -20.657312     2A    -20.652248     3A    -20.651880
       4A    -20.651878     5A    -20.651164     6A    -20.648666
       7A    -20.648613     8A    -20.597778     9A    -15.902810
      10A    -15.900679    11A    -15.898842    12A    -11.448860
      13A    -11.393981    14A    -11.390673    15A    -11.383386
      16A    -11.382248    17A    -11.357923    18A    -11.355247
      19A     -1.636407    20A     -1.635612    21A     -1.632309
      22A     -1.509381    23A     -1.436396    24A     -1.435598
      25A     -1.432941    26A     -1.407565    27A     -1.285245
      28A     -1.188332    29A     -1.176156    30A     -1.068391
      31A     -1.034415    32A     -1.028433    33A     -0.931568
      34A     -0.877869    35A     -0.871541    36A     -0.837284
      37A     -0.802998    38A     -0.790402    39A     -0.787578
      40A     -0.776432    41A     -0.765786    42A     -0.762100
      43A     -0.757435    44A     -0.754028    45A     -0.746647
      46A     -0.742131    47A     -0.714586    48A     -0.694137
      49A     -0.668233    50A     -0.644123    51A     -0.634509
      52A     -0.604112    53A     -0.555000    54A     -0.549221
      55A     -0.544436    56A     -0.540445    57A     -0.535881
      58A     -0.532867    59A     -0.521946    60A     -0.514494
      61A     -0.494678    62A     -0.492188    63A     -0.486191
      64A     -0.450946    65A     -0.437566

  @DF-RHF Final Energy: -1029.03441460132876

   => Energetics <=

    Nuclear Repulsion Energy =           1345.5858889583680593
    One-Electron Energy =               -4082.6391558346745114
    Two-Electron Energy =                1708.0188522749774620
    Total Energy =                      -1029.0344146013287627
  Basis Set: (AUG-CC-PVTZ AUX)
    Blend: AUG-CC-PVTZ-RI
    Molecular point group: c1

    Geometry (in Angstrom), charge = 0, multiplicity = 1:

       Center              X                  Y                   Z               Mass
    ------------   -----------------  -----------------  -----------------  -----------------
         O           -2.910194219231    -0.477443903947     1.017390031044    15.994914619570
         O           -2.965451219231     0.515488096053    -1.039914968956    15.994914619570
         O           -0.310300219231    -3.430300903947     0.467712031044    15.994914619570
         O           -0.256303219231     3.447615096053    -0.476599968956    15.994914619570
         O           -1.898525219231    -2.481169903947    -0.748521968956    15.994914619570
         O           -1.838038219231     2.521518096053     0.768051031044    15.994914619570
         O            3.962423780769    -1.138171903947    -0.020463968956    15.994914619570
         O            3.984629780769     1.069911096053     0.046531031044    15.994914619570
         N           -0.841251219231    -2.463054903947    -0.099000968956    14.003074004430
         N           -0.794034219231     2.488994096053     0.097895031044    14.003074004430
         N            3.409642780769    -0.028397903947     0.010392031044    14.003074004430
         C           -0.942911419231    -0.038626803947    -0.010557068956    12.000000000000
         C           -0.131588219231    -1.176166903947    -0.020136968956    12.000000000000
         C           -0.106629219231     1.190932096053     0.008711031044    12.000000000000
         C            1.933276780769    -0.013084903947     0.003260031044    12.000000000000
         C            1.256826780769    -1.225717903947    -0.000034968956    12.000000000000
         C            1.281555780769     1.213635096053     0.005328031044    12.000000000000
         C           -2.363872219231     0.054896096053    -0.092265968956    12.000000000000
         H            1.786193780769    -2.171788903947     0.007368031044     1.007825032230
         H            1.829462780769     2.149209096053     0.005972031044     1.007825032230
         H           -3.883129219231    -0.448696903947     0.891040031044     1.007825032230

  Basis Set: AUG-CC-PVTZ
    Blend: AUG-CC-PVTZ
  Basis Set: (AUG-CC-PVTZ AUX)
    Blend: AUG-CC-PVTZ-JKFIT
	 Reference Energy          =   -1029.0344146013287627 [Eh]
	 Singles Energy            =      -0.0000000000000000 [Eh]
	 Same-Spin Energy          =      -1.0513874846042102 [Eh]
	 Opposite-Spin Energy      =      -2.9528434425641272 [Eh]
	 Correlation Energy        =      -4.0042309271683374 [Eh]
	 Total Energy              =   -1033.0386455284969998 [Eh]

	 ================> DF-SCS-MP2 Energies <==================
	-----------------------------------------------------------
	 SCS Same-Spin Scale       =       0.3333333333333333 [-]
	 SCS Opposite-Spin Scale   =       1.2000000000000000 [-]
	 SCS Same-Spin Energy      =      -0.3504624948680700 [Eh]
	 SCS Opposite-Spin Energy  =      -3.5434121310769524 [Eh]
	 SCS Correlation Energy    =      -3.8938746259450223 [Eh]
	 SCS Total Energy          =   -1032.9282892272738081 [Eh]
	-----------------------------------------------------------

  Dipole Moment: [D]
     X:    -0.0219      Y:    -0.5888      Z:     1.1751     Total:     1.3146

*** Psi4 exiting successfully. Buy a developer a beer!
