                               Psi4 1.4a3.dev225

  ==> Input File <==

--------------------------------------------------------------------------
#psi4
#
memory 32 gb

molecule  {
0 1
  O       -2.9128620    -0.4781290     1.0138340
  O       -2.9681190     0.5148030    -1.0434710
  O       -0.3129680    -3.4309860     0.4641560
  O       -0.2589710     3.4469300    -0.4801560
  O       -1.9011930    -2.4818550    -0.7520780
  O       -1.8407060     2.5208330     0.7644950
  O        3.9597560    -1.1388570    -0.0240200
  O        3.9819620     1.0692260     0.0429750
  N       -0.8439190    -2.4637400    -0.1025570
  N       -0.7967020     2.4883090     0.0943390
  N        3.4069750    -0.0290830     0.0068360
  C       -0.8642630     0.0144850    -0.0118450
  C       -0.1342560    -1.1768520    -0.0236930
  C       -0.1092970     1.1902470     0.0051550
  C        1.9306090    -0.0137700    -0.0002960
  C        1.2541590    -1.2264030    -0.0035910
  C        1.3288812     1.2137676     0.0016502
  C       -2.3665400     0.0542110    -0.0958220
  H        1.7835260    -2.1724740     0.0038120
  H        1.8267950     2.1485240     0.0024160
  H       -3.8857970    -0.4493820     0.8874840
units angstrom
no_reorient  #important for SAPT in psi4, default
symmetry c1  #important for SAPT in psi4, default
}

set PROPERTIES_ORIGIN ["COM"]
properties('MP2/aug-cc-pvtz', properties = ['dipole'])
--------------------------------------------------------------------------

    Molecular point group: c1
  Charge       = 0
  Multiplicity = 1
  Basis Set: AUG-CC-PVTZ
    Blend: AUG-CC-PVTZ
  Basis Set: (AUG-CC-PVTZ AUX)
    Blend: AUG-CC-PVTZ-JKFIT

    Orbital Energies [Eh]
    ---------------------

    Doubly Occupied:

       1A    -20.657452     2A    -20.652707     3A    -20.652651
       4A    -20.650796     5A    -20.650143     6A    -20.649990
       7A    -20.649710     8A    -20.595612     9A    -15.902848
      10A    -15.900964    11A    -15.900210    12A    -11.452247
      13A    -11.389651    14A    -11.386941    15A    -11.379401
      16A    -11.375160    17A    -11.358069    18A    -11.356851
      19A     -1.636691    20A     -1.634827    21A     -1.633369
      22A     -1.505913    23A     -1.436757    24A     -1.434807
      25A     -1.433991    26A     -1.405388    27A     -1.288609
      28A     -1.187910    29A     -1.177009    30A     -1.054901
      31A     -1.035225    32A     -1.029812    33A     -0.924054
      34A     -0.884422    35A     -0.869834    36A     -0.837174
      37A     -0.802589    38A     -0.792544    39A     -0.786080
      40A     -0.778012    41A     -0.766000    42A     -0.763223
      43A     -0.757217    44A     -0.753443    45A     -0.746166
      46A     -0.741636    47A     -0.715224    48A     -0.688196
      49A     -0.669887    50A     -0.652279    51A     -0.628918
      52A     -0.606984    53A     -0.555195    54A     -0.549704
      55A     -0.544464    56A     -0.540089    57A     -0.535865
      58A     -0.533794    59A     -0.522302    60A     -0.509009
      61A     -0.493976    62A     -0.492308    63A     -0.486827
      64A     -0.451714    65A     -0.440421

  @DF-RHF Final Energy: -1029.04607369519135

   => Energetics <=

    Nuclear Repulsion Energy =           1345.2308170748469820
    One-Electron Energy =               -4082.0014582591743419
    Two-Electron Energy =                1707.7245674891360068
    Total Energy =                      -1029.0460736951913532
  Basis Set: (AUG-CC-PVTZ AUX)
    Blend: AUG-CC-PVTZ-RI
    Molecular point group: c1

    Geometry (in Angstrom), charge = 0, multiplicity = 1:

       Center              X                  Y                   Z               Mass
    ------------   -----------------  -----------------  -----------------  -----------------
         O           -2.916325587966    -0.479994076575     1.017289811588    15.994914619570
         O           -2.971582587966     0.512937923425    -1.040015188412    15.994914619570
         O           -0.316431587966    -3.432851076575     0.467611811588    15.994914619570
         O           -0.262434587966     3.445064923425    -0.476700188412    15.994914619570
         O           -1.904656587966    -2.483720076575    -0.748622188412    15.994914619570
         O           -1.844169587966     2.518967923425     0.767950811588    15.994914619570
         O            3.956292412034    -1.140722076575    -0.020564188412    15.994914619570
         O            3.978498412034     1.067360923425     0.046430811588    15.994914619570
         N           -0.847382587966    -2.465605076575    -0.099101188412    14.003074004430
         N           -0.800165587966     2.486443923425     0.097794811588    14.003074004430
         N            3.403511412034    -0.030948076575     0.010291811588    14.003074004430
         C           -0.867726587966     0.012619923425    -0.008389188412    12.000000000000
         C           -0.137719587966    -1.178717076575    -0.020237188412    12.000000000000
         C           -0.112760587966     1.188381923425     0.008610811588    12.000000000000
         C            1.927145412034    -0.015635076575     0.003159811588    12.000000000000
         C            1.250695412034    -1.228268076575    -0.000135188412    12.000000000000
         C            1.325417612034     1.211902523425     0.005106011588    12.000000000000
         C           -2.370003587966     0.052345923425    -0.092366188412    12.000000000000
         H            1.780062412034    -2.174339076575     0.007267811588     1.007825032230
         H            1.823331412034     2.146658923425     0.005871811588     1.007825032230
         H           -3.889260587966    -0.451247076575     0.890939811588     1.007825032230

  Basis Set: AUG-CC-PVTZ
    Blend: AUG-CC-PVTZ
  Basis Set: (AUG-CC-PVTZ AUX)
    Blend: AUG-CC-PVTZ-JKFIT
	 Reference Energy          =   -1029.0460736951913532 [Eh]
	 Singles Energy            =      -0.0000000000000000 [Eh]
	 Same-Spin Energy          =      -1.0499277129462432 [Eh]
	 Opposite-Spin Energy      =      -2.9505005806489835 [Eh]
	 Correlation Energy        =      -4.0004282935952267 [Eh]
	 Total Energy              =   -1033.0465019887865310 [Eh]

	 ================> DF-SCS-MP2 Energies <==================
	-----------------------------------------------------------
	 SCS Same-Spin Scale       =       0.3333333333333333 [-]
	 SCS Opposite-Spin Scale   =       1.2000000000000000 [-]
	 SCS Same-Spin Energy      =      -0.3499759043154144 [Eh]
	 SCS Opposite-Spin Energy  =      -3.5406006967787800 [Eh]
	 SCS Correlation Energy    =      -3.8905766010941942 [Eh]
	 SCS Total Energy          =   -1032.9366502962855066 [Eh]
	-----------------------------------------------------------

  Dipole Moment: [D]
     X:    -0.1788      Y:    -0.6081      Z:     1.1938     Total:     1.3517

*** Psi4 exiting successfully. Buy a developer a beer!
