                               Psi4 1.4a3.dev225

  ==> Input File <==

--------------------------------------------------------------------------
#psi4
#
memory 32 gb

molecule  {
0 1
  O       -2.9128620    -0.4781290     1.0138340
  O       -2.9681190     0.5148030    -1.0434710
  O       -0.3129680    -3.4309860     0.4641560
  O       -0.2589710     3.4469300    -0.4801560
  O       -1.9011930    -2.4818550    -0.7520780
  O       -1.8407060     2.5208330     0.7644950
  O        3.9597560    -1.1388570    -0.0240200
  O        3.9819620     1.0692260     0.0429750
  N       -0.8439190    -2.4637400    -0.1025570
  N       -0.7967020     2.4883090     0.0943390
  N        3.4069750    -0.0290830     0.0068360
  C       -0.8642630     0.0144850    -0.0118450
  C       -0.1342560    -1.1768520    -0.0236930
  C       -0.1092970     1.1902470     0.0051550
  C        1.9806057    -0.0142886    -0.0000545
  C        1.2541590    -1.2264030    -0.0035910
  C        1.2788880     1.2129500     0.0017720
  C       -2.3665400     0.0542110    -0.0958220
  H        1.7835260    -2.1724740     0.0038120
  H        1.8267950     2.1485240     0.0024160
  H       -3.8857970    -0.4493820     0.8874840
units angstrom
no_reorient  #important for SAPT in psi4, default
symmetry c1  #important for SAPT in psi4, default
}

set PROPERTIES_ORIGIN ["COM"]
properties('MP2/aug-cc-pvtz', properties = ['dipole'])
--------------------------------------------------------------------------

    Molecular point group: c1
  Charge       = 0
  Multiplicity = 1
  Basis Set: AUG-CC-PVTZ
    Blend: AUG-CC-PVTZ
  Basis Set: (AUG-CC-PVTZ AUX)
    Blend: AUG-CC-PVTZ-JKFIT

    Orbital Energies [Eh]
    ---------------------

    Doubly Occupied:

       1A    -20.658298     2A    -20.652722     3A    -20.652546
       4A    -20.650137     5A    -20.650077     6A    -20.650003
       7A    -20.650003     8A    -20.596823     9A    -15.903085
      10A    -15.902823    11A    -15.900357    12A    -11.453377
      13A    -11.386358    14A    -11.385098    15A    -11.380412
      16A    -11.378217    17A    -11.359623    18A    -11.359265
      19A     -1.639301    20A     -1.636679    21A     -1.633717
      22A     -1.506858    23A     -1.436777    24A     -1.436205
      25A     -1.434260    26A     -1.406425    27A     -1.287043
      28A     -1.189018    29A     -1.180416    30A     -1.061407
      31A     -1.040967    32A     -1.023713    33A     -0.925484
      34A     -0.883577    35A     -0.870609    36A     -0.838044
      37A     -0.802334    38A     -0.791321    39A     -0.788939
      40A     -0.777818    41A     -0.766606    42A     -0.763298
      43A     -0.760520    44A     -0.755539    45A     -0.745829
      46A     -0.741679    47A     -0.714920    48A     -0.693075
      49A     -0.666554    50A     -0.637572    51A     -0.630550
      52A     -0.604532    53A     -0.556444    54A     -0.550133
      55A     -0.544531    56A     -0.540358    57A     -0.539464
      58A     -0.534551    59A     -0.522741    60A     -0.509612
      61A     -0.494519    62A     -0.492331    63A     -0.487011
      64A     -0.446026    65A     -0.444105

  @DF-RHF Final Energy: -1029.04702344722864

   => Energetics <=

    Nuclear Repulsion Energy =           1345.4263429169791380
    One-Electron Energy =               -4082.3414618320284717
    Two-Electron Energy =                1707.8680954678206945
    Total Energy =                      -1029.0470234472286393
  Basis Set: (AUG-CC-PVTZ AUX)
    Blend: AUG-CC-PVTZ-RI
    Molecular point group: c1

    Geometry (in Angstrom), charge = 0, multiplicity = 1:

       Center              X                  Y                   Z               Mass
    ------------   -----------------  -----------------  -----------------  -----------------
         O           -2.916325751395    -0.479931683975     1.017272847636    15.994914619570
         O           -2.971582751395     0.513000316025    -1.040032152364    15.994914619570
         O           -0.316431751395    -3.432788683975     0.467594847636    15.994914619570
         O           -0.262434751395     3.445127316025    -0.476717152364    15.994914619570
         O           -1.904656751395    -2.483657683975    -0.748639152364    15.994914619570
         O           -1.844169751395     2.519030316025     0.767933847636    15.994914619570
         O            3.956292248605    -1.140659683975    -0.020581152364    15.994914619570
         O            3.978498248605     1.067423316025     0.046413847636    15.994914619570
         N           -0.847382751395    -2.465542683975    -0.099118152364    14.003074004430
         N           -0.800165751395     2.486506316025     0.097777847636    14.003074004430
         N            3.403511248605    -0.030885683975     0.010274847636    14.003074004430
         C           -0.867726751395     0.012682316025    -0.008406152364    12.000000000000
         C           -0.137719751395    -1.178654683975    -0.020254152364    12.000000000000
         C           -0.112760751395     1.188444316025     0.008593847636    12.000000000000
         C            1.977141948605    -0.016091283975     0.003384347636    12.000000000000
         C            1.250695248605    -1.228205683975    -0.000152152364    12.000000000000
         C            1.275424248605     1.211147316025     0.005210847636    12.000000000000
         C           -2.370003751395     0.052408316025    -0.092383152364    12.000000000000
         H            1.780062248605    -2.174276683975     0.007250847636     1.007825032230
         H            1.823331248605     2.146721316025     0.005854847636     1.007825032230
         H           -3.889260751395    -0.451184683975     0.890922847636     1.007825032230

  Basis Set: AUG-CC-PVTZ
    Blend: AUG-CC-PVTZ
  Basis Set: (AUG-CC-PVTZ AUX)
    Blend: AUG-CC-PVTZ-JKFIT
	 Reference Energy          =   -1029.0470234472286393 [Eh]
	 Singles Energy            =      -0.0000000000000000 [Eh]
	 Same-Spin Energy          =      -1.0498795744165712 [Eh]
	 Opposite-Spin Energy      =      -2.9501595171119441 [Eh]
	 Correlation Energy        =      -4.0000390915285156 [Eh]
	 Total Energy              =   -1033.0470625387572454 [Eh]

	 ================> DF-SCS-MP2 Energies <==================
	-----------------------------------------------------------
	 SCS Same-Spin Scale       =       0.3333333333333333 [-]
	 SCS Opposite-Spin Scale   =       1.2000000000000000 [-]
	 SCS Same-Spin Energy      =      -0.3499598581388570 [Eh]
	 SCS Opposite-Spin Energy  =      -3.5401914205343328 [Eh]
	 SCS Correlation Energy    =      -3.8901512786731898 [Eh]
	 SCS Total Energy          =   -1032.9371747259017411 [Eh]
	-----------------------------------------------------------

  Dipole Moment: [D]
     X:    -0.1267      Y:    -0.6182      Z:     1.1898     Total:     1.3468

*** Psi4 exiting successfully. Buy a developer a beer!
