                               Psi4 1.4a3.dev225

  ==> Input File <==

--------------------------------------------------------------------------
#psi4
#
memory 32 gb

molecule  {
0 1
  O       -2.9128620    -0.4781290     1.0138340
  O       -2.9681190     0.5148030    -1.0434710
  O       -0.3129680    -3.4309860     0.4641560
  O       -0.2589710     3.4469300    -0.4801560
  O       -1.9011930    -2.4818550    -0.7520780
  O       -1.8407060     2.5208330     0.7644950
  O        3.9597560    -1.1388570    -0.0240200
  O        3.9819620     1.0692260     0.0429750
  N       -0.8439190    -2.4637400    -0.1025570
  N       -0.7967020     2.4883090     0.0943390
  N        3.4069750    -0.0290830     0.0068360
  C       -0.8642630     0.0144850    -0.0118450
  C       -0.1342560    -1.1768520    -0.0236930
  C       -0.1092970     1.1902470     0.0051550
  C        1.9306090    -0.0137700    -0.0002960
  C        1.2541590    -1.2264030    -0.0035910
  C        1.2788880     1.2129500     0.0017720
  C       -2.3462540     0.0739778    -0.1370257
  H        1.7835260    -2.1724740     0.0038120
  H        1.8267950     2.1485240     0.0024160
  H       -3.8857970    -0.4493820     0.8874840
units angstrom
no_reorient  #important for SAPT in psi4, default
symmetry c1  #important for SAPT in psi4, default
}

set PROPERTIES_ORIGIN ["COM"]
properties('MP2/aug-cc-pvtz', properties = ['dipole'])
--------------------------------------------------------------------------

    Molecular point group: c1
  Charge       = 0
  Multiplicity = 1
  Basis Set: AUG-CC-PVTZ
    Blend: AUG-CC-PVTZ
  Basis Set: (AUG-CC-PVTZ AUX)
    Blend: AUG-CC-PVTZ-JKFIT

    Orbital Energies [Eh]
    ---------------------

    Doubly Occupied:

       1A    -20.652616     2A    -20.652534     3A    -20.651576
       4A    -20.651518     5A    -20.651402     6A    -20.651347
       7A    -20.642838     8A    -20.603845     9A    -15.902929
      10A    -15.902815    11A    -15.901370    12A    -11.449922
      13A    -11.388419    14A    -11.386907    15A    -11.381674
      16A    -11.376682    17A    -11.356928    18A    -11.356617
      19A     -1.636521    20A     -1.635681    21A     -1.635051
      22A     -1.499927    23A     -1.436641    24A     -1.435666
      25A     -1.435359    26A     -1.405802    27A     -1.292131
      28A     -1.186348    29A     -1.182551    30A     -1.059446
      31A     -1.036745    32A     -1.029210    33A     -0.920241
      34A     -0.884778    35A     -0.869681    36A     -0.836162
      37A     -0.804223    38A     -0.790303    39A     -0.789448
      40A     -0.772869    41A     -0.765055    42A     -0.763290
      43A     -0.758057    44A     -0.754212    45A     -0.745642
      46A     -0.740065    47A     -0.716876    48A     -0.691723
      49A     -0.661722    50A     -0.645916    51A     -0.634584
      52A     -0.607801    53A     -0.556058    54A     -0.550371
      55A     -0.543633    56A     -0.540526    57A     -0.537040
      58A     -0.535512    59A     -0.528763    60A     -0.510911
      61A     -0.494744    62A     -0.491620    63A     -0.489055
      64A     -0.449737    65A     -0.447181

  @DF-RHF Final Energy: -1029.04694096378034

   => Energetics <=

    Nuclear Repulsion Energy =           1346.0492202378500224
    One-Electron Energy =               -4083.5986846000091646
    Two-Electron Energy =                1708.5025233983787984
    Total Energy =                      -1029.0469409637803437
  Basis Set: (AUG-CC-PVTZ AUX)
    Blend: AUG-CC-PVTZ-RI
    Molecular point group: c1

    Geometry (in Angstrom), charge = 0, multiplicity = 1:

       Center              X                  Y                   Z               Mass
    ------------   -----------------  -----------------  -----------------  -----------------
         O           -2.914938438247    -0.480878891618     1.019208092207    15.994914619570
         O           -2.970195438247     0.512053108382    -1.038096907793    15.994914619570
         O           -0.315044438247    -3.433735891618     0.469530092207    15.994914619570
         O           -0.261047438247     3.444180108382    -0.474781907793    15.994914619570
         O           -1.903269438247    -2.484604891618    -0.746703907793    15.994914619570
         O           -1.842782438247     2.518083108382     0.769869092207    15.994914619570
         O            3.957679561753    -1.141606891618    -0.018645907793    15.994914619570
         O            3.979885561753     1.066476108382     0.048349092207    15.994914619570
         N           -0.845995438247    -2.466489891618    -0.097182907793    14.003074004430
         N           -0.798778438247     2.485559108382     0.099713092207    14.003074004430
         N            3.404898561753    -0.031832891618     0.012210092207    14.003074004430
         C           -0.866339438247     0.011735108382    -0.006470907793    12.000000000000
         C           -0.136332438247    -1.179601891618    -0.018318907793    12.000000000000
         C           -0.111373438247     1.187497108382     0.010529092207    12.000000000000
         C            1.928532561753    -0.016519891618     0.005078092207    12.000000000000
         C            1.252082561753    -1.229152891618     0.001783092207    12.000000000000
         C            1.276811561753     1.210200108382     0.007146092207    12.000000000000
         C           -2.348330438247     0.071227908382    -0.131651607793    12.000000000000
         H            1.781449561753    -2.175223891618     0.009186092207     1.007825032230
         H            1.824718561753     2.145774108382     0.007790092207     1.007825032230
         H           -3.887873438247    -0.452131891618     0.892858092207     1.007825032230

  Basis Set: AUG-CC-PVTZ
    Blend: AUG-CC-PVTZ
  Basis Set: (AUG-CC-PVTZ AUX)
    Blend: AUG-CC-PVTZ-JKFIT
	 Reference Energy          =   -1029.0469409637803437 [Eh]
	 Singles Energy            =      -0.0000000000000000 [Eh]
	 Same-Spin Energy          =      -1.0498433029682321 [Eh]
	 Opposite-Spin Energy      =      -2.9505613821419976 [Eh]
	 Correlation Energy        =      -4.0004046851102295 [Eh]
	 Total Energy              =   -1033.0473456488905413 [Eh]

	 ================> DF-SCS-MP2 Energies <==================
	-----------------------------------------------------------
	 SCS Same-Spin Scale       =       0.3333333333333333 [-]
	 SCS Opposite-Spin Scale   =       1.2000000000000000 [-]
	 SCS Same-Spin Energy      =      -0.3499477676560774 [Eh]
	 SCS Opposite-Spin Energy  =      -3.5406736585703968 [Eh]
	 SCS Correlation Energy    =      -3.8906214262264740 [Eh]
	 SCS Total Energy          =   -1032.9375623900068604 [Eh]
	-----------------------------------------------------------

  Dipole Moment: [D]
     X:     0.0819      Y:    -0.4711      Z:     0.8530     Total:     0.9779

*** Psi4 exiting successfully. Buy a developer a beer!
