                               Psi4 1.4a3.dev225

  ==> Input File <==

--------------------------------------------------------------------------
#psi4
#
memory 32 gb

molecule  {
0 1
  O       -2.9128620    -0.4781290     1.0138340
  O       -2.9681190     0.5148030    -1.0434710
  O       -0.3129680    -3.4309860     0.4641560
  O       -0.2589710     3.4469300    -0.4801560
  O       -1.9011930    -2.4818550    -0.7520780
  O       -1.8407060     2.5208330     0.7644950
  O        3.9597560    -1.1388570    -0.0240200
  O        3.9819620     1.0692260     0.0429750
  N       -0.8439190    -2.4637400    -0.1025570
  N       -0.7967020     2.4883090     0.0943390
  N        3.4069750    -0.0290830     0.0068360
  C       -0.8642630     0.0144850    -0.0118450
  C       -0.1342560    -1.1768520    -0.0236930
  C       -0.1092970     1.1902470     0.0051550
  C        1.9306090    -0.0137700    -0.0002960
  C        1.2541590    -1.2264030    -0.0035910
  C        1.2288948     1.2121324     0.0018938
  C       -2.3665400     0.0542110    -0.0958220
  H        1.7835260    -2.1724740     0.0038120
  H        1.8267950     2.1485240     0.0024160
  H       -3.8857970    -0.4493820     0.8874840
units angstrom
no_reorient  #important for SAPT in psi4, default
symmetry c1  #important for SAPT in psi4, default
}

set PROPERTIES_ORIGIN ["COM"]
properties('MP2/aug-cc-pvtz', properties = ['dipole'])
--------------------------------------------------------------------------

    Molecular point group: c1
  Charge       = 0
  Multiplicity = 1
  Basis Set: AUG-CC-PVTZ
    Blend: AUG-CC-PVTZ
  Basis Set: (AUG-CC-PVTZ AUX)
    Blend: AUG-CC-PVTZ-JKFIT

    Orbital Energies [Eh]
    ---------------------

    Doubly Occupied:

       1A    -20.657956     2A    -20.652936     3A    -20.652561
       4A    -20.651152     5A    -20.650442     6A    -20.650414
       7A    -20.650364     8A    -20.596498     9A    -15.903103
      10A    -15.902884    11A    -15.899942    12A    -11.452973
      13A    -11.386549    14A    -11.381255    15A    -11.380574
      16A    -11.376699    17A    -11.355130    18A    -11.352828
      19A     -1.636749    20A     -1.634833    21A     -1.633998
      22A     -1.506529    23A     -1.436821    24A     -1.434824
      25A     -1.434485    26A     -1.406142    27A     -1.293128
      28A     -1.186346    29A     -1.180943    30A     -1.058501
      31A     -1.036903    32A     -1.026300    33A     -0.924252
      34A     -0.883198    35A     -0.872888    36A     -0.837303
      37A     -0.803378    38A     -0.791897    39A     -0.788227
      40A     -0.775991    41A     -0.766005    42A     -0.763219
      43A     -0.757423    44A     -0.753750    45A     -0.745487
      46A     -0.741141    47A     -0.717441    48A     -0.693339
      49A     -0.666944    50A     -0.637848    51A     -0.630141
      52A     -0.610240    53A     -0.555639    54A     -0.550208
      55A     -0.544024    56A     -0.540567    57A     -0.536420
      58A     -0.534769    59A     -0.522524    60A     -0.509509
      61A     -0.494061    62A     -0.492336    63A     -0.487060
      64A     -0.452491    65A     -0.443672

  @DF-RHF Final Energy: -1029.04631685491404

   => Energetics <=

    Nuclear Repulsion Energy =           1346.4578939962273125
    One-Electron Energy =               -4084.4401163362399529
    Two-Electron Energy =                1708.9359054850983739
    Total Energy =                      -1029.0463168549140391
  Basis Set: (AUG-CC-PVTZ AUX)
    Blend: AUG-CC-PVTZ-RI
    Molecular point group: c1

    Geometry (in Angstrom), charge = 0, multiplicity = 1:

       Center              X                  Y                   Z               Mass
    ------------   -----------------  -----------------  -----------------  -----------------
         O           -2.911656817209    -0.479917722451     1.017278436915    15.994914619570
         O           -2.966913817209     0.513014277549    -1.040026563085    15.994914619570
         O           -0.311762817209    -3.432774722451     0.467600436915    15.994914619570
         O           -0.257765817209     3.445141277549    -0.476711563085    15.994914619570
         O           -1.899987817209    -2.483643722451    -0.748633563085    15.994914619570
         O           -1.839500817209     2.519044277549     0.767939436915    15.994914619570
         O            3.960961182791    -1.140645722451    -0.020575563085    15.994914619570
         O            3.983167182791     1.067437277549     0.046419436915    15.994914619570
         N           -0.842713817209    -2.465528722451    -0.099112563085    14.003074004430
         N           -0.795496817209     2.486520277549     0.097783436915    14.003074004430
         N            3.408180182791    -0.030871722451     0.010280436915    14.003074004430
         C           -0.863057817209     0.012696277549    -0.008400563085    12.000000000000
         C           -0.133050817209    -1.178640722451    -0.020248563085    12.000000000000
         C           -0.108091817209     1.188458277549     0.008599436915    12.000000000000
         C            1.931814182791    -0.015558722451     0.003148436915    12.000000000000
         C            1.255364182791    -1.228191722451    -0.000146563085    12.000000000000
         C            1.230099982791     1.210343677549     0.005338236915    12.000000000000
         C           -2.365334817209     0.052422277549    -0.092377563085    12.000000000000
         H            1.784731182791    -2.174262722451     0.007256436915     1.007825032230
         H            1.828000182791     2.146735277549     0.005860436915     1.007825032230
         H           -3.884591817209    -0.451170722451     0.890928436915     1.007825032230

  Basis Set: AUG-CC-PVTZ
    Blend: AUG-CC-PVTZ
  Basis Set: (AUG-CC-PVTZ AUX)
    Blend: AUG-CC-PVTZ-JKFIT
	 Reference Energy          =   -1029.0463168549140391 [Eh]
	 Singles Energy            =      -0.0000000000000000 [Eh]
	 Same-Spin Energy          =      -1.0500024219007864 [Eh]
	 Opposite-Spin Energy      =      -2.9504469812576524 [Eh]
	 Correlation Energy        =      -4.0004494031584388 [Eh]
	 Total Energy              =   -1033.0467662580724664 [Eh]

	 ================> DF-SCS-MP2 Energies <==================
	-----------------------------------------------------------
	 SCS Same-Spin Scale       =       0.3333333333333333 [-]
	 SCS Opposite-Spin Scale   =       1.2000000000000000 [-]
	 SCS Same-Spin Energy      =      -0.3500008073002621 [Eh]
	 SCS Opposite-Spin Energy  =      -3.5405363775091829 [Eh]
	 SCS Correlation Energy    =      -3.8905371848094452 [Eh]
	 SCS Total Energy          =   -1032.9368540397235847 [Eh]
	-----------------------------------------------------------

  Dipole Moment: [D]
     X:    -0.0905      Y:    -0.6296      Z:     1.1869     Total:     1.3466

*** Psi4 exiting successfully. Buy a developer a beer!
