                               Psi4 1.4a3.dev225

  ==> Input File <==

--------------------------------------------------------------------------
#psi4
#
memory 32 gb

molecule  {
0 1
  O       -2.9128620    -0.4781290     1.0138340
  O       -2.9681190     0.5148030    -1.0434710
  O       -0.3129680    -3.4309860     0.4641560
  O       -0.2589710     3.4469300    -0.4801560
  O       -1.9011930    -2.4818550    -0.7520780
  O       -1.8407060     2.5208330     0.7644950
  O        3.9597560    -1.1388570    -0.0240200
  O        3.9819620     1.0692260     0.0429750
  N       -0.8439190    -2.4637400    -0.1025570
  N       -0.7967020     2.4883090     0.0943390
  N        3.4069750    -0.0290830     0.0068360
  C       -0.8642630     0.0144850    -0.0118450
  C       -0.1342560    -1.1768520    -0.0236930
  C       -0.1092970     1.1902470     0.0051550
  C        1.9306090    -0.0137700    -0.0002960
  C        1.3540849    -1.2299692    -0.0021442
  C        1.2788880     1.2129500     0.0017720
  C       -2.3665400     0.0542110    -0.0958220
  H        1.7835260    -2.1724740     0.0038120
  H        1.8267950     2.1485240     0.0024160
  H       -3.8857970    -0.4493820     0.8874840
units angstrom
no_reorient  #important for SAPT in psi4, default
symmetry c1  #important for SAPT in psi4, default
}

set PROPERTIES_ORIGIN ["COM"]
properties('MP2/aug-cc-pvtz', properties = ['dipole'])
--------------------------------------------------------------------------

    Molecular point group: c1
  Charge       = 0
  Multiplicity = 1
  Basis Set: AUG-CC-PVTZ
    Blend: AUG-CC-PVTZ
  Basis Set: (AUG-CC-PVTZ AUX)
    Blend: AUG-CC-PVTZ-JKFIT

    Orbital Energies [Eh]
    ---------------------

    Doubly Occupied:

       1A    -20.657020     2A    -20.652307     3A    -20.651861
       4A    -20.650979     5A    -20.650299     6A    -20.650093
       7A    -20.649496     8A    -20.595525     9A    -15.902885
      10A    -15.900213    11A    -15.899808    12A    -11.452106
      13A    -11.394183    14A    -11.386145    15A    -11.378664
      16A    -11.374593    17A    -11.360215    18A    -11.357302
      19A     -1.635977    20A     -1.634830    21A     -1.633764
      22A     -1.505578    23A     -1.436166    24A     -1.434809
      25A     -1.434310    26A     -1.405218    27A     -1.287185
      28A     -1.191134    29A     -1.173569    30A     -1.053650
      31A     -1.034727    32A     -1.030981    33A     -0.923724
      34A     -0.884275    35A     -0.869989    36A     -0.837057
      37A     -0.803367    38A     -0.795807    39A     -0.783858
      40A     -0.777725    41A     -0.765391    42A     -0.763588
      43A     -0.757187    44A     -0.753596    45A     -0.746627
      46A     -0.741360    47A     -0.714759    48A     -0.683497
      49A     -0.673589    50A     -0.654758    51A     -0.627474
      52A     -0.606010    53A     -0.554905    54A     -0.549406
      55A     -0.544638    56A     -0.539715    57A     -0.534599
      58A     -0.534068    59A     -0.522232    60A     -0.508677
      61A     -0.493973    62A     -0.492073    63A     -0.486995
      64A     -0.455447    65A     -0.436118

  @DF-RHF Final Energy: -1029.03731000967787

   => Energetics <=

    Nuclear Repulsion Energy =           1344.6878665031595119
    One-Electron Energy =               -4080.9062085508417113
    Two-Electron Energy =                1707.1810320380043322
    Total Energy =                      -1029.0373100096778671
  Basis Set: (AUG-CC-PVTZ AUX)
    Blend: AUG-CC-PVTZ-RI
    Molecular point group: c1

    Geometry (in Angstrom), charge = 0, multiplicity = 1:

       Center              X                  Y                   Z               Mass
    ------------   -----------------  -----------------  -----------------  -----------------
         O           -2.918657148353    -0.479789379164     1.017216567288    15.994914619570
         O           -2.973914148353     0.513142620836    -1.040088432712    15.994914619570
         O           -0.318763148353    -3.432646379164     0.467538567288    15.994914619570
         O           -0.264766148353     3.445269620836    -0.476773432712    15.994914619570
         O           -1.906988148353    -2.483515379164    -0.748695432712    15.994914619570
         O           -1.846501148353     2.519172620836     0.767877567288    15.994914619570
         O            3.953960851647    -1.140517379164    -0.020637432712    15.994914619570
         O            3.976166851647     1.067565620836     0.046357567288    15.994914619570
         N           -0.849714148353    -2.465400379164    -0.099174432712    14.003074004430
         N           -0.802497148353     2.486648620836     0.097721567288    14.003074004430
         N            3.401179851647    -0.030743379164     0.010218567288    14.003074004430
         C           -0.870058148353     0.012824620836    -0.008462432712    12.000000000000
         C           -0.140051148353    -1.178512379164    -0.020310432712    12.000000000000
         C           -0.115092148353     1.188586620836     0.008537567288    12.000000000000
         C            1.924813851647    -0.015430379164     0.003086567288    12.000000000000
         C            1.348289751647    -1.231629579164     0.001238367288    12.000000000000
         C            1.273092851647     1.211289620836     0.005154567288    12.000000000000
         C           -2.372335148353     0.052550620836    -0.092439432712    12.000000000000
         H            1.777730851647    -2.174134379164     0.007194567288     1.007825032230
         H            1.820999851647     2.146863620836     0.005798567288     1.007825032230
         H           -3.891592148353    -0.451042379164     0.890866567288     1.007825032230

  Basis Set: AUG-CC-PVTZ
    Blend: AUG-CC-PVTZ
  Basis Set: (AUG-CC-PVTZ AUX)
    Blend: AUG-CC-PVTZ-JKFIT
	 Reference Energy          =   -1029.0373100096778671 [Eh]
	 Singles Energy            =      -0.0000000000000000 [Eh]
	 Same-Spin Energy          =      -1.0498204339688990 [Eh]
	 Opposite-Spin Energy      =      -2.9509872998479141 [Eh]
	 Correlation Energy        =      -4.0008077338168135 [Eh]
	 Total Energy              =   -1033.0381177434946949 [Eh]

	 ================> DF-SCS-MP2 Energies <==================
	-----------------------------------------------------------
	 SCS Same-Spin Scale       =       0.3333333333333333 [-]
	 SCS Opposite-Spin Scale   =       1.2000000000000000 [-]
	 SCS Same-Spin Energy      =      -0.3499401446562996 [Eh]
	 SCS Opposite-Spin Energy  =      -3.5411847598174968 [Eh]
	 SCS Correlation Energy    =      -3.8911249044737963 [Eh]
	 SCS Total Energy          =   -1032.9284349141516941 [Eh]
	-----------------------------------------------------------

  Dipole Moment: [D]
     X:    -0.2148      Y:    -0.6302      Z:     1.1831     Total:     1.3576

*** Psi4 exiting successfully. Buy a developer a beer!
