                               Psi4 1.4a3.dev225

  ==> Input File <==

--------------------------------------------------------------------------
#psi4
#
memory 32 gb

molecule  {
0 1
  O       -2.9128620    -0.4781290     1.0138340
  O       -2.9681190     0.5148030    -1.0434710
  O       -0.3129680    -3.4309860     0.4641560
  O       -0.2589710     3.4469300    -0.4801560
  O       -1.9011930    -2.4818550    -0.7520780
  O       -1.8407060     2.5208330     0.7644950
  O        3.9597560    -1.1388570    -0.0240200
  O        3.9819620     1.0692260     0.0429750
  N       -0.8439190    -2.4637400    -0.1025570
  N       -0.7967020     2.4883090     0.0943390
  N        3.4069750    -0.0290830     0.0068360
  C       -0.8642630     0.0144850    -0.0118450
  C       -0.2191411    -1.2248656    -0.0245816
  C       -0.1092970     1.1902470     0.0051550
  C        1.9306090    -0.0137700    -0.0002960
  C        1.2541590    -1.2264030    -0.0035910
  C        1.2788880     1.2129500     0.0017720
  C       -2.3665400     0.0542110    -0.0958220
  H        1.7835260    -2.1724740     0.0038120
  H        1.8267950     2.1485240     0.0024160
  H       -3.8857970    -0.4493820     0.8874840
units angstrom
no_reorient  #important for SAPT in psi4, default
symmetry c1  #important for SAPT in psi4, default
}

set PROPERTIES_ORIGIN ["COM"]
properties('MP2/aug-cc-pvtz', properties = ['dipole'])
--------------------------------------------------------------------------

    Molecular point group: c1
  Charge       = 0
  Multiplicity = 1
  Basis Set: AUG-CC-PVTZ
    Blend: AUG-CC-PVTZ
  Basis Set: (AUG-CC-PVTZ AUX)
    Blend: AUG-CC-PVTZ-JKFIT

    Orbital Energies [Eh]
    ---------------------

    Doubly Occupied:

       1A    -20.656903     2A    -20.653256     3A    -20.652024
       4A    -20.651446     5A    -20.650634     6A    -20.649679
       7A    -20.649603     8A    -20.594487     9A    -15.904042
      10A    -15.902807    11A    -15.900348    12A    -11.449785
      13A    -11.387827    14A    -11.384476    15A    -11.380059
      16A    -11.377519    17A    -11.366855    18A    -11.358951
      19A     -1.645316    20A     -1.635280    21A     -1.633377
      22A     -1.505331    23A     -1.439900    24A     -1.435242
      25A     -1.433907    26A     -1.404567    27A     -1.285297
      28A     -1.194492    29A     -1.180430    30A     -1.066254
      31A     -1.036929    32A     -1.026933    33A     -0.921988
      34A     -0.886373    35A     -0.868227    36A     -0.837747
      37A     -0.806475    38A     -0.794999    39A     -0.787854
      40A     -0.778166    41A     -0.770458    42A     -0.763492
      43A     -0.758280    44A     -0.754849    45A     -0.746055
      46A     -0.741750    47A     -0.713531    48A     -0.682236
      49A     -0.667014    50A     -0.645481    51A     -0.624441
      52A     -0.602389    53A     -0.558208    54A     -0.550878
      55A     -0.546026    56A     -0.539819    57A     -0.538937
      58A     -0.534630    59A     -0.522840    60A     -0.506485
      61A     -0.494332    62A     -0.493608    63A     -0.486701
      64A     -0.450366    65A     -0.437432

  @DF-RHF Final Energy: -1029.03885366190093

   => Energetics <=

    Nuclear Repulsion Energy =           1345.8279058029770567
    One-Electron Energy =               -4083.1214716029180636
    Two-Electron Energy =                1708.2547121380400768
    Total Energy =                      -1029.0388536619009301
  Basis Set: (AUG-CC-PVTZ AUX)
    Blend: AUG-CC-PVTZ-RI
    Molecular point group: c1

    Geometry (in Angstrom), charge = 0, multiplicity = 1:

       Center              X                  Y                   Z               Mass
    ------------   -----------------  -----------------  -----------------  -----------------
         O           -2.910027572808    -0.477713949692     1.017325616591    15.994914619570
         O           -2.965284572808     0.515218050308    -1.039979383409    15.994914619570
         O           -0.310133572808    -3.430570949692     0.467647616591    15.994914619570
         O           -0.256136572808     3.447345050308    -0.476664383409    15.994914619570
         O           -1.898358572808    -2.481439949692    -0.748586383409    15.994914619570
         O           -1.837871572808     2.521248050308     0.767986616591    15.994914619570
         O            3.962590427192    -1.138441949692    -0.020528383409    15.994914619570
         O            3.984796427192     1.069641050308     0.046466616591    15.994914619570
         N           -0.841084572808    -2.463324949692    -0.099065383409    14.003074004430
         N           -0.793867572808     2.488724050308     0.097830616591    14.003074004430
         N            3.409809427192    -0.028667949692     0.010327616591    14.003074004430
         C           -0.861428572808     0.014900050308    -0.008353383409    12.000000000000
         C           -0.216306672808    -1.224450549692    -0.021089983409    12.000000000000
         C           -0.106462572808     1.190662050308     0.008646616591    12.000000000000
         C            1.933443427192    -0.013354949692     0.003195616591    12.000000000000
         C            1.256993427192    -1.225987949692    -0.000099383409    12.000000000000
         C            1.281722427192     1.213365050308     0.005263616591    12.000000000000
         C           -2.363705572808     0.054626050308    -0.092330383409    12.000000000000
         H            1.786360427192    -2.172058949692     0.007303616591     1.007825032230
         H            1.829629427192     2.148939050308     0.005907616591     1.007825032230
         H           -3.882962572808    -0.448966949692     0.890975616591     1.007825032230

  Basis Set: AUG-CC-PVTZ
    Blend: AUG-CC-PVTZ
  Basis Set: (AUG-CC-PVTZ AUX)
    Blend: AUG-CC-PVTZ-JKFIT
	 Reference Energy          =   -1029.0388536619009301 [Eh]
	 Singles Energy            =      -0.0000000000000000 [Eh]
	 Same-Spin Energy          =      -1.0500596586005411 [Eh]
	 Opposite-Spin Energy      =      -2.9504466753171532 [Eh]
	 Correlation Energy        =      -4.0005063339176941 [Eh]
	 Total Energy              =   -1033.0393599958185860 [Eh]

	 ================> DF-SCS-MP2 Energies <==================
	-----------------------------------------------------------
	 SCS Same-Spin Scale       =       0.3333333333333333 [-]
	 SCS Opposite-Spin Scale   =       1.2000000000000000 [-]
	 SCS Same-Spin Energy      =      -0.3500198862001803 [Eh]
	 SCS Opposite-Spin Energy  =      -3.5405360103805839 [Eh]
	 SCS Correlation Energy    =      -3.8905558965807643 [Eh]
	 SCS Total Energy          =   -1032.9294095584816660 [Eh]
	-----------------------------------------------------------

  Dipole Moment: [D]
     X:    -0.1569      Y:    -0.6290      Z:     1.2053     Total:     1.3686

*** Psi4 exiting successfully. Buy a developer a beer!
