                               Psi4 1.4a3.dev225

  ==> Input File <==

--------------------------------------------------------------------------
#psi4
#
memory 32 gb

molecule  {
0 1
  O       -2.9128620    -0.4781290     1.0138340
  O       -2.9681190     0.5148030    -1.0434710
  O       -0.3129680    -3.4309860     0.4641560
  O       -0.2589710     3.4469300    -0.4801560
  O       -1.9011930    -2.4818550    -0.7520780
  O       -1.8407060     2.5208330     0.7644950
  O        3.9597560    -1.1388570    -0.0240200
  O        3.9819620     1.0692260     0.0429750
  N       -0.8439190    -2.4637400    -0.1025570
  N       -0.7967020     2.4883090     0.0943390
  N        3.4069750    -0.0290830     0.0068360
  C       -0.8642630     0.0144850    -0.0118450
  C       -0.1824764    -1.2642939    -0.0290517
  C       -0.1092970     1.1902470     0.0051550
  C        1.9306090    -0.0137700    -0.0002960
  C        1.2541590    -1.2264030    -0.0035910
  C        1.2788880     1.2129500     0.0017720
  C       -2.3665400     0.0542110    -0.0958220
  H        1.7835260    -2.1724740     0.0038120
  H        1.8267950     2.1485240     0.0024160
  H       -3.8857970    -0.4493820     0.8874840
units angstrom
no_reorient  #important for SAPT in psi4, default
symmetry c1  #important for SAPT in psi4, default
}

set PROPERTIES_ORIGIN ["COM"]
properties('MP2/aug-cc-pvtz', properties = ['dipole'])
--------------------------------------------------------------------------

    Molecular point group: c1
  Charge       = 0
  Multiplicity = 1
  Basis Set: AUG-CC-PVTZ
    Blend: AUG-CC-PVTZ
  Basis Set: (AUG-CC-PVTZ AUX)
    Blend: AUG-CC-PVTZ-JKFIT

    Orbital Energies [Eh]
    ---------------------

    Doubly Occupied:

       1A    -20.657076     2A    -20.651762     3A    -20.651704
       4A    -20.650799     5A    -20.650558     6A    -20.650553
       7A    -20.650292     8A    -20.594981     9A    -15.903047
      10A    -15.902786    11A    -15.900970    12A    -11.450435
      13A    -11.387629    14A    -11.385416    15A    -11.383401
      16A    -11.380049    17A    -11.363354    18A    -11.360021
      19A     -1.646647    20A     -1.635030    21A     -1.634088
      22A     -1.505491    23A     -1.439782    24A     -1.434972
      25A     -1.434606    26A     -1.404889    27A     -1.284104
      28A     -1.196145    29A     -1.181439    30A     -1.065429
      31A     -1.039570    32A     -1.029212    33A     -0.920445
      34A     -0.883116    35A     -0.869204    36A     -0.838154
      37A     -0.804114    38A     -0.798178    39A     -0.788609
      40A     -0.778001    41A     -0.771181    42A     -0.764070
      43A     -0.757938    44A     -0.754678    45A     -0.746939
      46A     -0.742161    47A     -0.712914    48A     -0.683602
      49A     -0.667655    50A     -0.642347    51A     -0.624381
      52A     -0.601192    53A     -0.558734    54A     -0.550812
      55A     -0.546508    56A     -0.539722    57A     -0.539366
      58A     -0.534732    59A     -0.523011    60A     -0.507187
      61A     -0.494149    62A     -0.493380    63A     -0.487241
      64A     -0.445894    65A     -0.440133

  @DF-RHF Final Energy: -1029.03777040753516

   => Energetics <=

    Nuclear Repulsion Energy =           1345.4585429457029022
    One-Electron Energy =               -4082.3606550117415281
    Two-Electron Energy =                1707.8643416585034629
    Total Energy =                      -1029.0377704075351630
  Basis Set: (AUG-CC-PVTZ AUX)
    Blend: AUG-CC-PVTZ-RI
    Molecular point group: c1

    Geometry (in Angstrom), charge = 0, multiplicity = 1:

       Center              X                  Y                   Z               Mass
    ------------   -----------------  -----------------  -----------------  -----------------
         O           -2.911739596435    -0.475872882367     1.017534343700    15.994914619570
         O           -2.966996596435     0.517059117633    -1.039770656300    15.994914619570
         O           -0.311845596435    -3.428729882367     0.467856343700    15.994914619570
         O           -0.257848596435     3.449186117633    -0.476455656300    15.994914619570
         O           -1.900070596435    -2.479598882367    -0.748377656300    15.994914619570
         O           -1.839583596435     2.523089117633     0.768195343700    15.994914619570
         O            3.960878403565    -1.136600882367    -0.020319656300    15.994914619570
         O            3.983084403565     1.071482117633     0.046675343700    15.994914619570
         N           -0.842796596435    -2.461483882367    -0.098856656300    14.003074004430
         N           -0.795579596435     2.490565117633     0.098039343700    14.003074004430
         N            3.408097403565    -0.026826882367     0.010536343700    14.003074004430
         C           -0.863140596435     0.016741117633    -0.008144656300    12.000000000000
         C           -0.181353996435    -1.262037782367    -0.025351356300    12.000000000000
         C           -0.108174596435     1.192503117633     0.008855343700    12.000000000000
         C            1.931731403565    -0.011513882367     0.003404343700    12.000000000000
         C            1.255281403565    -1.224146882367     0.000109343700    12.000000000000
         C            1.280010403565     1.215206117633     0.005472343700    12.000000000000
         C           -2.365417596435     0.056467117633    -0.092121656300    12.000000000000
         H            1.784648403565    -2.170217882367     0.007512343700     1.007825032230
         H            1.827917403565     2.150780117633     0.006116343700     1.007825032230
         H           -3.884674596435    -0.447125882367     0.891184343700     1.007825032230

  Basis Set: AUG-CC-PVTZ
    Blend: AUG-CC-PVTZ
  Basis Set: (AUG-CC-PVTZ AUX)
    Blend: AUG-CC-PVTZ-JKFIT
	 Reference Energy          =   -1029.0377704075351630 [Eh]
	 Singles Energy            =      -0.0000000000000000 [Eh]
	 Same-Spin Energy          =      -1.0502973554022375 [Eh]
	 Opposite-Spin Energy      =      -2.9504564688404669 [Eh]
	 Correlation Energy        =      -4.0007538242427039 [Eh]
	 Total Energy              =   -1033.0385242317779557 [Eh]

	 ================> DF-SCS-MP2 Energies <==================
	-----------------------------------------------------------
	 SCS Same-Spin Scale       =       0.3333333333333333 [-]
	 SCS Opposite-Spin Scale   =       1.2000000000000000 [-]
	 SCS Same-Spin Energy      =      -0.3500991184674125 [Eh]
	 SCS Opposite-Spin Energy  =      -3.5405477626085600 [Eh]
	 SCS Correlation Energy    =      -3.8906468810759725 [Eh]
	 SCS Total Energy          =   -1032.9284172886111719 [Eh]
	-----------------------------------------------------------

  Dipole Moment: [D]
     X:    -0.1258      Y:    -0.6461      Z:     1.1888     Total:     1.3589

*** Psi4 exiting successfully. Buy a developer a beer!
