                               Psi4 1.4a3.dev225

  ==> Input File <==

--------------------------------------------------------------------------
#psi4
#
memory 32 gb

molecule  {
0 1
  O       -2.9128620    -0.4781290     1.0138340
  O       -2.9681190     0.5148030    -1.0434710
  O       -0.3129680    -3.4309860     0.4641560
  O       -0.2589710     3.4469300    -0.4801560
  O       -1.9011930    -2.4818550    -0.7520780
  O       -1.8407060     2.5208330     0.7644950
  O        3.9597560    -1.1388570    -0.0240200
  O        3.9819620     1.0692260     0.0429750
  N       -0.8439190    -2.4637400    -0.1025570
  N       -0.7967020     2.4883090     0.0943390
  N        3.4069750    -0.0290830     0.0068360
  C       -0.8642630     0.0144850    -0.0118450
  C       -0.1342560    -1.1768520    -0.0236930
  C       -0.1092970     1.1902470     0.0051550
  C        1.8306155    -0.0127329    -0.0007790
  C        1.2541590    -1.2264030    -0.0035910
  C        1.2788880     1.2129500     0.0017720
  C       -2.3665400     0.0542110    -0.0958220
  H        1.7835260    -2.1724740     0.0038120
  H        1.8267950     2.1485240     0.0024160
  H       -3.8857970    -0.4493820     0.8874840
units angstrom
no_reorient  #important for SAPT in psi4, default
symmetry c1  #important for SAPT in psi4, default
}

set PROPERTIES_ORIGIN ["COM"]
properties('MP2/aug-cc-pvtz', properties = ['dipole'])
--------------------------------------------------------------------------

    Molecular point group: c1
  Charge       = 0
  Multiplicity = 1
  Basis Set: AUG-CC-PVTZ
    Blend: AUG-CC-PVTZ
  Basis Set: (AUG-CC-PVTZ AUX)
    Blend: AUG-CC-PVTZ-JKFIT

    Orbital Energies [Eh]
    ---------------------

    Doubly Occupied:

       1A    -20.657293     2A    -20.653636     3A    -20.653375
       4A    -20.651035     5A    -20.650840     6A    -20.648752
       7A    -20.648689     8A    -20.595414     9A    -15.903083
      10A    -15.900370    11A    -15.895519    12A    -11.452030
      13A    -11.388545    14A    -11.387381    15A    -11.380578
      16A    -11.372999    17A    -11.350675    18A    -11.350453
      19A     -1.637375    20A     -1.634411    21A     -1.624961
      22A     -1.505764    23A     -1.437461    24A     -1.434961
      25A     -1.429585    26A     -1.405277    27A     -1.300160
      28A     -1.185381    29A     -1.180023    30A     -1.053388
      31A     -1.039014    32A     -1.018444    33A     -0.921912
      34A     -0.885032    35A     -0.872235    36A     -0.834928
      37A     -0.805496    38A     -0.789867    39A     -0.787184
      40A     -0.774851    41A     -0.765883    42A     -0.763959
      43A     -0.753518    44A     -0.746580    45A     -0.744064
      46A     -0.741586    47A     -0.719156    48A     -0.688949
      49A     -0.675648    50A     -0.657544    51A     -0.629513
      52A     -0.617852    53A     -0.554550    54A     -0.550233
      55A     -0.544489    56A     -0.539175    57A     -0.534449
      58A     -0.522781    59A     -0.522473    60A     -0.509243
      61A     -0.492915    62A     -0.491232    63A     -0.487493
      64A     -0.453304    65A     -0.448482

  @DF-RHF Final Energy: -1029.03811289064379

   => Energetics <=

    Nuclear Repulsion Energy =           1346.7623038753558831
    One-Electron Energy =               -4085.0939410222381412
    Two-Electron Energy =                1709.2935242562384701
    Total Energy =                      -1029.0381128906437880
  Basis Set: (AUG-CC-PVTZ AUX)
    Blend: AUG-CC-PVTZ-RI
    Molecular point group: c1

    Geometry (in Angstrom), charge = 0, multiplicity = 1:

       Center              X                  Y                   Z               Mass
    ------------   -----------------  -----------------  -----------------  -----------------
         O           -2.909322100303    -0.480004325921     1.017306677481    15.994914619570
         O           -2.964579100303     0.512927674079    -1.039998322519    15.994914619570
         O           -0.309428100303    -3.432861325921     0.467628677481    15.994914619570
         O           -0.255431100303     3.445054674079    -0.476683322519    15.994914619570
         O           -1.897653100303    -2.483730325921    -0.748605322519    15.994914619570
         O           -1.837166100303     2.518957674079     0.767967677481    15.994914619570
         O            3.963295899697    -1.140732325921    -0.020547322519    15.994914619570
         O            3.985501899697     1.067350674079     0.046447677481    15.994914619570
         N           -0.840379100303    -2.465615325921    -0.099084322519    14.003074004430
         N           -0.793162100303     2.486433674079     0.097811677481    14.003074004430
         N            3.410514899697    -0.030958325921     0.010308677481    14.003074004430
         C           -0.860723100303     0.012609674079    -0.008372322519    12.000000000000
         C           -0.130716100303    -1.178727325921    -0.020220322519    12.000000000000
         C           -0.105757100303     1.188371674079     0.008627677481    12.000000000000
         C            1.834155399697    -0.014608225921     0.002693677481    12.000000000000
         C            1.257698899697    -1.228278325921    -0.000118322519    12.000000000000
         C            1.282427899697     1.211074674079     0.005244677481    12.000000000000
         C           -2.363000100303     0.052335674079    -0.092349322519    12.000000000000
         H            1.787065899697    -2.174349325921     0.007284677481     1.007825032230
         H            1.830334899697     2.146648674079     0.005888677481     1.007825032230
         H           -3.882257100303    -0.451257325921     0.890956677481     1.007825032230

  Basis Set: AUG-CC-PVTZ
    Blend: AUG-CC-PVTZ
  Basis Set: (AUG-CC-PVTZ AUX)
    Blend: AUG-CC-PVTZ-JKFIT
	 Reference Energy          =   -1029.0381128906437880 [Eh]
	 Singles Energy            =      -0.0000000000000000 [Eh]
	 Same-Spin Energy          =      -1.0508745394194148 [Eh]
	 Opposite-Spin Energy      =      -2.9516227517367586 [Eh]
	 Correlation Energy        =      -4.0024972911561729 [Eh]
	 Total Energy              =   -1033.0406101818000479 [Eh]

	 ================> DF-SCS-MP2 Energies <==================
	-----------------------------------------------------------
	 SCS Same-Spin Scale       =       0.3333333333333333 [-]
	 SCS Opposite-Spin Scale   =       1.2000000000000000 [-]
	 SCS Same-Spin Energy      =      -0.3502915131398049 [Eh]
	 SCS Opposite-Spin Energy  =      -3.5419473020841101 [Eh]
	 SCS Correlation Energy    =      -3.8922388152239149 [Eh]
	 SCS Total Energy          =   -1032.9303517058676789 [Eh]
	-----------------------------------------------------------

  Dipole Moment: [D]
     X:    -0.2039      Y:    -0.6167      Z:     1.1914     Total:     1.3570

*** Psi4 exiting successfully. Buy a developer a beer!
