                               Psi4 1.4a3.dev225

  ==> Input File <==

--------------------------------------------------------------------------
#psi4
#
memory 32 gb

molecule  {
0 1
  O       -2.9128620    -0.4781290     1.0138340
  O       -2.9681190     0.5148030    -1.0434710
  O       -0.3129680    -3.4309860     0.4641560
  O       -0.2589710     3.4469300    -0.4801560
  O       -1.9011930    -2.4818550    -0.7520780
  O       -1.8407060     2.5208330     0.7644950
  O        3.9597560    -1.1388570    -0.0240200
  O        3.9819620     1.0692260     0.0429750
  N       -1.0143123    -2.4666595    -0.2072356
  N       -0.7967020     2.4883090     0.0943390
  N        3.4069750    -0.0290830     0.0068360
  C       -0.8642630     0.0144850    -0.0118450
  C       -0.1342560    -1.1768520    -0.0236930
  C       -0.1092970     1.1902470     0.0051550
  C        1.9306090    -0.0137700    -0.0002960
  C        1.2541590    -1.2264030    -0.0035910
  C        1.2788880     1.2129500     0.0017720
  C       -2.3665400     0.0542110    -0.0958220
  H        1.7835260    -2.1724740     0.0038120
  H        1.8267950     2.1485240     0.0024160
  H       -3.8857970    -0.4493820     0.8874840
units angstrom
no_reorient  #important for SAPT in psi4, default
symmetry c1  #important for SAPT in psi4, default
}

set PROPERTIES_ORIGIN ["COM"]
properties('MP2/aug-cc-pvtz', properties = ['dipole'])
--------------------------------------------------------------------------

    Molecular point group: c1
  Charge       = 0
  Multiplicity = 1
  Basis Set: AUG-CC-PVTZ
    Blend: AUG-CC-PVTZ
  Basis Set: (AUG-CC-PVTZ AUX)
    Blend: AUG-CC-PVTZ-JKFIT

    Orbital Energies [Eh]
    ---------------------

    Doubly Occupied:

       1A    -20.721367     2A    -20.667106     3A    -20.648122
       4A    -20.647883     5A    -20.646434     6A    -20.646383
       7A    -20.603706     8A    -20.592055     9A    -15.898202
      10A    -15.897817    11A    -15.897608    12A    -11.457660
      13A    -11.380842    14A    -11.380463    15A    -11.375426
      16A    -11.367893    17A    -11.349036    18A    -11.348965
      19A     -1.800637    20A     -1.631634    21A     -1.630540
      22A     -1.514888    23A     -1.432376    24A     -1.430533
      25A     -1.413829    26A     -1.387086    27A     -1.281698
      28A     -1.179663    29A     -1.163022    30A     -1.047243
      31A     -1.026849    32A     -1.016899    33A     -0.925823
      34A     -0.912725    35A     -0.868521    36A     -0.850335
      37A     -0.832967    38A     -0.815678    39A     -0.799307
      40A     -0.786895    41A     -0.779397    42A     -0.773013
      43A     -0.761274    44A     -0.752730    45A     -0.751366
      46A     -0.747578    47A     -0.717776    48A     -0.690774
      49A     -0.672692    50A     -0.644453    51A     -0.634810
      52A     -0.607289    53A     -0.550691    54A     -0.543614
      55A     -0.539368    56A     -0.535095    57A     -0.530879
      58A     -0.522745    59A     -0.515462    60A     -0.492063
      61A     -0.489066    62A     -0.488260    63A     -0.485566
      64A     -0.443726    65A     -0.435678

  @DF-RHF Final Energy: -1028.98590727667374

   => Energetics <=

    Nuclear Repulsion Energy =           1346.3380914178007970
    One-Electron Energy =               -4083.8850292215493027
    Two-Electron Energy =                1708.5610305270749905
    Total Energy =                      -1028.9859072766737427
  Basis Set: (AUG-CC-PVTZ AUX)
    Blend: AUG-CC-PVTZ-RI
    Molecular point group: c1

    Geometry (in Angstrom), charge = 0, multiplicity = 1:

       Center              X                  Y                   Z               Mass
    ------------   -----------------  -----------------  -----------------  -----------------
         O           -2.904706750701    -0.479796820739     1.022987889747    15.994914619570
         O           -2.959963750701     0.513135179261    -1.034317110253    15.994914619570
         O           -0.304812750701    -3.432653820739     0.473309889747    15.994914619570
         O           -0.250815750701     3.445262179261    -0.471002110253    15.994914619570
         O           -1.893037750701    -2.483522820739    -0.742924110253    15.994914619570
         O           -1.832550750701     2.519165179261     0.773648889747    15.994914619570
         O            3.967911249299    -1.140524820739    -0.014866110253    15.994914619570
         O            3.990117249299     1.067558179261     0.052128889747    15.994914619570
         N           -1.006157050701    -2.468327320739    -0.198081710253    14.003074004430
         N           -0.788546750701     2.486641179261     0.103492889747    14.003074004430
         N            3.415130249299    -0.030750820739     0.015989889747    14.003074004430
         C           -0.856107750701     0.012817179261    -0.002691110253    12.000000000000
         C           -0.126100750701    -1.178519820739    -0.014539110253    12.000000000000
         C           -0.101141750701     1.188579179261     0.014308889747    12.000000000000
         C            1.938764249299    -0.015437820739     0.008857889747    12.000000000000
         C            1.262314249299    -1.228070820739     0.005562889747    12.000000000000
         C            1.287043249299     1.211282179261     0.010925889747    12.000000000000
         C           -2.358384750701     0.052543179261    -0.086668110253    12.000000000000
         H            1.791681249299    -2.174141820739     0.012965889747     1.007825032230
         H            1.834950249299     2.146856179261     0.011569889747     1.007825032230
         H           -3.877641750701    -0.451049820739     0.896637889747     1.007825032230

  Basis Set: AUG-CC-PVTZ
    Blend: AUG-CC-PVTZ
  Basis Set: (AUG-CC-PVTZ AUX)
    Blend: AUG-CC-PVTZ-JKFIT
	 Reference Energy          =   -1028.9859072766737427 [Eh]
	 Singles Energy            =      -0.0000000000000000 [Eh]
	 Same-Spin Energy          =      -1.0441753987501268 [Eh]
	 Opposite-Spin Energy      =      -2.9373589172809647 [Eh]
	 Correlation Energy        =      -3.9815343160310914 [Eh]
	 Total Energy              =   -1032.9674415927047448 [Eh]

	 ================> DF-SCS-MP2 Energies <==================
	-----------------------------------------------------------
	 SCS Same-Spin Scale       =       0.3333333333333333 [-]
	 SCS Opposite-Spin Scale   =       1.2000000000000000 [-]
	 SCS Same-Spin Energy      =      -0.3480584662500422 [Eh]
	 SCS Opposite-Spin Energy  =      -3.5248307007371573 [Eh]
	 SCS Correlation Energy    =      -3.8728891669871994 [Eh]
	 SCS Total Energy          =   -1032.8587964436610491 [Eh]
	-----------------------------------------------------------

  Dipole Moment: [D]
     X:    -1.3310      Y:    -0.4986      Z:     0.3648     Total:     1.4674

*** Psi4 exiting successfully. Buy a developer a beer!
