                               Psi4 1.4a3.dev225

  ==> Input File <==

--------------------------------------------------------------------------
#psi4
#
memory 32 gb

molecule  {
0 1
  O       -2.9128620    -0.4781290     1.0138340
  O       -2.9681190     0.5148030    -1.0434710
  O       -0.3129680    -3.4309860     0.4641560
  O       -0.2589710     3.4469300    -0.4801560
  O       -1.9011930    -2.4818550    -0.7520780
  O       -1.8407060     2.5208330     0.7644950
  O        3.9597560    -1.1388570    -0.0240200
  O        3.9819620     1.0692260     0.0429750
  N       -0.8439190    -2.4637400    -0.1025570
  N       -0.7967020     2.4883090     0.0943390
  N        3.4069750    -0.0290830     0.0068360
  C       -0.8642630     0.0144850    -0.0118450
  C       -0.1342560    -1.1768520    -0.0236930
  C       -0.1092970     1.1902470     0.0051550
  C        1.9306090    -0.0137700    -0.0002960
  C        1.2541590    -1.2264030    -0.0035910
  C        1.2788880     1.2129500     0.0017720
  C       -2.3746544     0.0463043    -0.0793405
  H        1.7835260    -2.1724740     0.0038120
  H        1.8267950     2.1485240     0.0024160
  H       -3.8857970    -0.4493820     0.8874840
units angstrom
no_reorient  #important for SAPT in psi4, default
symmetry c1  #important for SAPT in psi4, default
}

set PROPERTIES_ORIGIN ["COM"]
properties('MP2/aug-cc-pvtz', properties = ['dipole'])
--------------------------------------------------------------------------

    Molecular point group: c1
  Charge       = 0
  Multiplicity = 1
  Basis Set: AUG-CC-PVTZ
    Blend: AUG-CC-PVTZ
  Basis Set: (AUG-CC-PVTZ AUX)
    Blend: AUG-CC-PVTZ-JKFIT

    Orbital Energies [Eh]
    ---------------------

    Doubly Occupied:

       1A    -20.663637     2A    -20.652862     3A    -20.652613
       4A    -20.650342     5A    -20.650266     6A    -20.649720
       7A    -20.649528     8A    -20.592855     9A    -15.902858
      10A    -15.901724    11A    -15.899621    12A    -11.453765
      13A    -11.385998    14A    -11.384879    15A    -11.379713
      16A    -11.375799    17A    -11.355645    18A    -11.355338
      19A     -1.636783    20A     -1.634487    21A     -1.633149
      22A     -1.513363    23A     -1.436872    24A     -1.434478
      25A     -1.433800    26A     -1.401885    27A     -1.289894
      28A     -1.183734    29A     -1.180909    30A     -1.055518
      31A     -1.035508    32A     -1.027791    33A     -0.926712
      34A     -0.883525    35A     -0.871853    36A     -0.837733
      37A     -0.802326    38A     -0.790060    39A     -0.787924
      40A     -0.779583    41A     -0.766488    42A     -0.762902
      43A     -0.757102    44A     -0.753465    45A     -0.746431
      46A     -0.742566    47A     -0.715767    48A     -0.691269
      49A     -0.671596    50A     -0.646372    51A     -0.626947
      52A     -0.608711    53A     -0.555169    54A     -0.549776
      55A     -0.544339    56A     -0.540095    57A     -0.535904
      58A     -0.533965    59A     -0.519409    60A     -0.507840
      61A     -0.493711    62A     -0.492539    63A     -0.485962
      64A     -0.446931    65A     -0.445452

  @DF-RHF Final Energy: -1029.04868920480703

   => Energetics <=

    Nuclear Repulsion Energy =           1345.7361521343552795
    One-Electron Energy =               -4083.0181758382800581
    Two-Electron Energy =                1708.2333344991179729
    Total Energy =                      -1029.0486892048070331
  Basis Set: (AUG-CC-PVTZ AUX)
    Blend: AUG-CC-PVTZ-RI
    Molecular point group: c1

    Geometry (in Angstrom), charge = 0, multiplicity = 1:

       Center              X                  Y                   Z               Mass
    ------------   -----------------  -----------------  -----------------  -----------------
         O           -2.913612308323    -0.479586703605     1.016514536135    15.994914619570
         O           -2.968869308323     0.513345296395    -1.040790463865    15.994914619570
         O           -0.313718308323    -3.432443703605     0.466836536135    15.994914619570
         O           -0.259721308323     3.445472296395    -0.477475463865    15.994914619570
         O           -1.901943308323    -2.483312703605    -0.749397463865    15.994914619570
         O           -1.841456308323     2.519375296395     0.767175536135    15.994914619570
         O            3.959005691677    -1.140314703605    -0.021339463865    15.994914619570
         O            3.981211691677     1.067768296395     0.045655536135    15.994914619570
         N           -0.844669308323    -2.465197703605    -0.099876463865    14.003074004430
         N           -0.797452308323     2.486851296395     0.097019536135    14.003074004430
         N            3.406224691677    -0.030540703605     0.009516536135    14.003074004430
         C           -0.865013308323     0.013027296395    -0.009164463865    12.000000000000
         C           -0.135006308323    -1.178309703605    -0.021012463865    12.000000000000
         C           -0.110047308323     1.188789296395     0.007835536135    12.000000000000
         C            1.929858691677    -0.015227703605     0.002384536135    12.000000000000
         C            1.253408691677    -1.227860703605    -0.000910463865    12.000000000000
         C            1.278137691677     1.211492296395     0.004452536135    12.000000000000
         C           -2.375404708323     0.044846596395    -0.076659963865    12.000000000000
         H            1.782775691677    -2.173931703605     0.006492536135     1.007825032230
         H            1.826044691677     2.147066296395     0.005096536135     1.007825032230
         H           -3.886547308323    -0.450839703605     0.890164536135     1.007825032230

  Basis Set: AUG-CC-PVTZ
    Blend: AUG-CC-PVTZ
  Basis Set: (AUG-CC-PVTZ AUX)
    Blend: AUG-CC-PVTZ-JKFIT
	 Reference Energy          =   -1029.0486892048070331 [Eh]
	 Singles Energy            =      -0.0000000000000000 [Eh]
	 Same-Spin Energy          =      -1.0500696569730033 [Eh]
	 Opposite-Spin Energy      =      -2.9502637773601821 [Eh]
	 Correlation Energy        =      -4.0003334343331858 [Eh]
	 Total Energy              =   -1033.0490226391402757 [Eh]

	 ================> DF-SCS-MP2 Energies <==================
	-----------------------------------------------------------
	 SCS Same-Spin Scale       =       0.3333333333333333 [-]
	 SCS Opposite-Spin Scale   =       1.2000000000000000 [-]
	 SCS Same-Spin Energy      =      -0.3500232189910011 [Eh]
	 SCS Opposite-Spin Energy  =      -3.5403165328322186 [Eh]
	 SCS Correlation Energy    =      -3.8903397518232197 [Eh]
	 SCS Total Energy          =   -1032.9390289566301817 [Eh]
	-----------------------------------------------------------

  Dipole Moment: [D]
     X:    -0.2232      Y:    -0.6759      Z:     1.3240     Total:     1.5032

*** Psi4 exiting successfully. Buy a developer a beer!
