                               Psi4 1.4a3.dev225

  ==> Input File <==

--------------------------------------------------------------------------
#psi4
#
memory 32 gb

molecule  {
0 1
  O       -2.9128620    -0.4781290     1.0138340
  O       -2.9681190     0.5148030    -1.0434710
  O       -0.3129680    -3.4309860     0.4641560
  O       -0.2589710     3.4469300    -0.4801560
  O       -1.9011930    -2.4818550    -0.7520780
  O       -1.8407060     2.5208330     0.7644950
  O        3.9597560    -1.1388570    -0.0240200
  O        3.9819620     1.0692260     0.0429750
  N       -0.8439190    -2.4637400    -0.1025570
  N       -0.7967020     2.4883090     0.0943390
  N        3.4069750    -0.0290830     0.0068360
  C       -0.8642630     0.0144850    -0.0118450
  C       -0.1342560    -1.1768520    -0.0236930
  C       -0.1092970     1.1902470     0.0051550
  C        1.9306090    -0.0137700    -0.0002960
  C        1.2541590    -1.2264030    -0.0035910
  C        1.2788880     1.2129500     0.0017720
  C       -2.3665400     0.0542110    -0.0958220
  H        1.7835260    -2.1724740     0.0038120
  H        1.9278657     2.3211064     0.0025348
  H       -3.8857970    -0.4493820     0.8874840
units angstrom
no_reorient  #important for SAPT in psi4, default
symmetry c1  #important for SAPT in psi4, default
}

set PROPERTIES_ORIGIN ["COM"]
properties('MP2/aug-cc-pvtz', properties = ['dipole'])
--------------------------------------------------------------------------

    Molecular point group: c1
  Charge       = 0
  Multiplicity = 1
  Basis Set: AUG-CC-PVTZ
    Blend: AUG-CC-PVTZ
  Basis Set: (AUG-CC-PVTZ AUX)
    Blend: AUG-CC-PVTZ-JKFIT

    Orbital Energies [Eh]
    ---------------------

    Doubly Occupied:

       1A    -20.657257     2A    -20.652096     3A    -20.651897
       4A    -20.650058     5A    -20.649743     6A    -20.649300
       7A    -20.649071     8A    -20.595583     9A    -15.902169
      10A    -15.901393    11A    -15.899196    12A    -11.452161
      13A    -11.385557    14A    -11.384793    15A    -11.379732
      16A    -11.375592    17A    -11.369801    18A    -11.355668
      19A     -1.636019    20A     -1.634095    21A     -1.632757
      22A     -1.505757    23A     -1.436105    24A     -1.434115
      25A     -1.433359    26A     -1.405297    27A     -1.289047
      28A     -1.183079    29A     -1.178879    30A     -1.054977
      31A     -1.035128    32A     -1.021611    33A     -0.922637
      34A     -0.881285    35A     -0.868620    36A     -0.836128
      37A     -0.802037    38A     -0.787989    39A     -0.786821
      40A     -0.769627    41A     -0.764156    42A     -0.760857
      43A     -0.755413    44A     -0.752610    45A     -0.743496
      46A     -0.737923    47A     -0.715254    48A     -0.684505
      49A     -0.665597    50A     -0.632678    51A     -0.615141
      52A     -0.607339    53A     -0.554686    54A     -0.549041
      55A     -0.542800    56A     -0.539425    57A     -0.535064
      58A     -0.533062    59A     -0.521606    60A     -0.508613
      61A     -0.493481    62A     -0.491684    63A     -0.486074
      64A     -0.446797    65A     -0.445123

  @DF-RHF Final Energy: -1029.02577047934369

   => Energetics <=

    Nuclear Repulsion Energy =           1344.7321722138635778
    One-Electron Energy =               -4081.1581634219464831
    Two-Electron Energy =                1707.4002207287392139
    Total Energy =                      -1029.0257704793436915
  Basis Set: (AUG-CC-PVTZ AUX)
    Blend: AUG-CC-PVTZ-RI
    Molecular point group: c1

    Geometry (in Angstrom), charge = 0, multiplicity = 1:

       Center              X                  Y                   Z               Mass
    ------------   -----------------  -----------------  -----------------  -----------------
         O           -2.914387563470    -0.480632702111     1.017283658363    15.994914619570
         O           -2.969644563470     0.512299297889    -1.040021341637    15.994914619570
         O           -0.314493563470    -3.433489702111     0.467605658363    15.994914619570
         O           -0.260496563470     3.444426297889    -0.476706341637    15.994914619570
         O           -1.902718563470    -2.484358702111    -0.748628341637    15.994914619570
         O           -1.842231563470     2.518329297889     0.767944658363    15.994914619570
         O            3.958230436530    -1.141360702111    -0.020570341637    15.994914619570
         O            3.980436436530     1.066722297889     0.046424658363    15.994914619570
         N           -0.845444563470    -2.466243702111    -0.099107341637    14.003074004430
         N           -0.798227563470     2.485805297889     0.097788658363    14.003074004430
         N            3.405449436530    -0.031586702111     0.010285658363    14.003074004430
         C           -0.865788563470     0.011981297889    -0.008395341637    12.000000000000
         C           -0.135781563470    -1.179355702111    -0.020243341637    12.000000000000
         C           -0.110822563470     1.187743297889     0.008604658363    12.000000000000
         C            1.929083436530    -0.016273702111     0.003153658363    12.000000000000
         C            1.252633436530    -1.228906702111    -0.000141341637    12.000000000000
         C            1.277362436530     1.210446297889     0.005221658363    12.000000000000
         C           -2.368065563470     0.051707297889    -0.092372341637    12.000000000000
         H            1.782000436530    -2.174977702111     0.007261658363     1.007825032230
         H            1.926340136530     2.318602697889     0.005984458363     1.007825032230
         H           -3.887322563470    -0.451885702111     0.890933658363     1.007825032230

  Basis Set: AUG-CC-PVTZ
    Blend: AUG-CC-PVTZ
  Basis Set: (AUG-CC-PVTZ AUX)
    Blend: AUG-CC-PVTZ-JKFIT
	 Reference Energy          =   -1029.0257704793436915 [Eh]
	 Singles Energy            =      -0.0000000000000000 [Eh]
	 Same-Spin Energy          =      -1.0511165263850617 [Eh]
	 Opposite-Spin Energy      =      -2.9527082876510935 [Eh]
	 Correlation Energy        =      -4.0038248140361556 [Eh]
	 Total Energy              =   -1033.0295952933797707 [Eh]

	 ================> DF-SCS-MP2 Energies <==================
	-----------------------------------------------------------
	 SCS Same-Spin Scale       =       0.3333333333333333 [-]
	 SCS Opposite-Spin Scale   =       1.2000000000000000 [-]
	 SCS Same-Spin Energy      =      -0.3503721754616872 [Eh]
	 SCS Opposite-Spin Energy  =      -3.5432499451813122 [Eh]
	 SCS Correlation Energy    =      -3.8936221206429993 [Eh]
	 SCS Total Energy          =   -1032.9193925999866224 [Eh]
	-----------------------------------------------------------

  Dipole Moment: [D]
     X:    -0.0432      Y:    -0.4828      Z:     1.1823     Total:     1.2778

*** Psi4 exiting successfully. Buy a developer a beer!
