                               Psi4 1.4a3.dev225

  ==> Input File <==

--------------------------------------------------------------------------
#psi4
#
memory 32 gb

molecule  {
0 1
  O       -2.9128620    -0.4781290     1.0138340
  O       -2.9681190     0.5148030    -1.0434710
  O       -0.3129680    -3.4309860     0.4641560
  O       -0.2589710     3.4469300    -0.4801560
  O       -1.9011930    -2.4818550    -0.7520780
  O       -1.8407060     2.5208330     0.7644950
  O        3.9597560    -1.1388570    -0.0240200
  O        3.9819620     1.0692260     0.0429750
  N       -0.8439190    -2.4637400    -0.1025570
  N       -0.7967020     2.4883090     0.0943390
  N        3.4069750    -0.0290830     0.0068360
  C       -0.8642630     0.0144850    -0.0118450
  C       -0.1342560    -1.1768520    -0.0236930
  C       -0.1092970     1.1902470     0.0051550
  C        1.9306090    -0.0137700    -0.0002960
  C        1.3041220    -1.2281861    -0.0028676
  C        1.2788880     1.2129500     0.0017720
  C       -2.3665400     0.0542110    -0.0958220
  H        1.7835260    -2.1724740     0.0038120
  H        1.8267950     2.1485240     0.0024160
  H       -3.8857970    -0.4493820     0.8874840
units angstrom
no_reorient  #important for SAPT in psi4, default
symmetry c1  #important for SAPT in psi4, default
}

set PROPERTIES_ORIGIN ["COM"]
properties('MP2/aug-cc-pvtz', properties = ['dipole'])
--------------------------------------------------------------------------

    Molecular point group: c1
  Charge       = 0
  Multiplicity = 1
  Basis Set: AUG-CC-PVTZ
    Blend: AUG-CC-PVTZ
  Basis Set: (AUG-CC-PVTZ AUX)
    Blend: AUG-CC-PVTZ-JKFIT

    Orbital Energies [Eh]
    ---------------------

    Doubly Occupied:

       1A    -20.657374     2A    -20.652562     3A    -20.652233
       4A    -20.650841     5A    -20.650167     6A    -20.650108
       7A    -20.650088     8A    -20.595808     9A    -15.902916
      10A    -15.900960    11A    -15.900147    12A    -11.452385
      13A    -11.390805    14A    -11.385737    15A    -11.379384
      16A    -11.375333    17A    -11.358281    18A    -11.356531
      19A     -1.636352    20A     -1.634823    21A     -1.633710
      22A     -1.505914    23A     -1.436485    24A     -1.434805
      25A     -1.434263    26A     -1.405507    27A     -1.288585
      28A     -1.187671    29A     -1.177359    30A     -1.054996
      31A     -1.034684    32A     -1.030191    33A     -0.924078
      34A     -0.884111    35A     -0.870386    36A     -0.837141
      37A     -0.802888    38A     -0.791740    39A     -0.786343
      40A     -0.778033    41A     -0.765691    42A     -0.763449
      43A     -0.757342    44A     -0.753683    45A     -0.746211
      46A     -0.741482    47A     -0.714879    48A     -0.688357
      49A     -0.669945    50A     -0.652257    51A     -0.628900
      52A     -0.607119    53A     -0.555171    54A     -0.549666
      55A     -0.544477    56A     -0.540006    57A     -0.535573
      58A     -0.534235    59A     -0.522368    60A     -0.509027
      61A     -0.493965    62A     -0.492216    63A     -0.486965
      64A     -0.451325    65A     -0.440986

  @DF-RHF Final Energy: -1029.04613223904789

   => Energetics <=

    Nuclear Repulsion Energy =           1345.2319956165586063
    One-Electron Energy =               -4082.0022180784062584
    Two-Electron Energy =                1707.7240902227999868
    Total Energy =                      -1029.0461322390478927
  Basis Set: (AUG-CC-PVTZ AUX)
    Blend: AUG-CC-PVTZ-RI
    Molecular point group: c1

    Geometry (in Angstrom), charge = 0, multiplicity = 1:

       Center              X                  Y                   Z               Mass
    ------------   -----------------  -----------------  -----------------  -----------------
         O           -2.916324177805    -0.479872639339     1.017250345770    15.994914619570
         O           -2.971581177805     0.513059360661    -1.040054654230    15.994914619570
         O           -0.316430177805    -3.432729639339     0.467572345770    15.994914619570
         O           -0.262433177805     3.445186360661    -0.476739654230    15.994914619570
         O           -1.904655177805    -2.483598639339    -0.748661654230    15.994914619570
         O           -1.844168177805     2.519089360661     0.767911345770    15.994914619570
         O            3.956293822195    -1.140600639339    -0.020603654230    15.994914619570
         O            3.978499822195     1.067482360661     0.046391345770    15.994914619570
         N           -0.847381177805    -2.465483639339    -0.099140654230    14.003074004430
         N           -0.800164177805     2.486565360661     0.097755345770    14.003074004430
         N            3.403512822195    -0.030826639339     0.010252345770    14.003074004430
         C           -0.867725177805     0.012741360661    -0.008428654230    12.000000000000
         C           -0.137718177805    -1.178595639339    -0.020276654230    12.000000000000
         C           -0.112759177805     1.188503360661     0.008571345770    12.000000000000
         C            1.927146822195    -0.015513639339     0.003120345770    12.000000000000
         C            1.300659822195    -1.229929739339     0.000548745770    12.000000000000
         C            1.275425822195     1.211206360661     0.005188345770    12.000000000000
         C           -2.370002177805     0.052467360661    -0.092405654230    12.000000000000
         H            1.780063822195    -2.174217639339     0.007228345770     1.007825032230
         H            1.823332822195     2.146780360661     0.005832345770     1.007825032230
         H           -3.889259177805    -0.451125639339     0.890900345770     1.007825032230

  Basis Set: AUG-CC-PVTZ
    Blend: AUG-CC-PVTZ
  Basis Set: (AUG-CC-PVTZ AUX)
    Blend: AUG-CC-PVTZ-JKFIT
	 Reference Energy          =   -1029.0461322390478927 [Eh]
	 Singles Energy            =      -0.0000000000000000 [Eh]
	 Same-Spin Energy          =      -1.0499030062891834 [Eh]
	 Opposite-Spin Energy      =      -2.9504814182848405 [Eh]
	 Correlation Energy        =      -4.0003844245740243 [Eh]
	 Total Energy              =   -1033.0465166636220147 [Eh]

	 ================> DF-SCS-MP2 Energies <==================
	-----------------------------------------------------------
	 SCS Same-Spin Scale       =       0.3333333333333333 [-]
	 SCS Opposite-Spin Scale   =       1.2000000000000000 [-]
	 SCS Same-Spin Energy      =      -0.3499676687630611 [Eh]
	 SCS Opposite-Spin Energy  =      -3.5405777019418085 [Eh]
	 SCS Correlation Energy    =      -3.8905453707048698 [Eh]
	 SCS Total Energy          =   -1032.9366776097526781 [Eh]
	-----------------------------------------------------------

  Dipole Moment: [D]
     X:    -0.1801      Y:    -0.6250      Z:     1.1866     Total:     1.3532

*** Psi4 exiting successfully. Buy a developer a beer!
