                               Psi4 1.4a3.dev225

  ==> Input File <==

--------------------------------------------------------------------------
#psi4
#
memory 32 gb

molecule  {
0 1
  O       -2.9128620    -0.4781290     1.0138340
  O       -2.9681190     0.5148030    -1.0434710
  O       -0.3129680    -3.4309860     0.4641560
  O       -0.2589710     3.4469300    -0.4801560
  O       -1.9011930    -2.4818550    -0.7520780
  O       -1.8407060     2.5208330     0.7644950
  O        3.9597560    -1.1388570    -0.0240200
  O        3.9819620     1.0692260     0.0429750
  N       -0.8439190    -2.4637400    -0.1025570
  N       -0.7967020     2.4883090     0.0943390
  N        3.4069750    -0.0290830     0.0068360
  C       -0.8642630     0.0144850    -0.0118450
  C       -0.1342560    -1.1768520    -0.0236930
  C       -0.1092970     1.1902470     0.0051550
  C        1.9306090    -0.0137700    -0.0002960
  C        1.2341738    -1.2256898    -0.0038804
  C        1.2788880     1.2129500     0.0017720
  C       -2.3665400     0.0542110    -0.0958220
  H        1.7835260    -2.1724740     0.0038120
  H        1.8267950     2.1485240     0.0024160
  H       -3.8857970    -0.4493820     0.8874840
units angstrom
no_reorient  #important for SAPT in psi4, default
symmetry c1  #important for SAPT in psi4, default
}

set PROPERTIES_ORIGIN ["COM"]
properties('MP2/aug-cc-pvtz', properties = ['dipole'])
--------------------------------------------------------------------------

    Molecular point group: c1
  Charge       = 0
  Multiplicity = 1
  Basis Set: AUG-CC-PVTZ
    Blend: AUG-CC-PVTZ
  Basis Set: (AUG-CC-PVTZ AUX)
    Blend: AUG-CC-PVTZ-JKFIT

    Orbital Energies [Eh]
    ---------------------

    Doubly Occupied:

       1A    -20.657843     2A    -20.652881     3A    -20.652730
       4A    -20.650836     5A    -20.650610     6A    -20.650244
       7A    -20.650023     8A    -20.596160     9A    -15.902791
      10A    -15.902493    11A    -15.900124    12A    -11.452711
      13A    -11.385381    14A    -11.384829    15A    -11.380663
      16A    -11.376220    17A    -11.355359    18A    -11.354959
      19A     -1.636832    20A     -1.634834    21A     -1.633704
      22A     -1.506350    23A     -1.436876    24A     -1.434821
      25A     -1.434262    26A     -1.405874    27A     -1.291495
      28A     -1.184277    29A     -1.182034    30A     -1.057296
      31A     -1.036384    32A     -1.027372    33A     -0.924284
      34A     -0.883750    35A     -0.871572    36A     -0.837286
      37A     -0.802960    38A     -0.791429    39A     -0.787557
      40A     -0.777102    41A     -0.766171    42A     -0.763165
      43A     -0.757317    44A     -0.753594    45A     -0.745698
      46A     -0.741438    47A     -0.716660    48A     -0.692291
      49A     -0.667199    50A     -0.643103    51A     -0.630253
      52A     -0.609071    53A     -0.555511    54A     -0.550056
      55A     -0.544165    56A     -0.540468    57A     -0.536388
      58A     -0.534463    59A     -0.522471    60A     -0.509350
      61A     -0.494028    62A     -0.492338    63A     -0.486966
      64A     -0.449181    65A     -0.445354

  @DF-RHF Final Energy: -1029.04900815664541

   => Energetics <=

    Nuclear Repulsion Energy =           1346.0682060492197252
    One-Electron Energy =               -4083.6706074801782052
    Two-Electron Energy =                1708.5533932743132937
    Total Energy =                      -1029.0490081566454137
  Basis Set: (AUG-CC-PVTZ AUX)
    Blend: AUG-CC-PVTZ-RI
    Molecular point group: c1

    Geometry (in Angstrom), charge = 0, multiplicity = 1:

       Center              X                  Y                   Z               Mass
    ------------   -----------------  -----------------  -----------------  -----------------
         O           -2.913058012500    -0.479989201715     1.017297637512    15.994914619570
         O           -2.968315012500     0.512942798285    -1.040007362488    15.994914619570
         O           -0.313164012500    -3.432846201715     0.467619637512    15.994914619570
         O           -0.259167012500     3.445069798285    -0.476692362488    15.994914619570
         O           -1.901389012500    -2.483715201715    -0.748614362488    15.994914619570
         O           -1.840902012500     2.518972798285     0.767958637512    15.994914619570
         O            3.959559987500    -1.140717201715    -0.020556362488    15.994914619570
         O            3.981765987500     1.067365798285     0.046438637512    15.994914619570
         N           -0.844115012500    -2.465600201715    -0.099093362488    14.003074004430
         N           -0.796898012500     2.486448798285     0.097802637512    14.003074004430
         N            3.406778987500    -0.030943201715     0.010299637512    14.003074004430
         C           -0.864459012500     0.012624798285    -0.008381362488    12.000000000000
         C           -0.134452012500    -1.178712201715    -0.020229362488    12.000000000000
         C           -0.109493012500     1.188386798285     0.008618637512    12.000000000000
         C            1.930412987500    -0.015630201715     0.003167637512    12.000000000000
         C            1.233977787500    -1.227550001715    -0.000416762488    12.000000000000
         C            1.278691987500     1.211089798285     0.005235637512    12.000000000000
         C           -2.366736012500     0.052350798285    -0.092358362488    12.000000000000
         H            1.783329987500    -2.174334201715     0.007275637512     1.007825032230
         H            1.826598987500     2.146663798285     0.005879637512     1.007825032230
         H           -3.885993012500    -0.451242201715     0.890947637512     1.007825032230

  Basis Set: AUG-CC-PVTZ
    Blend: AUG-CC-PVTZ
  Basis Set: (AUG-CC-PVTZ AUX)
    Blend: AUG-CC-PVTZ-JKFIT
	 Reference Energy          =   -1029.0490081566454137 [Eh]
	 Singles Energy            =      -0.0000000000000000 [Eh]
	 Same-Spin Energy          =      -1.0500049659265687 [Eh]
	 Opposite-Spin Energy      =      -2.9503341624441712 [Eh]
	 Correlation Energy        =      -4.0003391283707401 [Eh]
	 Total Energy              =   -1033.0493472850162107 [Eh]

	 ================> DF-SCS-MP2 Energies <==================
	-----------------------------------------------------------
	 SCS Same-Spin Scale       =       0.3333333333333333 [-]
	 SCS Opposite-Spin Scale   =       1.2000000000000000 [-]
	 SCS Same-Spin Energy      =      -0.3500016553088562 [Eh]
	 SCS Opposite-Spin Energy  =      -3.5404009949330053 [Eh]
	 SCS Correlation Energy    =      -3.8904026502418616 [Eh]
	 SCS Total Energy          =   -1032.9394108068872811 [Eh]
	-----------------------------------------------------------

  Dipole Moment: [D]
     X:    -0.1183      Y:    -0.6146      Z:     1.1920     Total:     1.3464

*** Psi4 exiting successfully. Buy a developer a beer!
