                               Psi4 1.4a3.dev225

  ==> Input File <==

--------------------------------------------------------------------------
#psi4
#
memory 32 gb

molecule  {
0 1
  O       -2.9128620    -0.4781290     1.0138340
  O       -2.9681190     0.5148030    -1.0434710
  O       -0.3129680    -3.4309860     0.4641560
  O       -0.2589710     3.4469300    -0.4801560
  O       -1.9011930    -2.4818550    -0.7520780
  O       -1.8407060     2.5208330     0.7644950
  O        3.9597560    -1.1388570    -0.0240200
  O        3.9819620     1.0692260     0.0429750
  N       -0.8439190    -2.4637400    -0.1025570
  N       -0.7967020     2.4883090     0.0943390
  N        3.4069750    -0.0290830     0.0068360
  C       -0.8849413     0.0015701    -0.0124070
  C       -0.1342560    -1.1768520    -0.0236930
  C       -0.1092970     1.1902470     0.0051550
  C        1.9306090    -0.0137700    -0.0002960
  C        1.2541590    -1.2264030    -0.0035910
  C        1.2788880     1.2129500     0.0017720
  C       -2.3665400     0.0542110    -0.0958220
  H        1.7835260    -2.1724740     0.0038120
  H        1.8267950     2.1485240     0.0024160
  H       -3.8857970    -0.4493820     0.8874840
units angstrom
no_reorient  #important for SAPT in psi4, default
symmetry c1  #important for SAPT in psi4, default
}

set PROPERTIES_ORIGIN ["COM"]
properties('MP2/aug-cc-pvtz', properties = ['dipole'])
--------------------------------------------------------------------------

    Molecular point group: c1
  Charge       = 0
  Multiplicity = 1
  Basis Set: AUG-CC-PVTZ
    Blend: AUG-CC-PVTZ
  Basis Set: (AUG-CC-PVTZ AUX)
    Blend: AUG-CC-PVTZ-JKFIT

    Orbital Energies [Eh]
    ---------------------

    Doubly Occupied:

       1A    -20.657600     2A    -20.652671     3A    -20.652432
       4A    -20.650993     5A    -20.650771     6A    -20.649797
       7A    -20.649677     8A    -20.596459     9A    -15.902315
      10A    -15.902257    11A    -15.899780    12A    -11.451743
      13A    -11.387733    14A    -11.387611    15A    -11.380778
      16A    -11.377945    17A    -11.356476    18A    -11.355583
      19A     -1.636630    20A     -1.635032    21A     -1.633346
      22A     -1.506953    23A     -1.436684    24A     -1.435016
      25A     -1.433922    26A     -1.406208    27A     -1.289020
      28A     -1.185194    29A     -1.180171    30A     -1.059156
      31A     -1.035487    32A     -1.028287    33A     -0.926134
      34A     -0.882149    35A     -0.871375    36A     -0.837245
      37A     -0.802584    38A     -0.789919    39A     -0.787512
      40A     -0.778309    41A     -0.765988    42A     -0.762967
      43A     -0.757399    44A     -0.753757    45A     -0.746016
      46A     -0.741672    47A     -0.715518    48A     -0.692362
      49A     -0.667831    50A     -0.645538    51A     -0.631911
      52A     -0.607280    53A     -0.555301    54A     -0.549770
      55A     -0.544300    56A     -0.540329    57A     -0.536152
      58A     -0.534031    59A     -0.522382    60A     -0.510769
      61A     -0.494176    62A     -0.492293    63A     -0.486764
      64A     -0.448296    65A     -0.444048

  @DF-RHF Final Energy: -1029.04784869046193

   => Energetics <=

    Nuclear Repulsion Energy =           1345.7466466748292078
    One-Electron Energy =               -4083.0173918369700914
    Two-Electron Energy =                1708.2228964716789505
    Total Energy =                      -1029.0478486904619331
  Basis Set: (AUG-CC-PVTZ AUX)
    Blend: AUG-CC-PVTZ-RI
    Molecular point group: c1

    Geometry (in Angstrom), charge = 0, multiplicity = 1:

       Center              X                  Y                   Z               Mass
    ------------   -----------------  -----------------  -----------------  -----------------
         O           -2.913025648848    -0.479352850424     1.017310366312    15.994914619570
         O           -2.968282648848     0.513579149576    -1.039994633688    15.994914619570
         O           -0.313131648848    -3.432209850424     0.467632366312    15.994914619570
         O           -0.259134648848     3.445706149576    -0.476679633688    15.994914619570
         O           -1.901356648848    -2.483078850424    -0.748601633688    15.994914619570
         O           -1.840869648848     2.519609149576     0.767971366312    15.994914619570
         O            3.959592351152    -1.140080850424    -0.020543633688    15.994914619570
         O            3.981798351152     1.068002149576     0.046451366312    15.994914619570
         N           -0.844082648848    -2.464963850424    -0.099080633688    14.003074004430
         N           -0.796865648848     2.487085149576     0.097815366312    14.003074004430
         N            3.406811351152    -0.030306850424     0.010312366312    14.003074004430
         C           -0.885104948848     0.000346249576    -0.008930633688    12.000000000000
         C           -0.134419648848    -1.178075850424    -0.020216633688    12.000000000000
         C           -0.109460648848     1.189023149576     0.008631366312    12.000000000000
         C            1.930445351152    -0.014993850424     0.003180366312    12.000000000000
         C            1.253995351152    -1.227626850424    -0.000114633688    12.000000000000
         C            1.278724351152     1.211726149576     0.005248366312    12.000000000000
         C           -2.366703648848     0.052987149576    -0.092345633688    12.000000000000
         H            1.783362351152    -2.173697850424     0.007288366312     1.007825032230
         H            1.826631351152     2.147300149576     0.005892366312     1.007825032230
         H           -3.885960648848    -0.450605850424     0.890960366312     1.007825032230

  Basis Set: AUG-CC-PVTZ
    Blend: AUG-CC-PVTZ
  Basis Set: (AUG-CC-PVTZ AUX)
    Blend: AUG-CC-PVTZ-JKFIT
	 Reference Energy          =   -1029.0478486904619331 [Eh]
	 Singles Energy            =      -0.0000000000000000 [Eh]
	 Same-Spin Energy          =      -1.0502644930631404 [Eh]
	 Opposite-Spin Energy      =      -2.9507842005401868 [Eh]
	 Correlation Energy        =      -4.0010486936033267 [Eh]
	 Total Energy              =   -1033.0488973840651852 [Eh]

	 ================> DF-SCS-MP2 Energies <==================
	-----------------------------------------------------------
	 SCS Same-Spin Scale       =       0.3333333333333333 [-]
	 SCS Opposite-Spin Scale   =       1.2000000000000000 [-]
	 SCS Same-Spin Energy      =      -0.3500881643543801 [Eh]
	 SCS Opposite-Spin Energy  =      -3.5409410406482240 [Eh]
	 SCS Correlation Energy    =      -3.8910292050026043 [Eh]
	 SCS Total Energy          =   -1032.9388778954644295 [Eh]
	-----------------------------------------------------------

  Dipole Moment: [D]
     X:    -0.1068      Y:    -0.6103      Z:     1.1870     Total:     1.3390

*** Psi4 exiting successfully. Buy a developer a beer!
