                               Psi4 1.4a3.dev225

  ==> Input File <==

--------------------------------------------------------------------------
#psi4
#
memory 32 gb

molecule  {
0 1
  O       -2.9128620    -0.4781290     1.0138340
  O       -2.9681190     0.5148030    -1.0434710
  O       -0.3129680    -3.4309860     0.4641560
  O       -0.2589710     3.4469300    -0.4801560
  O       -1.9011930    -2.4818550    -0.7520780
  O       -1.8407060     2.5208330     0.7644950
  O        3.9597560    -1.1388570    -0.0240200
  O        3.9819620     1.0692260     0.0429750
  N       -0.8439190    -2.4637400    -0.1025570
  N       -0.7967020     2.4883090     0.0943390
  N        3.4069750    -0.0290830     0.0068360
  C       -0.8642630     0.0144850    -0.0118450
  C       -0.1342560    -1.1768520    -0.0236930
  C       -0.1092970     1.1902470     0.0051550
  C        1.9306090    -0.0137700    -0.0002960
  C        1.2541590    -1.2264030    -0.0035910
  C        1.2788880     1.2129500     0.0017720
  C       -2.4071121     0.0146773    -0.0134145
  H        1.7835260    -2.1724740     0.0038120
  H        1.8267950     2.1485240     0.0024160
  H       -3.8857970    -0.4493820     0.8874840
units angstrom
no_reorient  #important for SAPT in psi4, default
symmetry c1  #important for SAPT in psi4, default
}

set PROPERTIES_ORIGIN ["COM"]
properties('MP2/aug-cc-pvtz', properties = ['dipole'])
--------------------------------------------------------------------------

    Molecular point group: c1
  Charge       = 0
  Multiplicity = 1
  Basis Set: AUG-CC-PVTZ
    Blend: AUG-CC-PVTZ
  Basis Set: (AUG-CC-PVTZ AUX)
    Blend: AUG-CC-PVTZ-JKFIT

    Orbital Energies [Eh]
    ---------------------

    Doubly Occupied:

       1A    -20.687562     2A    -20.653118     3A    -20.652702
       4A    -20.648899     5A    -20.648797     6A    -20.647731
       7A    -20.647419     8A    -20.579244     9A    -15.902885
      10A    -15.900318    11A    -15.897565    12A    -11.458227
      13A    -11.383255    14A    -11.382535    15A    -11.377414
      16A    -11.375376    17A    -11.354208    18A    -11.353886
      19A     -1.637142    20A     -1.633073    21A     -1.630909
      22A     -1.558993    23A     -1.437312    24A     -1.433087
      25A     -1.431736    26A     -1.374480    27A     -1.287267
      28A     -1.181257    29A     -1.178622    30A     -1.051816
      31A     -1.034136    32A     -1.026098    33A     -0.942370
      34A     -0.882186    35A     -0.874425    36A     -0.839522
      37A     -0.800010    38A     -0.792898    39A     -0.787496
      40A     -0.784999    41A     -0.768505    42A     -0.761326
      43A     -0.759249    44A     -0.755255    45A     -0.751835
      46A     -0.743018    47A     -0.716662    48A     -0.693990
      49A     -0.687810    50A     -0.645746    51A     -0.609969
      52A     -0.608665    53A     -0.554167    54A     -0.549181
      55A     -0.543720    56A     -0.538862    57A     -0.534681
      58A     -0.532246    59A     -0.506319    60A     -0.499516
      61A     -0.492659    62A     -0.492453    63A     -0.480272
      64A     -0.444789    65A     -0.441371

  @DF-RHF Final Energy: -1029.03422422585481

   => Energetics <=

    Nuclear Repulsion Energy =           1345.4668957246501577
    One-Electron Energy =               -4082.4757604746960169
    Two-Electron Energy =                1707.9746405241912726
    Total Energy =                      -1029.0342242258548140
  Basis Set: (AUG-CC-PVTZ AUX)
    Blend: AUG-CC-PVTZ-RI
    Molecular point group: c1

    Geometry (in Angstrom), charge = 0, multiplicity = 1:

       Center              X                  Y                   Z               Mass
    ------------   -----------------  -----------------  -----------------  -----------------
         O           -2.912096726598    -0.478109910634     1.013436183670    15.994914619570
         O           -2.967353726598     0.514822089366    -1.043868816330    15.994914619570
         O           -0.312202726598    -3.430966910634     0.463758183670    15.994914619570
         O           -0.258205726598     3.446949089366    -0.480553816330    15.994914619570
         O           -1.900427726598    -2.481835910634    -0.752475816330    15.994914619570
         O           -1.839940726598     2.520852089366     0.764097183670    15.994914619570
         O            3.960521273402    -1.138837910634    -0.024417816330    15.994914619570
         O            3.982727273402     1.069245089366     0.042577183670    15.994914619570
         N           -0.843153726598    -2.463720910634    -0.102954816330    14.003074004430
         N           -0.795936726598     2.488328089366     0.093941183670    14.003074004430
         N            3.407740273402    -0.029063910634     0.006438183670    14.003074004430
         C           -0.863497726598     0.014504089366    -0.012242816330    12.000000000000
         C           -0.133490726598    -1.176832910634    -0.024090816330    12.000000000000
         C           -0.108531726598     1.190266089366     0.004757183670    12.000000000000
         C            1.931374273402    -0.013750910634    -0.000693816330    12.000000000000
         C            1.254924273402    -1.226383910634    -0.003988816330    12.000000000000
         C            1.279653273402     1.212969089366     0.001374183670    12.000000000000
         C           -2.406346826598     0.014696389366    -0.013812316330    12.000000000000
         H            1.784291273402    -2.172454910634     0.003414183670     1.007825032230
         H            1.827560273402     2.148543089366     0.002018183670     1.007825032230
         H           -3.885031726598    -0.449362910634     0.887086183670     1.007825032230

  Basis Set: AUG-CC-PVTZ
    Blend: AUG-CC-PVTZ
  Basis Set: (AUG-CC-PVTZ AUX)
    Blend: AUG-CC-PVTZ-JKFIT
	 Reference Energy          =   -1029.0342242258548140 [Eh]
	 Singles Energy            =      -0.0000000000000000 [Eh]
	 Same-Spin Energy          =      -1.0505170151364414 [Eh]
	 Opposite-Spin Energy      =      -2.9502305412336263 [Eh]
	 Correlation Energy        =      -4.0007475563700678 [Eh]
	 Total Energy              =   -1033.0349717822248294 [Eh]

	 ================> DF-SCS-MP2 Energies <==================
	-----------------------------------------------------------
	 SCS Same-Spin Scale       =       0.3333333333333333 [-]
	 SCS Opposite-Spin Scale   =       1.2000000000000000 [-]
	 SCS Same-Spin Energy      =      -0.3501723383788138 [Eh]
	 SCS Opposite-Spin Energy  =      -3.5402766494803513 [Eh]
	 SCS Correlation Energy    =      -3.8904489878591648 [Eh]
	 SCS Total Energy          =   -1032.9246732137139588 [Eh]
	-----------------------------------------------------------

  Dipole Moment: [D]
     X:    -0.5585      Y:    -0.9066      Z:     1.8573     Total:     2.1409

*** Psi4 exiting successfully. Buy a developer a beer!
