                               Psi4 1.4a3.dev225

  ==> Input File <==

--------------------------------------------------------------------------
#psi4
#
memory 32 gb

molecule  {
0 1
  O       -2.9128620    -0.4781290     1.0138340
  O       -2.9681190     0.5148030    -1.0434710
  O       -0.3129680    -3.4309860     0.4641560
  O       -0.2589710     3.4469300    -0.4801560
  O       -1.9011930    -2.4818550    -0.7520780
  O       -1.8407060     2.5208330     0.7644950
  O        3.9597560    -1.1388570    -0.0240200
  O        3.9819620     1.0692260     0.0429750
  N       -0.8439190    -2.4637400    -0.1025570
  N       -0.7967020     2.4883090     0.0943390
  N        3.4069750    -0.0290830     0.0068360
  C       -0.8433624     0.0270370    -0.0112866
  C       -0.1342560    -1.1768520    -0.0236930
  C       -0.1092970     1.1902470     0.0051550
  C        1.9306090    -0.0137700    -0.0002960
  C        1.2541590    -1.2264030    -0.0035910
  C        1.2788880     1.2129500     0.0017720
  C       -2.3665400     0.0542110    -0.0958220
  H        1.7835260    -2.1724740     0.0038120
  H        1.8267950     2.1485240     0.0024160
  H       -3.8857970    -0.4493820     0.8874840
units angstrom
no_reorient  #important for SAPT in psi4, default
symmetry c1  #important for SAPT in psi4, default
}

set PROPERTIES_ORIGIN ["COM"]
properties('MP2/aug-cc-pvtz', properties = ['dipole'])
--------------------------------------------------------------------------

    Molecular point group: c1
  Charge       = 0
  Multiplicity = 1
  Basis Set: AUG-CC-PVTZ
    Blend: AUG-CC-PVTZ
  Basis Set: (AUG-CC-PVTZ AUX)
    Blend: AUG-CC-PVTZ-JKFIT

    Orbital Energies [Eh]
    ---------------------

    Doubly Occupied:

       1A    -20.657829     2A    -20.652905     3A    -20.652734
       4A    -20.650619     5A    -20.650495     6A    -20.650431
       7A    -20.650369     8A    -20.595697     9A    -15.903369
      10A    -15.901877    11A    -15.900479    12A    -11.453457
      13A    -11.385793    14A    -11.383110    15A    -11.379765
      16A    -11.373952    17A    -11.355821    18A    -11.355538
      19A     -1.636765    20A     -1.634641    21A     -1.634039
      22A     -1.505546    23A     -1.436850    24A     -1.434687
      25A     -1.434520    26A     -1.405349    27A     -1.292186
      28A     -1.184534    29A     -1.181866    30A     -1.054349
      31A     -1.036175    32A     -1.028082    33A     -0.922430
      34A     -0.885671    35A     -0.870942    36A     -0.837245
      37A     -0.803474    38A     -0.790444    39A     -0.789161
      40A     -0.776202    41A     -0.766043    42A     -0.763514
      43A     -0.757317    44A     -0.753519    45A     -0.745638
      46A     -0.741275    47A     -0.716548    48A     -0.690561
      49A     -0.667566    50A     -0.647029    51A     -0.627684
      52A     -0.609704    53A     -0.555547    54A     -0.550105
      55A     -0.544250    56A     -0.540378    57A     -0.536258
      58A     -0.534738    59A     -0.522502    60A     -0.507641
      61A     -0.493830    62A     -0.492318    63A     -0.487160
      64A     -0.449053    65A     -0.446148

  @DF-RHF Final Energy: -1029.04950805375029

   => Energetics <=

    Nuclear Repulsion Energy =           1345.9027135332344187
    One-Electron Energy =               -4083.3529947887986964
    Two-Electron Energy =                1708.4007732018139905
    Total Energy =                      -1029.0495080537502872
  Basis Set: (AUG-CC-PVTZ AUX)
    Blend: AUG-CC-PVTZ-RI
    Molecular point group: c1

    Geometry (in Angstrom), charge = 0, multiplicity = 1:

       Center              X                  Y                   Z               Mass
    ------------   -----------------  -----------------  -----------------  -----------------
         O           -2.914967136415    -0.480542003329     1.017258050289    15.994914619570
         O           -2.970224136415     0.512389996671    -1.040046949711    15.994914619570
         O           -0.315073136415    -3.433399003329     0.467580050289    15.994914619570
         O           -0.261076136415     3.444516996671    -0.476731949711    15.994914619570
         O           -1.903298136415    -2.484268003329    -0.748653949711    15.994914619570
         O           -1.842811136415     2.518419996671     0.767919050289    15.994914619570
         O            3.957650863585    -1.141270003329    -0.020595949711    15.994914619570
         O            3.979856863585     1.066812996671     0.046399050289    15.994914619570
         N           -0.846024136415    -2.466153003329    -0.099132949711    14.003074004430
         N           -0.798807136415     2.485895996671     0.097763050289    14.003074004430
         N            3.404869863585    -0.031496003329     0.010260050289    14.003074004430
         C           -0.845467536415     0.024623996671    -0.007862549711    12.000000000000
         C           -0.136361136415    -1.179265003329    -0.020268949711    12.000000000000
         C           -0.111402136415     1.187833996671     0.008579050289    12.000000000000
         C            1.928503863585    -0.016183003329     0.003128050289    12.000000000000
         C            1.252053863585    -1.228816003329    -0.000166949711    12.000000000000
         C            1.276782863585     1.210536996671     0.005196050289    12.000000000000
         C           -2.368645136415     0.051797996671    -0.092397949711    12.000000000000
         H            1.781420863585    -2.174887003329     0.007236050289     1.007825032230
         H            1.824689863585     2.146110996671     0.005840050289     1.007825032230
         H           -3.887902136415    -0.451795003329     0.890908050289     1.007825032230

  Basis Set: AUG-CC-PVTZ
    Blend: AUG-CC-PVTZ
  Basis Set: (AUG-CC-PVTZ AUX)
    Blend: AUG-CC-PVTZ-JKFIT
	 Reference Energy          =   -1029.0495080537502872 [Eh]
	 Singles Energy            =      -0.0000000000000000 [Eh]
	 Same-Spin Energy          =      -1.0497463072405322 [Eh]
	 Opposite-Spin Energy      =      -2.9499444748478751 [Eh]
	 Correlation Energy        =      -3.9996907820884076 [Eh]
	 Total Energy              =   -1033.0491988358387516 [Eh]

	 ================> DF-SCS-MP2 Energies <==================
	-----------------------------------------------------------
	 SCS Same-Spin Scale       =       0.3333333333333333 [-]
	 SCS Opposite-Spin Scale   =       1.2000000000000000 [-]
	 SCS Same-Spin Energy      =      -0.3499154357468440 [Eh]
	 SCS Opposite-Spin Energy  =      -3.5399333698174500 [Eh]
	 SCS Correlation Energy    =      -3.8898488055642941 [Eh]
	 SCS Total Energy          =   -1032.9393568593145574 [Eh]
	-----------------------------------------------------------

  Dipole Moment: [D]
     X:    -0.1683      Y:    -0.6255      Z:     1.1936     Total:     1.3580

*** Psi4 exiting successfully. Buy a developer a beer!
