                               Psi4 1.4a3.dev225

  ==> Input File <==

--------------------------------------------------------------------------
#psi4
#
memory 32 gb

molecule  {
0 1
  O       -2.9128620    -0.4781290     1.0138340
  O       -2.9681190     0.5148030    -1.0434710
  O       -0.3129680    -3.4309860     0.4641560
  O       -0.2589710     3.4469300    -0.4801560
  O       -1.9011930    -2.4818550    -0.7520780
  O       -1.8407060     2.5208330     0.7644950
  O        3.9597560    -1.1388570    -0.0240200
  O        3.9819620     1.0692260     0.0429750
  N       -0.8439190    -2.4637400    -0.1025570
  N       -0.7967020     2.4883090     0.0943390
  N        3.4069750    -0.0290830     0.0068360
  C       -0.8222458     0.0392222    -0.0107319
  C       -0.1342560    -1.1768520    -0.0236930
  C       -0.1092970     1.1902470     0.0051550
  C        1.9306090    -0.0137700    -0.0002960
  C        1.2541590    -1.2264030    -0.0035910
  C        1.2788880     1.2129500     0.0017720
  C       -2.3665400     0.0542110    -0.0958220
  H        1.7835260    -2.1724740     0.0038120
  H        1.8267950     2.1485240     0.0024160
  H       -3.8857970    -0.4493820     0.8874840
units angstrom
no_reorient  #important for SAPT in psi4, default
symmetry c1  #important for SAPT in psi4, default
}

set PROPERTIES_ORIGIN ["COM"]
properties('MP2/aug-cc-pvtz', properties = ['dipole'])
--------------------------------------------------------------------------

    Molecular point group: c1
  Charge       = 0
  Multiplicity = 1
  Basis Set: AUG-CC-PVTZ
    Blend: AUG-CC-PVTZ
  Basis Set: (AUG-CC-PVTZ AUX)
    Blend: AUG-CC-PVTZ-JKFIT

    Orbital Energies [Eh]
    ---------------------

    Doubly Occupied:

       1A    -20.657949     2A    -20.653008     3A    -20.652864
       4A    -20.651047     5A    -20.650822     6A    -20.650343
       7A    -20.650060     8A    -20.595361     9A    -15.903882
      10A    -15.901686    11A    -15.900845    12A    -11.454231
      13A    -11.384951    14A    -11.380697    15A    -11.379250
      16A    -11.371854    17A    -11.355943    18A    -11.355083
      19A     -1.636827    20A     -1.634564    21A     -1.634266
      22A     -1.504902    23A     -1.436923    24A     -1.434968
      25A     -1.434374    26A     -1.404938    27A     -1.293984
      28A     -1.185714    29A     -1.181310    30A     -1.052475
      31A     -1.036403    32A     -1.027929    33A     -0.920656
      34A     -0.887505    35A     -0.870704    36A     -0.837252
      37A     -0.804384    38A     -0.791201    39A     -0.789579
      40A     -0.774710    41A     -0.766023    42A     -0.763749
      43A     -0.757259    44A     -0.753388    45A     -0.745433
      46A     -0.741063    47A     -0.717089    48A     -0.689534
      49A     -0.667436    50A     -0.647626    51A     -0.625283
      52A     -0.610973    53A     -0.555682    54A     -0.550262
      55A     -0.544238    56A     -0.540456    57A     -0.536282
      58A     -0.535051    59A     -0.522533    60A     -0.505862
      61A     -0.493654    62A     -0.492306    63A     -0.487362
      64A     -0.451336    65A     -0.445371

  @DF-RHF Final Energy: -1029.04801608453113

   => Energetics <=

    Nuclear Repulsion Energy =           1345.9958959847956521
    One-Electron Energy =               -4083.5464305532332219
    Two-Electron Energy =                1708.5025184839066696
    Total Energy =                      -1029.0480160845311275
  Basis Set: (AUG-CC-PVTZ AUX)
    Blend: AUG-CC-PVTZ-RI
    Molecular point group: c1

    Geometry (in Angstrom), charge = 0, multiplicity = 1:

       Center              X                  Y                   Z               Mass
    ------------   -----------------  -----------------  -----------------  -----------------
         O           -2.915953156159    -0.481110979764     1.017232149095    15.994914619570
         O           -2.971210156159     0.511821020236    -1.040072850905    15.994914619570
         O           -0.316059156159    -3.433967979764     0.467554149095    15.994914619570
         O           -0.262062156159     3.443948020236    -0.476757850905    15.994914619570
         O           -1.904284156159    -2.484836979764    -0.748679850905    15.994914619570
         O           -1.843797156159     2.517851020236     0.767893149095    15.994914619570
         O            3.956664843841    -1.141838979764    -0.020621850905    15.994914619570
         O            3.978870843841     1.066244020236     0.046373149095    15.994914619570
         N           -0.847010156159    -2.466721979764    -0.099158850905    14.003074004430
         N           -0.799793156159     2.485327020236     0.097737149095    14.003074004430
         N            3.403883843841    -0.032064979764     0.010234149095    14.003074004430
         C           -0.825336956159     0.036240220236    -0.007333750905    12.000000000000
         C           -0.137347156159    -1.179833979764    -0.020294850905    12.000000000000
         C           -0.112388156159     1.187265020236     0.008553149095    12.000000000000
         C            1.927517843841    -0.016751979764     0.003102149095    12.000000000000
         C            1.251067843841    -1.229384979764    -0.000192850905    12.000000000000
         C            1.275796843841     1.209968020236     0.005170149095    12.000000000000
         C           -2.369631156159     0.051229020236    -0.092423850905    12.000000000000
         H            1.780434843841    -2.175455979764     0.007210149095     1.007825032230
         H            1.823703843841     2.145542020236     0.005814149095     1.007825032230
         H           -3.888888156159    -0.452363979764     0.890882149095     1.007825032230

  Basis Set: AUG-CC-PVTZ
    Blend: AUG-CC-PVTZ
  Basis Set: (AUG-CC-PVTZ AUX)
    Blend: AUG-CC-PVTZ-JKFIT
	 Reference Energy          =   -1029.0480160845311275 [Eh]
	 Singles Energy            =      -0.0000000000000000 [Eh]
	 Same-Spin Energy          =      -1.0495592404527672 [Eh]
	 Opposite-Spin Energy      =      -2.9496889381588782 [Eh]
	 Correlation Energy        =      -3.9992481786116452 [Eh]
	 Total Energy              =   -1033.0472642631427789 [Eh]

	 ================> DF-SCS-MP2 Energies <==================
	-----------------------------------------------------------
	 SCS Same-Spin Scale       =       0.3333333333333333 [-]
	 SCS Opposite-Spin Scale   =       1.2000000000000000 [-]
	 SCS Same-Spin Energy      =      -0.3498530801509224 [Eh]
	 SCS Opposite-Spin Energy  =      -3.5396267257906540 [Eh]
	 SCS Correlation Energy    =      -3.8894798059415763 [Eh]
	 SCS Total Energy          =   -1032.9374958904727464 [Eh]
	-----------------------------------------------------------

  Dipole Moment: [D]
     X:    -0.2003      Y:    -0.6329      Z:     1.1963     Total:     1.3681

*** Psi4 exiting successfully. Buy a developer a beer!
