                               Psi4 1.4a3.dev225

  ==> Input File <==

--------------------------------------------------------------------------
#psi4
#
memory 32 gb

molecule  {
0 1
  O       -2.9128620    -0.4781290     1.0138340
  O       -2.9681190     0.5148030    -1.0434710
  O       -0.3129680    -3.4309860     0.4641560
  O       -0.2589710     3.4469300    -0.4801560
  O       -1.9011930    -2.4818550    -0.7520780
  O       -1.8407060     2.5208330     0.7644950
  O        3.9597560    -1.1388570    -0.0240200
  O        3.9819620     1.0692260     0.0429750
  N       -0.7054329    -2.5311107    -0.0989407
  N       -0.7967020     2.4883090     0.0943390
  N        3.4069750    -0.0290830     0.0068360
  C       -0.8642630     0.0144850    -0.0118450
  C       -0.1342560    -1.1768520    -0.0236930
  C       -0.1092970     1.1902470     0.0051550
  C        1.9306090    -0.0137700    -0.0002960
  C        1.2541590    -1.2264030    -0.0035910
  C        1.2788880     1.2129500     0.0017720
  C       -2.3665400     0.0542110    -0.0958220
  H        1.7835260    -2.1724740     0.0038120
  H        1.8267950     2.1485240     0.0024160
  H       -3.8857970    -0.4493820     0.8874840
units angstrom
no_reorient  #important for SAPT in psi4, default
symmetry c1  #important for SAPT in psi4, default
}

set PROPERTIES_ORIGIN ["COM"]
properties('MP2/aug-cc-pvtz', properties = ['dipole'])
--------------------------------------------------------------------------

    Molecular point group: c1
  Charge       = 0
  Multiplicity = 1
  Basis Set: AUG-CC-PVTZ
    Blend: AUG-CC-PVTZ
  Basis Set: (AUG-CC-PVTZ AUX)
    Blend: AUG-CC-PVTZ-JKFIT

    Orbital Energies [Eh]
    ---------------------

    Doubly Occupied:

       1A    -20.700075     2A    -20.651397     3A    -20.651311
       4A    -20.650292     5A    -20.649630     6A    -20.649535
       7A    -20.604929     8A    -20.589366     9A    -15.902492
      10A    -15.899799    11A    -15.896949    12A    -11.447081
      13A    -11.387039    14A    -11.385969    15A    -11.380090
      16A    -11.377837    17A    -11.356000    18A    -11.355216
      19A     -1.698392    20A     -1.635517    21A     -1.633164
      22A     -1.499138    23A     -1.435557    24A     -1.433621
      25A     -1.398948    26A     -1.387913    27A     -1.289593
      28A     -1.184707    29A     -1.181723    30A     -1.061773
      31A     -1.035089    32A     -1.024297    33A     -0.921384
      34A     -0.891081    35A     -0.873714    36A     -0.842894
      37A     -0.808462    38A     -0.796784    39A     -0.790245
      40A     -0.780283    41A     -0.773311    42A     -0.763174
      43A     -0.758809    44A     -0.755595    45A     -0.748147
      46A     -0.737349    47A     -0.719924    48A     -0.691146
      49A     -0.662841    50A     -0.646013    51A     -0.625186
      52A     -0.609529    53A     -0.553960    54A     -0.545478
      55A     -0.542725    56A     -0.536131    57A     -0.533408
      58A     -0.524079    59A     -0.509563    60A     -0.502213
      61A     -0.494941    62A     -0.485413    63A     -0.482421
      64A     -0.447037    65A     -0.445485

  @DF-RHF Final Energy: -1029.02174545732169

   => Energetics <=

    Nuclear Repulsion Energy =           1345.1854603046817829
    One-Electron Energy =               -4081.9480776841105580
    Two-Electron Energy =                1707.7408719221070896
    Total Energy =                      -1029.0217454573216855
  Basis Set: (AUG-CC-PVTZ AUX)
    Blend: AUG-CC-PVTZ-RI
    Molecular point group: c1

    Geometry (in Angstrom), charge = 0, multiplicity = 1:

       Center              X                  Y                   Z               Mass
    ------------   -----------------  -----------------  -----------------  -----------------
         O           -2.921537083396    -0.476284980394     1.017087077986    15.994914619570
         O           -2.976794083396     0.516647019606    -1.040217922014    15.994914619570
         O           -0.321643083396    -3.429141980394     0.467409077986    15.994914619570
         O           -0.267646083396     3.448774019606    -0.476902922014    15.994914619570
         O           -1.909868083396    -2.480010980394    -0.748824922014    15.994914619570
         O           -1.849381083396     2.522677019606     0.767748077986    15.994914619570
         O            3.951080916604    -1.137012980394    -0.020766922014    15.994914619570
         O            3.973286916604     1.071070019606     0.046228077986    15.994914619570
         N           -0.714107983396    -2.529266680394    -0.095687622014    14.003074004430
         N           -0.805377083396     2.490153019606     0.097592077986    14.003074004430
         N            3.398299916604    -0.027238980394     0.010089077986    14.003074004430
         C           -0.872938083396     0.016329019606    -0.008591922014    12.000000000000
         C           -0.142931083396    -1.175007980394    -0.020439922014    12.000000000000
         C           -0.117972083396     1.192091019606     0.008408077986    12.000000000000
         C            1.921933916604    -0.011925980394     0.002957077986    12.000000000000
         C            1.245483916604    -1.224558980394    -0.000337922014    12.000000000000
         C            1.270212916604     1.214794019606     0.005025077986    12.000000000000
         C           -2.375215083396     0.056055019606    -0.092568922014    12.000000000000
         H            1.774850916604    -2.170629980394     0.007065077986     1.007825032230
         H            1.818119916604     2.150368019606     0.005669077986     1.007825032230
         H           -3.894472083396    -0.447537980394     0.890737077986     1.007825032230

  Basis Set: AUG-CC-PVTZ
    Blend: AUG-CC-PVTZ
  Basis Set: (AUG-CC-PVTZ AUX)
    Blend: AUG-CC-PVTZ-JKFIT
	 Reference Energy          =   -1029.0217454573216855 [Eh]
	 Singles Energy            =      -0.0000000000000000 [Eh]
	 Same-Spin Energy          =      -1.0477265970316472 [Eh]
	 Opposite-Spin Energy      =      -2.9459886765951948 [Eh]
	 Correlation Energy        =      -3.9937152736268420 [Eh]
	 Total Energy              =   -1033.0154607309484618 [Eh]

	 ================> DF-SCS-MP2 Energies <==================
	-----------------------------------------------------------
	 SCS Same-Spin Scale       =       0.3333333333333333 [-]
	 SCS Opposite-Spin Scale   =       1.2000000000000000 [-]
	 SCS Same-Spin Energy      =      -0.3492421990105490 [Eh]
	 SCS Opposite-Spin Energy  =      -3.5351864119142338 [Eh]
	 SCS Correlation Energy    =      -3.8844286109247830 [Eh]
	 SCS Total Energy          =   -1032.9061740682464006 [Eh]
	-----------------------------------------------------------

  Dipole Moment: [D]
     X:     0.4410      Y:    -0.8171      Z:     1.5877     Total:     1.8393

*** Psi4 exiting successfully. Buy a developer a beer!
