                               Psi4 1.4a3.dev225

  ==> Input File <==

--------------------------------------------------------------------------
#psi4
#
memory 32 gb

molecule  {
0 1
  O       -2.9128620    -0.4781290     1.0138340
  O       -2.9681190     0.5148030    -1.0434710
  O       -0.3129680    -3.4309860     0.4641560
  O       -0.2589710     3.4469300    -0.4801560
  O       -1.9011930    -2.4818550    -0.7520780
  O       -1.8407060     2.5208330     0.7644950
  O        3.9597560    -1.1388570    -0.0240200
  O        3.9819620     1.0692260     0.0429750
  N       -0.8439190    -2.4637400    -0.1025570
  N       -0.7967020     2.4883090     0.0943390
  N        3.4069750    -0.0290830     0.0068360
  C       -0.8642630     0.0144850    -0.0118450
  C       -0.1342560    -1.1768520    -0.0236930
  C       -0.0984916     1.2070751     0.0053983
  C        1.9306090    -0.0137700    -0.0002960
  C        1.2541590    -1.2264030    -0.0035910
  C        1.2788880     1.2129500     0.0017720
  C       -2.3665400     0.0542110    -0.0958220
  H        1.7835260    -2.1724740     0.0038120
  H        1.8267950     2.1485240     0.0024160
  H       -3.8857970    -0.4493820     0.8874840
units angstrom
no_reorient  #important for SAPT in psi4, default
symmetry c1  #important for SAPT in psi4, default
}

set PROPERTIES_ORIGIN ["COM"]
properties('MP2/aug-cc-pvtz', properties = ['dipole'])
--------------------------------------------------------------------------

    Molecular point group: c1
  Charge       = 0
  Multiplicity = 1
  Basis Set: AUG-CC-PVTZ
    Blend: AUG-CC-PVTZ
  Basis Set: (AUG-CC-PVTZ AUX)
    Blend: AUG-CC-PVTZ-JKFIT

    Orbital Energies [Eh]
    ---------------------

    Doubly Occupied:

       1A    -20.657765     2A    -20.653035     3A    -20.652759
       4A    -20.650540     5A    -20.650349     6A    -20.650279
       7A    -20.650037     8A    -20.596127     9A    -15.903013
      10A    -15.901970    11A    -15.900347    12A    -11.452693
      13A    -11.386829    14A    -11.385398    15A    -11.380099
      16A    -11.378344    17A    -11.356351    18A    -11.354121
      19A     -1.636889    20A     -1.634786    21A     -1.634492
      22A     -1.506261    23A     -1.436956    24A     -1.434722
      25A     -1.434536    26A     -1.405817    27A     -1.289670
      28A     -1.183898    29A     -1.182582    30A     -1.056440
      31A     -1.036790    32A     -1.029664    33A     -0.923125
      34A     -0.882625    35A     -0.871973    36A     -0.837299
      37A     -0.802736    38A     -0.790341    39A     -0.789549
      40A     -0.777211    41A     -0.766209    42A     -0.763735
      43A     -0.757261    44A     -0.753592    45A     -0.746319
      46A     -0.741637    47A     -0.715527    48A     -0.691212
      49A     -0.667878    50A     -0.644905    51A     -0.629679
      52A     -0.607729    53A     -0.555559    54A     -0.550167
      55A     -0.544467    56A     -0.540184    57A     -0.536308
      58A     -0.535022    59A     -0.522649    60A     -0.509294
      61A     -0.493856    62A     -0.492452    63A     -0.487118
      64A     -0.448720    65A     -0.444350

  @DF-RHF Final Energy: -1029.04896981449792

   => Energetics <=

    Nuclear Repulsion Energy =           1345.6702198480854804
    One-Electron Energy =               -4082.8698799601506835
    Two-Electron Energy =                1708.1506902975675075
    Total Energy =                      -1029.0489698144979229
  Basis Set: (AUG-CC-PVTZ AUX)
    Blend: AUG-CC-PVTZ-RI
    Molecular point group: c1

    Geometry (in Angstrom), charge = 0, multiplicity = 1:

       Center              X                  Y                   Z               Mass
    ------------   -----------------  -----------------  -----------------  -----------------
         O           -2.914495750561    -0.480741671790     1.017272763587    15.994914619570
         O           -2.969752750561     0.512190328210    -1.040032236413    15.994914619570
         O           -0.314601750561    -3.433598671790     0.467594763587    15.994914619570
         O           -0.260604750561     3.444317328210    -0.476717236413    15.994914619570
         O           -1.902826750561    -2.484467671790    -0.748639236413    15.994914619570
         O           -1.842339750561     2.518220328210     0.767933763587    15.994914619570
         O            3.958122249439    -1.141469671790    -0.020581236413    15.994914619570
         O            3.980328249439     1.066613328210     0.046413763587    15.994914619570
         N           -0.845552750561    -2.466352671790    -0.099118236413    14.003074004430
         N           -0.798335750561     2.485696328210     0.097777763587    14.003074004430
         N            3.405341249439    -0.031695671790     0.010274763587    14.003074004430
         C           -0.865896750561     0.011872328210    -0.008406236413    12.000000000000
         C           -0.135889750561    -1.179464671790    -0.020254236413    12.000000000000
         C           -0.100125350561     1.204462428210     0.008837063587    12.000000000000
         C            1.928975249439    -0.016382671790     0.003142763587    12.000000000000
         C            1.252525249439    -1.229015671790    -0.000152236413    12.000000000000
         C            1.277254249439     1.210337328210     0.005210763587    12.000000000000
         C           -2.368173750561     0.051598328210    -0.092383236413    12.000000000000
         H            1.781892249439    -2.175086671790     0.007250763587     1.007825032230
         H            1.825161249439     2.145911328210     0.005854763587     1.007825032230
         H           -3.887430750561    -0.451994671790     0.890922763587     1.007825032230

  Basis Set: AUG-CC-PVTZ
    Blend: AUG-CC-PVTZ
  Basis Set: (AUG-CC-PVTZ AUX)
    Blend: AUG-CC-PVTZ-JKFIT
	 Reference Energy          =   -1029.0489698144979229 [Eh]
	 Singles Energy            =      -0.0000000000000000 [Eh]
	 Same-Spin Energy          =      -1.0499683899718859 [Eh]
	 Opposite-Spin Energy      =      -2.9502793061374142 [Eh]
	 Correlation Energy        =      -4.0002476961092999 [Eh]
	 Total Energy              =   -1033.0492175106071500 [Eh]

	 ================> DF-SCS-MP2 Energies <==================
	-----------------------------------------------------------
	 SCS Same-Spin Scale       =       0.3333333333333333 [-]
	 SCS Opposite-Spin Scale   =       1.2000000000000000 [-]
	 SCS Same-Spin Energy      =      -0.3499894633239620 [Eh]
	 SCS Opposite-Spin Energy  =      -3.5403351673648968 [Eh]
	 SCS Correlation Energy    =      -3.8903246306888586 [Eh]
	 SCS Total Energy          =   -1032.9392944451867606 [Eh]
	-----------------------------------------------------------

  Dipole Moment: [D]
     X:    -0.1266      Y:    -0.6066      Z:     1.1951     Total:     1.3462

*** Psi4 exiting successfully. Buy a developer a beer!
