                               Psi4 1.4a3.dev225

  ==> Input File <==

--------------------------------------------------------------------------
#psi4
#
memory 32 gb

molecule  {
0 1
  O       -2.9128620    -0.4781290     1.0138340
  O       -2.9681190     0.5148030    -1.0434710
  O       -0.3129680    -3.4309860     0.4641560
  O       -0.2589710     3.4469300    -0.4801560
  O       -1.9011930    -2.4818550    -0.7520780
  O       -1.8407060     2.5208330     0.7644950
  O        3.9597560    -1.1388570    -0.0240200
  O        3.9819620     1.0692260     0.0429750
  N       -0.8439190    -2.4637400    -0.1025570
  N       -0.7967020     2.4883090     0.0943390
  N        3.4069750    -0.0290830     0.0068360
  C       -0.8642630     0.0144850    -0.0118450
  C       -0.1342560    -1.1768520    -0.0236930
  C       -0.1092970     1.1902470     0.0051550
  C        1.9306090    -0.0137700    -0.0002960
  C        1.2541590    -1.2264030    -0.0035910
  C        1.2988853     1.2132770     0.0017233
  C       -2.3665400     0.0542110    -0.0958220
  H        1.7835260    -2.1724740     0.0038120
  H        1.8267950     2.1485240     0.0024160
  H       -3.8857970    -0.4493820     0.8874840
units angstrom
no_reorient  #important for SAPT in psi4, default
symmetry c1  #important for SAPT in psi4, default
}

set PROPERTIES_ORIGIN ["COM"]
properties('MP2/aug-cc-pvtz', properties = ['dipole'])
--------------------------------------------------------------------------

    Molecular point group: c1
  Charge       = 0
  Multiplicity = 1
  Basis Set: AUG-CC-PVTZ
    Blend: AUG-CC-PVTZ
  Basis Set: (AUG-CC-PVTZ AUX)
    Blend: AUG-CC-PVTZ-JKFIT

    Orbital Energies [Eh]
    ---------------------

    Doubly Occupied:

       1A    -20.657610     2A    -20.652749     3A    -20.652612
       4A    -20.650705     5A    -20.650473     6A    -20.650119
       7A    -20.649915     8A    -20.595885     9A    -15.902842
      10A    -15.901633    11A    -15.900169    12A    -11.452477
      13A    -11.387223    14A    -11.386769    15A    -11.379909
      16A    -11.375664    17A    -11.356702    18A    -11.356346
      19A     -1.636691    20A     -1.634829    21A     -1.633570
      22A     -1.506105    23A     -1.436760    24A     -1.434813
      25A     -1.434153    26A     -1.405621    27A     -1.289691
      28A     -1.185824    29A     -1.179588    30A     -1.055888
      31A     -1.035514    32A     -1.028925    33A     -0.924207
      34A     -0.884106    35A     -0.870583    36A     -0.837216
      37A     -0.802740    38A     -0.790842    39A     -0.787314
      40A     -0.777896    41A     -0.766024    42A     -0.763245
      43A     -0.757313    44A     -0.753575    45A     -0.745968
      46A     -0.741562    47A     -0.715599    48A     -0.690371
      49A     -0.668350    50A     -0.649133    51A     -0.629582
      52A     -0.607839    53A     -0.555330    54A     -0.549843
      55A     -0.544353    56A     -0.540238    57A     -0.536085
      58A     -0.534190    59A     -0.522401    60A     -0.509172
      61A     -0.493989    62A     -0.492308    63A     -0.486912
      64A     -0.449272    65A     -0.443735

  @DF-RHF Final Energy: -1029.04881269615817

   => Energetics <=

    Nuclear Repulsion Energy =           1345.5785310614849095
    One-Electron Energy =               -4082.6965570042534637
    Two-Electron Energy =                1708.0692132466101611
    Total Energy =                      -1029.0488126961581656
  Basis Set: (AUG-CC-PVTZ AUX)
    Blend: AUG-CC-PVTZ-RI
    Molecular point group: c1

    Geometry (in Angstrom), charge = 0, multiplicity = 1:

       Center              X                  Y                   Z               Mass
    ------------   -----------------  -----------------  -----------------  -----------------
         O           -2.914924957672    -0.479971168470     1.017286398252    15.994914619570
         O           -2.970181957672     0.512960831530    -1.040018601748    15.994914619570
         O           -0.315030957672    -3.432828168470     0.467608398252    15.994914619570
         O           -0.261033957672     3.445087831530    -0.476703601748    15.994914619570
         O           -1.903255957672    -2.483697168470    -0.748625601748    15.994914619570
         O           -1.842768957672     2.518990831530     0.767947398252    15.994914619570
         O            3.957693042328    -1.140699168470    -0.020567601748    15.994914619570
         O            3.979899042328     1.067383831530     0.046427398252    15.994914619570
         N           -0.845981957672    -2.465582168470    -0.099104601748    14.003074004430
         N           -0.798764957672     2.486466831530     0.097791398252    14.003074004430
         N            3.404912042328    -0.030925168470     0.010288398252    14.003074004430
         C           -0.866325957672     0.012642831530    -0.008392601748    12.000000000000
         C           -0.136318957672    -1.178694168470    -0.020240601748    12.000000000000
         C           -0.111359957672     1.188404831530     0.008607398252    12.000000000000
         C            1.928546042328    -0.015612168470     0.003156398252    12.000000000000
         C            1.252096042328    -1.228245168470    -0.000138601748    12.000000000000
         C            1.296822342328     1.211434831530     0.005175698252    12.000000000000
         C           -2.368602957672     0.052368831530    -0.092369601748    12.000000000000
         H            1.781463042328    -2.174316168470     0.007264398252     1.007825032230
         H            1.824732042328     2.146681831530     0.005868398252     1.007825032230
         H           -3.887859957672    -0.451224168470     0.890936398252     1.007825032230

  Basis Set: AUG-CC-PVTZ
    Blend: AUG-CC-PVTZ
  Basis Set: (AUG-CC-PVTZ AUX)
    Blend: AUG-CC-PVTZ-JKFIT
	 Reference Energy          =   -1029.0488126961581656 [Eh]
	 Singles Energy            =      -0.0000000000000000 [Eh]
	 Same-Spin Energy          =      -1.0499631926534509 [Eh]
	 Opposite-Spin Energy      =      -2.9503461811545271 [Eh]
	 Correlation Energy        =      -4.0003093738079780 [Eh]
	 Total Energy              =   -1033.0491220699661881 [Eh]

	 ================> DF-SCS-MP2 Energies <==================
	-----------------------------------------------------------
	 SCS Same-Spin Scale       =       0.3333333333333333 [-]
	 SCS Opposite-Spin Scale   =       1.2000000000000000 [-]
	 SCS Same-Spin Energy      =      -0.3499877308844836 [Eh]
	 SCS Opposite-Spin Energy  =      -3.5404154173854323 [Eh]
	 SCS Correlation Energy    =      -3.8904031482699160 [Eh]
	 SCS Total Energy          =   -1032.9392158444281904 [Eh]
	-----------------------------------------------------------

  Dipole Moment: [D]
     X:    -0.1545      Y:    -0.6137      Z:     1.1918     Total:     1.3494

*** Psi4 exiting successfully. Buy a developer a beer!
