                               Psi4 1.4a3.dev225

  ==> Input File <==

--------------------------------------------------------------------------
#psi4
#
memory 32 gb

molecule  {
0 1
  O       -2.9128620    -0.4781290     1.0138340
  O       -2.9681190     0.5148030    -1.0434710
  O       -0.3129680    -3.4309860     0.4641560
  O       -0.2589710     3.4469300    -0.4801560
  O       -1.9011930    -2.4818550    -0.7520780
  O       -1.8407060     2.5208330     0.7644950
  O        3.9597560    -1.1388570    -0.0240200
  O        4.0199623     1.0484931     0.0425441
  N       -0.8439190    -2.4637400    -0.1025570
  N       -0.7967020     2.4883090     0.0943390
  N        3.4069750    -0.0290830     0.0068360
  C       -0.8642630     0.0144850    -0.0118450
  C       -0.1342560    -1.1768520    -0.0236930
  C       -0.1092970     1.1902470     0.0051550
  C        1.9306090    -0.0137700    -0.0002960
  C        1.2541590    -1.2264030    -0.0035910
  C        1.2788880     1.2129500     0.0017720
  C       -2.3665400     0.0542110    -0.0958220
  H        1.7835260    -2.1724740     0.0038120
  H        1.8267950     2.1485240     0.0024160
  H       -3.8857970    -0.4493820     0.8874840
units angstrom
no_reorient  #important for SAPT in psi4, default
symmetry c1  #important for SAPT in psi4, default
}

set PROPERTIES_ORIGIN ["COM"]
properties('MP2/aug-cc-pvtz', properties = ['dipole'])
--------------------------------------------------------------------------

    Molecular point group: c1
  Charge       = 0
  Multiplicity = 1
  Basis Set: AUG-CC-PVTZ
    Blend: AUG-CC-PVTZ
  Basis Set: (AUG-CC-PVTZ AUX)
    Blend: AUG-CC-PVTZ-JKFIT

    Orbital Energies [Eh]
    ---------------------

    Doubly Occupied:

       1A    -20.658189     2A    -20.653298     3A    -20.653089
       4A    -20.650750     5A    -20.650593     6A    -20.648929
       7A    -20.647648     8A    -20.596598     9A    -15.903381
      10A    -15.900720    11A    -15.900685    12A    -11.453181
      13A    -11.387475    14A    -11.386281    15A    -11.381986
      16A    -11.376845    17A    -11.357070    18A    -11.356903
      19A     -1.637197    20A     -1.634461    21A     -1.634160
      22A     -1.506727    23A     -1.437256    24A     -1.434808
      25A     -1.430141    26A     -1.406278    27A     -1.291553
      28A     -1.185925    29A     -1.182149    30A     -1.057410
      31A     -1.036851    32A     -1.029002    33A     -0.924504
      34A     -0.884543    35A     -0.871245    36A     -0.836481
      37A     -0.803428    38A     -0.790230    39A     -0.788798
      40A     -0.778150    41A     -0.766394    42A     -0.763758
      43A     -0.755915    44A     -0.752484    45A     -0.746200
      46A     -0.741996    47A     -0.716303    48A     -0.692399
      49A     -0.668256    50A     -0.647119    51A     -0.630536
      52A     -0.609252    53A     -0.556178    54A     -0.550464
      55A     -0.544136    56A     -0.538339    57A     -0.537066
      58A     -0.533791    59A     -0.522950    60A     -0.509822
      61A     -0.492763    62A     -0.491198    63A     -0.487460
      64A     -0.448754    65A     -0.446745

  @DF-RHF Final Energy: -1029.04928050014405

   => Energetics <=

    Nuclear Repulsion Energy =           1345.2726290613500169
    One-Electron Energy =               -4082.0534318953173170
    Two-Electron Energy =                1707.7315223338232499
    Total Energy =                      -1029.0492805001440502
  Basis Set: (AUG-CC-PVTZ AUX)
    Blend: AUG-CC-PVTZ-RI
    Molecular point group: c1

    Geometry (in Angstrom), charge = 0, multiplicity = 1:

       Center              X                  Y                   Z               Mass
    ------------   -----------------  -----------------  -----------------  -----------------
         O           -2.916356301582    -0.478665505465     1.017310943017    15.994914619570
         O           -2.971613301582     0.514266494535    -1.039994056983    15.994914619570
         O           -0.316462301582    -3.431522505465     0.467632943017    15.994914619570
         O           -0.262465301582     3.446393494535    -0.476679056983    15.994914619570
         O           -1.904687301582    -2.482391505465    -0.748601056983    15.994914619570
         O           -1.844200301582     2.520296494535     0.767971943017    15.994914619570
         O            3.956261698418    -1.139393505465    -0.020543056983    15.994914619570
         O            4.016467998418     1.047956594535     0.046021043017    15.994914619570
         N           -0.847413301582    -2.464276505465    -0.099080056983    14.003074004430
         N           -0.800196301582     2.487772494535     0.097815943017    14.003074004430
         N            3.403480698418    -0.029619505465     0.010312943017    14.003074004430
         C           -0.867757301582     0.013948494535    -0.008368056983    12.000000000000
         C           -0.137750301582    -1.177388505465    -0.020216056983    12.000000000000
         C           -0.112791301582     1.189710494535     0.008631943017    12.000000000000
         C            1.927114698418    -0.014306505465     0.003180943017    12.000000000000
         C            1.250664698418    -1.226939505465    -0.000114056983    12.000000000000
         C            1.275393698418     1.212413494535     0.005248943017    12.000000000000
         C           -2.370034301582     0.053674494535    -0.092345056983    12.000000000000
         H            1.780031698418    -2.173010505465     0.007288943017     1.007825032230
         H            1.823300698418     2.147987494535     0.005892943017     1.007825032230
         H           -3.889291301582    -0.449918505465     0.890960943017     1.007825032230

  Basis Set: AUG-CC-PVTZ
    Blend: AUG-CC-PVTZ
  Basis Set: (AUG-CC-PVTZ AUX)
    Blend: AUG-CC-PVTZ-JKFIT
	 Reference Energy          =   -1029.0492805001440502 [Eh]
	 Singles Energy            =      -0.0000000000000000 [Eh]
	 Same-Spin Energy          =      -1.0498467968759897 [Eh]
	 Opposite-Spin Energy      =      -2.9501774976565507 [Eh]
	 Correlation Energy        =      -4.0000242945325404 [Eh]
	 Total Energy              =   -1033.0493047946765728 [Eh]

	 ================> DF-SCS-MP2 Energies <==================
	-----------------------------------------------------------
	 SCS Same-Spin Scale       =       0.3333333333333333 [-]
	 SCS Opposite-Spin Scale   =       1.2000000000000000 [-]
	 SCS Same-Spin Energy      =      -0.3499489322919965 [Eh]
	 SCS Opposite-Spin Energy  =      -3.5402129971878606 [Eh]
	 SCS Correlation Energy    =      -3.8901619294798571 [Eh]
	 SCS Total Energy          =   -1032.9394424296237958 [Eh]
	-----------------------------------------------------------

  Dipole Moment: [D]
     X:    -0.2605      Y:    -0.5995      Z:     1.1907     Total:     1.3584

*** Psi4 exiting successfully. Buy a developer a beer!
