                               Psi4 1.4a3.dev225

  ==> Input File <==

--------------------------------------------------------------------------
#psi4
#
memory 32 gb

molecule  {
0 1
  O       -2.9128620    -0.4781290     1.0138340
  O       -2.9681190     0.5148030    -1.0434710
  O       -0.3129680    -3.4309860     0.4641560
  O       -0.2589710     3.4469300    -0.4801560
  O       -1.9011930    -2.4818550    -0.7520780
  O       -1.8407060     2.5208330     0.7644950
  O        3.9597560    -1.1388570    -0.0240200
  O        3.9819620     1.0692260     0.0429750
  N       -0.7583106    -2.6196948    -0.0111825
  N       -0.7967020     2.4883090     0.0943390
  N        3.4069750    -0.0290830     0.0068360
  C       -0.8642630     0.0144850    -0.0118450
  C       -0.1342560    -1.1768520    -0.0236930
  C       -0.1092970     1.1902470     0.0051550
  C        1.9306090    -0.0137700    -0.0002960
  C        1.2541590    -1.2264030    -0.0035910
  C        1.2788880     1.2129500     0.0017720
  C       -2.3665400     0.0542110    -0.0958220
  H        1.7835260    -2.1724740     0.0038120
  H        1.8267950     2.1485240     0.0024160
  H       -3.8857970    -0.4493820     0.8874840
units angstrom
no_reorient  #important for SAPT in psi4, default
symmetry c1  #important for SAPT in psi4, default
}

set PROPERTIES_ORIGIN ["COM"]
properties('MP2/aug-cc-pvtz', properties = ['dipole'])
--------------------------------------------------------------------------

    Molecular point group: c1
  Charge       = 0
  Multiplicity = 1
  Basis Set: AUG-CC-PVTZ
    Blend: AUG-CC-PVTZ
  Basis Set: (AUG-CC-PVTZ AUX)
    Blend: AUG-CC-PVTZ-JKFIT

    Orbital Energies [Eh]
    ---------------------

    Doubly Occupied:

       1A    -20.723156     2A    -20.648550     3A    -20.648430
       4A    -20.647190     5A    -20.646029     6A    -20.645928
       7A    -20.593161     8A    -20.585530     9A    -15.899509
      10A    -15.899288    11A    -15.895963    12A    -11.442879
      13A    -11.381035    14A    -11.380721    15A    -11.376137
      16A    -11.369838    17A    -11.349084    18A    -11.349004
      19A     -1.801585    20A     -1.632644    21A     -1.629523
      22A     -1.495730    23A     -1.432745    24A     -1.430049
      25A     -1.395425    26A     -1.388997    27A     -1.281558
      28A     -1.178641    29A     -1.163552    30A     -1.051095
      31A     -1.028654    32A     -1.009361    33A     -0.918504
      34A     -0.909357    35A     -0.873546    36A     -0.847745
      37A     -0.832767    38A     -0.817135    39A     -0.798544
      40A     -0.787526    41A     -0.773809    42A     -0.768933
      43A     -0.759534    44A     -0.753721    45A     -0.747807
      46A     -0.734378    47A     -0.718370    48A     -0.686988
      49A     -0.660409    50A     -0.641552    51A     -0.621955
      52A     -0.606774    53A     -0.550052    54A     -0.542131
      55A     -0.539339    56A     -0.533120    57A     -0.527640
      58A     -0.517962    59A     -0.502097    60A     -0.492631
      61A     -0.489184    62A     -0.488135    63A     -0.481389
      64A     -0.442185    65A     -0.437334

  @DF-RHF Final Energy: -1028.98629300964171

   => Energetics <=

    Nuclear Repulsion Energy =           1344.6165777674286801
    One-Electron Energy =               -4080.7986558220236475
    Two-Electron Energy =                1707.1957850449532543
    Total Energy =                      -1028.9862930096417131
  Basis Set: (AUG-CC-PVTZ AUX)
    Blend: AUG-CC-PVTZ-RI
    Molecular point group: c1

    Geometry (in Angstrom), charge = 0, multiplicity = 1:

       Center              X                  Y                   Z               Mass
    ------------   -----------------  -----------------  -----------------  -----------------
         O           -2.918655864114    -0.471458177848     1.012305277378    15.994914619570
         O           -2.973912864114     0.521473822152    -1.044999722622    15.994914619570
         O           -0.318761864114    -3.424315177848     0.462627277378    15.994914619570
         O           -0.264764864114     3.453600822152    -0.481684722622    15.994914619570
         O           -1.906986864114    -2.475184177848    -0.753606722622    15.994914619570
         O           -1.846499864114     2.527503822152     0.762966277378    15.994914619570
         O            3.953962135886    -1.132186177848    -0.025548722622    15.994914619570
         O            3.976168135886     1.075896822152     0.041446277378    15.994914619570
         N           -0.764104464114    -2.613023977848    -0.012711222622    14.003074004430
         N           -0.802495864114     2.494979822152     0.092810277378    14.003074004430
         N            3.401181135886    -0.022412177848     0.005307277378    14.003074004430
         C           -0.870056864114     0.021155822152    -0.013373722622    12.000000000000
         C           -0.140049864114    -1.170181177848    -0.025221722622    12.000000000000
         C           -0.115090864114     1.196917822152     0.003626277378    12.000000000000
         C            1.924815135886    -0.007099177848    -0.001824722622    12.000000000000
         C            1.248365135886    -1.219732177848    -0.005119722622    12.000000000000
         C            1.273094135886     1.219620822152     0.000243277378    12.000000000000
         C           -2.372333864114     0.060881822152    -0.097350722622    12.000000000000
         H            1.777732135886    -2.165803177848     0.002283277378     1.007825032230
         H            1.821001135886     2.155194822152     0.000887277378     1.007825032230
         H           -3.891590864114    -0.442711177848     0.885955277378     1.007825032230

  Basis Set: AUG-CC-PVTZ
    Blend: AUG-CC-PVTZ
  Basis Set: (AUG-CC-PVTZ AUX)
    Blend: AUG-CC-PVTZ-JKFIT
	 Reference Energy          =   -1028.9862930096417131 [Eh]
	 Singles Energy            =      -0.0000000000000000 [Eh]
	 Same-Spin Energy          =      -1.0441245608849552 [Eh]
	 Opposite-Spin Energy      =      -2.9372291133553494 [Eh]
	 Correlation Energy        =      -3.9813536742403048 [Eh]
	 Total Energy              =   -1032.9676466838820943 [Eh]

	 ================> DF-SCS-MP2 Energies <==================
	-----------------------------------------------------------
	 SCS Same-Spin Scale       =       0.3333333333333333 [-]
	 SCS Opposite-Spin Scale   =       1.2000000000000000 [-]
	 SCS Same-Spin Energy      =      -0.3480415202949850 [Eh]
	 SCS Opposite-Spin Energy  =      -3.5246749360264191 [Eh]
	 SCS Correlation Energy    =      -3.8727164563214043 [Eh]
	 SCS Total Energy          =   -1032.8590094659630267 [Eh]
	-----------------------------------------------------------

  Dipole Moment: [D]
     X:     0.5312      Y:    -1.7674      Z:     1.9904     Total:     2.7143

*** Psi4 exiting successfully. Buy a developer a beer!
