                               Psi4 1.4a3.dev225

  ==> Input File <==

--------------------------------------------------------------------------
#psi4
#
memory 32 gb

molecule  {
0 1
  O       -2.9128620    -0.4781290     1.0138340
  O       -2.9681190     0.5148030    -1.0434710
  O       -0.3129680    -3.4309860     0.4641560
  O       -0.2589710     3.4469300    -0.4801560
  O       -1.9011930    -2.4818550    -0.7520780
  O       -1.8407060     2.5208330     0.7644950
  O        3.9597560    -1.1388570    -0.0240200
  O        3.9819620     1.0692260     0.0429750
  N       -0.8439190    -2.4637400    -0.1025570
  N       -0.7967020     2.4883090     0.0943390
  N        3.4069750    -0.0290830     0.0068360
  C       -0.8642630     0.0144850    -0.0118450
  C       -0.1342560    -1.1768520    -0.0236930
  C       -0.1092970     1.1902470     0.0051550
  C        1.9306090    -0.0137700    -0.0002960
  C        1.1567265    -1.4010646    -0.0040656
  C        1.2788880     1.2129500     0.0017720
  C       -2.3665400     0.0542110    -0.0958220
  H        1.7835260    -2.1724740     0.0038120
  H        1.8267950     2.1485240     0.0024160
  H       -3.8857970    -0.4493820     0.8874840
units angstrom
no_reorient  #important for SAPT in psi4, default
symmetry c1  #important for SAPT in psi4, default
}

set PROPERTIES_ORIGIN ["COM"]
properties('MP2/aug-cc-pvtz', properties = ['dipole'])
--------------------------------------------------------------------------

    Molecular point group: c1
  Charge       = 0
  Multiplicity = 1
  Basis Set: AUG-CC-PVTZ
    Blend: AUG-CC-PVTZ
  Basis Set: (AUG-CC-PVTZ AUX)
    Blend: AUG-CC-PVTZ-JKFIT

    Orbital Energies [Eh]
    ---------------------

    Doubly Occupied:

       1A    -20.659034     2A    -20.652384     3A    -20.651604
       4A    -20.651171     5A    -20.650301     6A    -20.649332
       7A    -20.647452     8A    -20.597606     9A    -15.901662
      10A    -15.900842    11A    -15.897830    12A    -11.454919
      13A    -11.391643    14A    -11.389611    15A    -11.383511
      16A    -11.378679    17A    -11.362279    18A    -11.353108
      19A     -1.636178    20A     -1.635410    21A     -1.632295
      22A     -1.507637    23A     -1.436091    24A     -1.435794
      25A     -1.432498    26A     -1.407166    27A     -1.287265
      28A     -1.195620    29A     -1.167565    30A     -1.065419
      31A     -1.032045    32A     -1.022859    33A     -0.924382
      34A     -0.885331    35A     -0.870035    36A     -0.835161
      37A     -0.804692    38A     -0.803036    39A     -0.781031
      40A     -0.774190    41A     -0.766527    42A     -0.763425
      43A     -0.759542    44A     -0.751643    45A     -0.744845
      46A     -0.741226    47A     -0.723832    48A     -0.704705
      49A     -0.665879    50A     -0.637673    51A     -0.624209
      52A     -0.604817    53A     -0.554226    54A     -0.551164
      55A     -0.543430    56A     -0.538987    57A     -0.534557
      58A     -0.530981    59A     -0.521477    60A     -0.510779
      61A     -0.492630    62A     -0.491501    63A     -0.488218
      64A     -0.463570    65A     -0.428827

  @DF-RHF Final Energy: -1029.00495220805669

   => Energetics <=

    Nuclear Repulsion Energy =           1344.5202759609055647
    One-Electron Energy =               -4080.4837815494929600
    Two-Electron Energy =                1706.9585533805307023
    Total Energy =                      -1029.0049522080566931
  Basis Set: (AUG-CC-PVTZ AUX)
    Blend: AUG-CC-PVTZ-RI
    Molecular point group: c1

    Geometry (in Angstrom), charge = 0, multiplicity = 1:

       Center              X                  Y                   Z               Mass
    ------------   -----------------  -----------------  -----------------  -----------------
         O           -2.909441683785    -0.471800240640     1.017306285251    15.994914619570
         O           -2.964698683785     0.521131759360    -1.039998714749    15.994914619570
         O           -0.309547683785    -3.424657240640     0.467628285251    15.994914619570
         O           -0.255550683785     3.453258759360    -0.476683714749    15.994914619570
         O           -1.897772683785    -2.475526240640    -0.748605714749    15.994914619570
         O           -1.837285683785     2.527161759360     0.767967285251    15.994914619570
         O            3.963176316215    -1.132528240640    -0.020547714749    15.994914619570
         O            3.985382316215     1.075554759360     0.046447285251    15.994914619570
         N           -0.840498683785    -2.457411240640    -0.099084714749    14.003074004430
         N           -0.793281683785     2.494637759360     0.097811285251    14.003074004430
         N            3.410395316215    -0.022754240640     0.010308285251    14.003074004430
         C           -0.860842683785     0.020813759360    -0.008372714749    12.000000000000
         C           -0.130835683785    -1.170523240640    -0.020220714749    12.000000000000
         C           -0.105876683785     1.196575759360     0.008627285251    12.000000000000
         C            1.934029316215    -0.007441240640     0.003176285251    12.000000000000
         C            1.160146816215    -1.394735840640    -0.000593314749    12.000000000000
         C            1.282308316215     1.219278759360     0.005244285251    12.000000000000
         C           -2.363119683785     0.060539759360    -0.092349714749    12.000000000000
         H            1.786946316215    -2.166145240640     0.007284285251     1.007825032230
         H            1.830215316215     2.154852759360     0.005888285251     1.007825032230
         H           -3.882376683785    -0.443053240640     0.890956285251     1.007825032230

  Basis Set: AUG-CC-PVTZ
    Blend: AUG-CC-PVTZ
  Basis Set: (AUG-CC-PVTZ AUX)
    Blend: AUG-CC-PVTZ-JKFIT
	 Reference Energy          =   -1029.0049522080566931 [Eh]
	 Singles Energy            =      -0.0000000000000000 [Eh]
	 Same-Spin Energy          =      -1.0500846750471509 [Eh]
	 Opposite-Spin Energy      =      -2.9534230733440654 [Eh]
	 Correlation Energy        =      -4.0035077483912165 [Eh]
	 Total Energy              =   -1033.0084599564479504 [Eh]

	 ================> DF-SCS-MP2 Energies <==================
	-----------------------------------------------------------
	 SCS Same-Spin Scale       =       0.3333333333333333 [-]
	 SCS Opposite-Spin Scale   =       1.2000000000000000 [-]
	 SCS Same-Spin Energy      =      -0.3500282250157170 [Eh]
	 SCS Opposite-Spin Energy  =      -3.5441076880128786 [Eh]
	 SCS Correlation Energy    =      -3.8941359130285953 [Eh]
	 SCS Total Energy          =   -1032.8990881210852422 [Eh]
	-----------------------------------------------------------

  Dipole Moment: [D]
     X:    -0.1168      Y:    -0.4926      Z:     1.2083     Total:     1.3101

*** Psi4 exiting successfully. Buy a developer a beer!
