                               Psi4 1.4a3.dev225

  ==> Input File <==

--------------------------------------------------------------------------
#psi4
#
memory 32 gb

molecule  {
0 1
  O       -2.9128620    -0.4781290     1.0138340
  O       -2.9681190     0.5148030    -1.0434710
  O       -0.3129680    -3.4309860     0.4641560
  O       -0.2589710     3.4469300    -0.4801560
  O       -1.9011930    -2.4818550    -0.7520780
  O       -1.8407060     2.5208330     0.7644950
  O        3.9597560    -1.1388570    -0.0240200
  O        3.9432612     1.0886208     0.0433619
  N       -0.8439190    -2.4637400    -0.1025570
  N       -0.7967020     2.4883090     0.0943390
  N        3.4069750    -0.0290830     0.0068360
  C       -0.8642630     0.0144850    -0.0118450
  C       -0.1342560    -1.1768520    -0.0236930
  C       -0.1092970     1.1902470     0.0051550
  C        1.9306090    -0.0137700    -0.0002960
  C        1.2541590    -1.2264030    -0.0035910
  C        1.2788880     1.2129500     0.0017720
  C       -2.3665400     0.0542110    -0.0958220
  H        1.7835260    -2.1724740     0.0038120
  H        1.8267950     2.1485240     0.0024160
  H       -3.8857970    -0.4493820     0.8874840
units angstrom
no_reorient  #important for SAPT in psi4, default
symmetry c1  #important for SAPT in psi4, default
}

set PROPERTIES_ORIGIN ["COM"]
properties('MP2/aug-cc-pvtz', properties = ['dipole'])
--------------------------------------------------------------------------

    Molecular point group: c1
  Charge       = 0
  Multiplicity = 1
  Basis Set: AUG-CC-PVTZ
    Blend: AUG-CC-PVTZ
  Basis Set: (AUG-CC-PVTZ AUX)
    Blend: AUG-CC-PVTZ-JKFIT

    Orbital Energies [Eh]
    ---------------------

    Doubly Occupied:

       1A    -20.657219     2A    -20.653596     3A    -20.652324
       4A    -20.652269     5A    -20.652072     6A    -20.649641
       7A    -20.649494     8A    -20.595513     9A    -15.903373
      10A    -15.902292    11A    -15.899547    12A    -11.452050
      13A    -11.385866    14A    -11.384597    15A    -11.378553
      16A    -11.375092    17A    -11.354901    18A    -11.354448
      19A     -1.636199    20A     -1.635369    21A     -1.633145
      22A     -1.505715    23A     -1.439383    24A     -1.436254
      25A     -1.433715    26A     -1.405251    27A     -1.289481
      28A     -1.182910    29A     -1.180630    30A     -1.055763
      31A     -1.034857    32A     -1.027368    33A     -0.924072
      34A     -0.883180    35A     -0.871135    36A     -0.837977
      37A     -0.802333    38A     -0.789876    39A     -0.787861
      40A     -0.776798    41A     -0.765703    42A     -0.762733
      43A     -0.758832    44A     -0.754761    45A     -0.745388
      46A     -0.740945    47A     -0.715680    48A     -0.690592
      49A     -0.667121    50A     -0.645503    51A     -0.629294
      52A     -0.607652    53A     -0.554646    54A     -0.549402
      55A     -0.546097    56A     -0.541349    57A     -0.535223
      58A     -0.534100    59A     -0.521941    60A     -0.508706
      61A     -0.496768    62A     -0.491862    63A     -0.486449
      64A     -0.446621    65A     -0.445292

  @DF-RHF Final Energy: -1029.04871404232995

   => Energetics <=

    Nuclear Repulsion Energy =           1346.4019016133711375
    One-Electron Energy =               -4084.3716858027014496
    Two-Electron Energy =                1708.9210701470003642
    Total Energy =                      -1029.0487140423299479
  Basis Set: (AUG-CC-PVTZ AUX)
    Blend: AUG-CC-PVTZ-RI
    Molecular point group: c1

    Geometry (in Angstrom), charge = 0, multiplicity = 1:

       Center              X                  Y                   Z               Mass
    ------------   -----------------  -----------------  -----------------  -----------------
         O           -2.911582505204    -0.481163011614     1.017260043999    15.994914619570
         O           -2.966839505204     0.511768988386    -1.040044956001    15.994914619570
         O           -0.311688505204    -3.434020011614     0.467582043999    15.994914619570
         O           -0.257691505204     3.443895988386    -0.476729956001    15.994914619570
         O           -1.899913505204    -2.484889011614    -0.748651956001    15.994914619570
         O           -1.839426505204     2.517798988386     0.767921043999    15.994914619570
         O            3.961035494796    -1.141891011614    -0.020593956001    15.994914619570
         O            3.944540694796     1.085586788386     0.046787943999    15.994914619570
         N           -0.842639505204    -2.466774011614    -0.099130956001    14.003074004430
         N           -0.795422505204     2.485274988386     0.097765043999    14.003074004430
         N            3.408254494796    -0.032117011614     0.010262043999    14.003074004430
         C           -0.862983505204     0.011450988386    -0.008418956001    12.000000000000
         C           -0.132976505204    -1.179886011614    -0.020266956001    12.000000000000
         C           -0.108017505204     1.187212988386     0.008581043999    12.000000000000
         C            1.931888494796    -0.016804011614     0.003130043999    12.000000000000
         C            1.255438494796    -1.229437011614    -0.000164956001    12.000000000000
         C            1.280167494796     1.209915988386     0.005198043999    12.000000000000
         C           -2.365260505204     0.051176988386    -0.092395956001    12.000000000000
         H            1.784805494796    -2.175508011614     0.007238043999     1.007825032230
         H            1.828074494796     2.145489988386     0.005842043999     1.007825032230
         H           -3.884517505204    -0.452416011614     0.890910043999     1.007825032230

  Basis Set: AUG-CC-PVTZ
    Blend: AUG-CC-PVTZ
  Basis Set: (AUG-CC-PVTZ AUX)
    Blend: AUG-CC-PVTZ-JKFIT
	 Reference Energy          =   -1029.0487140423299479 [Eh]
	 Singles Energy            =      -0.0000000000000000 [Eh]
	 Same-Spin Energy          =      -1.0501387725249922 [Eh]
	 Opposite-Spin Energy      =      -2.9504887821849457 [Eh]
	 Correlation Energy        =      -4.0006275547099381 [Eh]
	 Total Energy              =   -1033.0493415970399838 [Eh]

	 ================> DF-SCS-MP2 Energies <==================
	-----------------------------------------------------------
	 SCS Same-Spin Scale       =       0.3333333333333333 [-]
	 SCS Opposite-Spin Scale   =       1.2000000000000000 [-]
	 SCS Same-Spin Energy      =      -0.3500462575083307 [Eh]
	 SCS Opposite-Spin Energy  =      -3.5405865386219348 [Eh]
	 SCS Correlation Energy    =      -3.8906327961302654 [Eh]
	 SCS Total Energy          =   -1032.9393468384603239 [Eh]
	-----------------------------------------------------------

  Dipole Moment: [D]
     X:    -0.0105      Y:    -0.6347      Z:     1.1903     Total:     1.3490

*** Psi4 exiting successfully. Buy a developer a beer!
