                               Psi4 1.4a3.dev225

  ==> Input File <==

--------------------------------------------------------------------------
#psi4
#
memory 32 gb

molecule  {
0 1
  O       -2.9128620    -0.4781290     1.0138340
  O       -2.9681190     0.5148030    -1.0434710
  O       -0.3129680    -3.4309860     0.4641560
  O       -0.2589710     3.4469300    -0.4801560
  O       -1.9011930    -2.4818550    -0.7520780
  O       -1.8407060     2.5208330     0.7644950
  O        3.9597560    -1.1388570    -0.0240200
  O        3.9819620     1.0692260     0.0429750
  N       -0.9320138    -2.4109412    -0.1044899
  N       -0.7967020     2.4883090     0.0943390
  N        3.4069750    -0.0290830     0.0068360
  C       -0.8642630     0.0144850    -0.0118450
  C       -0.1342560    -1.1768520    -0.0236930
  C       -0.1092970     1.1902470     0.0051550
  C        1.9306090    -0.0137700    -0.0002960
  C        1.2541590    -1.2264030    -0.0035910
  C        1.2788880     1.2129500     0.0017720
  C       -2.3665400     0.0542110    -0.0958220
  H        1.7835260    -2.1724740     0.0038120
  H        1.8267950     2.1485240     0.0024160
  H       -3.8857970    -0.4493820     0.8874840
units angstrom
no_reorient  #important for SAPT in psi4, default
symmetry c1  #important for SAPT in psi4, default
}

set PROPERTIES_ORIGIN ["COM"]
properties('MP2/aug-cc-pvtz', properties = ['dipole'])
--------------------------------------------------------------------------

    Molecular point group: c1
  Charge       = 0
  Multiplicity = 1
  Basis Set: AUG-CC-PVTZ
    Blend: AUG-CC-PVTZ
  Basis Set: (AUG-CC-PVTZ AUX)
    Blend: AUG-CC-PVTZ-JKFIT

    Orbital Energies [Eh]
    ---------------------

    Doubly Occupied:

       1A    -20.684512     2A    -20.663102     3A    -20.650647
       4A    -20.650453     5A    -20.650240     6A    -20.650183
       7A    -20.619592     8A    -20.600969     9A    -15.901776
      10A    -15.900368    11A    -15.899562    12A    -11.456573
      13A    -11.386899    14A    -11.385078    15A    -11.380313
      16A    -11.374820    17A    -11.356683    18A    -11.355670
      19A     -1.666992    20A     -1.634469    21A     -1.634080
      22A     -1.511367    23A     -1.434799    24A     -1.434314
      25A     -1.410755    26A     -1.409496    27A     -1.290159
      28A     -1.186376    29A     -1.179630    30A     -1.054105
      31A     -1.038004    32A     -1.030040    33A     -0.926775
      34A     -0.886853    35A     -0.871780    36A     -0.840043
      37A     -0.803596    38A     -0.795972    39A     -0.787572
      40A     -0.781421    41A     -0.769739    42A     -0.764352
      43A     -0.758319    44A     -0.754594    45A     -0.748351
      46A     -0.746684    47A     -0.715653    48A     -0.692991
      49A     -0.671704    50A     -0.647123    51A     -0.633707
      52A     -0.609077    53A     -0.556929    54A     -0.546620
      55A     -0.543456    56A     -0.539310    57A     -0.536149
      58A     -0.526325    59A     -0.520890    60A     -0.513338
      61A     -0.493429    62A     -0.488102    63A     -0.487450
      64A     -0.448401    65A     -0.444647

  @DF-RHF Final Energy: -1029.03655700658715

   => Energetics <=

    Nuclear Repulsion Energy =           1346.5632379336013855
    One-Electron Energy =               -4084.5328380438008935
    Two-Electron Energy =                1708.9330431036121354
    Total Energy =                      -1029.0365570065871452
  Basis Set: (AUG-CC-PVTZ AUX)
    Blend: AUG-CC-PVTZ-RI
    Molecular point group: c1

    Geometry (in Angstrom), charge = 0, multiplicity = 1:

       Center              X                  Y                   Z               Mass
    ------------   -----------------  -----------------  -----------------  -----------------
         O           -2.909191061196    -0.482832819664     1.017389444807    15.994914619570
         O           -2.964448061196     0.510099180336    -1.039915555193    15.994914619570
         O           -0.309297061196    -3.435689819664     0.467711444807    15.994914619570
         O           -0.255300061196     3.442226180336    -0.476600555193    15.994914619570
         O           -1.897522061196    -2.486558819664    -0.748522555193    15.994914619570
         O           -1.837035061196     2.516129180336     0.768050444807    15.994914619570
         O            3.963426938804    -1.143560819664    -0.020464555193    15.994914619570
         O            3.985632938804     1.064522180336     0.046530444807    15.994914619570
         N           -0.928342861196    -2.415645019664    -0.100934455193    14.003074004430
         N           -0.793031061196     2.483605180336     0.097894444807    14.003074004430
         N            3.410645938804    -0.033786819664     0.010391444807    14.003074004430
         C           -0.860592061196     0.009781180336    -0.008289555193    12.000000000000
         C           -0.130585061196    -1.181555819664    -0.020137555193    12.000000000000
         C           -0.105626061196     1.185543180336     0.008710444807    12.000000000000
         C            1.934279938804    -0.018473819664     0.003259444807    12.000000000000
         C            1.257829938804    -1.231106819664    -0.000035555193    12.000000000000
         C            1.282558938804     1.208246180336     0.005327444807    12.000000000000
         C           -2.362869061196     0.049507180336    -0.092266555193    12.000000000000
         H            1.787196938804    -2.177177819664     0.007367444807     1.007825032230
         H            1.830465938804     2.143820180336     0.005971444807     1.007825032230
         H           -3.882126061196    -0.454085819664     0.891039444807     1.007825032230

  Basis Set: AUG-CC-PVTZ
    Blend: AUG-CC-PVTZ
  Basis Set: (AUG-CC-PVTZ AUX)
    Blend: AUG-CC-PVTZ-JKFIT
	 Reference Energy          =   -1029.0365570065871452 [Eh]
	 Singles Energy            =      -0.0000000000000000 [Eh]
	 Same-Spin Energy          =      -1.0490876069200177 [Eh]
	 Opposite-Spin Energy      =      -2.9486255124847922 [Eh]
	 Correlation Energy        =      -3.9977131194048097 [Eh]
	 Total Energy              =   -1033.0342701259919522 [Eh]

	 ================> DF-SCS-MP2 Energies <==================
	-----------------------------------------------------------
	 SCS Same-Spin Scale       =       0.3333333333333333 [-]
	 SCS Opposite-Spin Scale   =       1.2000000000000000 [-]
	 SCS Same-Spin Energy      =      -0.3496958689733392 [Eh]
	 SCS Opposite-Spin Energy  =      -3.5383506149817507 [Eh]
	 SCS Correlation Energy    =      -3.8880464839550899 [Eh]
	 SCS Total Energy          =   -1032.9246034905422675 [Eh]
	-----------------------------------------------------------

  Dipole Moment: [D]
     X:    -0.3941      Y:    -0.3651      Z:     0.9781     Total:     1.1160

*** Psi4 exiting successfully. Buy a developer a beer!
