                               Psi4 1.4a3.dev225

  ==> Input File <==

--------------------------------------------------------------------------
#psi4
#
memory 32 gb

molecule  {
0 1
  O       -2.9128620    -0.4781290     1.0138340
  O       -2.9681190     0.5148030    -1.0434710
  O       -0.3129680    -3.4309860     0.4641560
  O       -0.2589710     3.4469300    -0.4801560
  O       -1.9011930    -2.4818550    -0.7520780
  O       -1.8407060     2.5208330     0.7644950
  O        3.9981642    -1.1189036    -0.0232239
  O        3.9819620     1.0692260     0.0429750
  N       -0.8439190    -2.4637400    -0.1025570
  N       -0.7967020     2.4883090     0.0943390
  N        3.4069750    -0.0290830     0.0068360
  C       -0.8642630     0.0144850    -0.0118450
  C       -0.1342560    -1.1768520    -0.0236930
  C       -0.1092970     1.1902470     0.0051550
  C        1.9306090    -0.0137700    -0.0002960
  C        1.2541590    -1.2264030    -0.0035910
  C        1.2788880     1.2129500     0.0017720
  C       -2.3665400     0.0542110    -0.0958220
  H        1.7835260    -2.1724740     0.0038120
  H        1.8267950     2.1485240     0.0024160
  H       -3.8857970    -0.4493820     0.8874840
units angstrom
no_reorient  #important for SAPT in psi4, default
symmetry c1  #important for SAPT in psi4, default
}

set PROPERTIES_ORIGIN ["COM"]
properties('MP2/aug-cc-pvtz', properties = ['dipole'])
--------------------------------------------------------------------------

    Molecular point group: c1
  Charge       = 0
  Multiplicity = 1
  Basis Set: AUG-CC-PVTZ
    Blend: AUG-CC-PVTZ
  Basis Set: (AUG-CC-PVTZ AUX)
    Blend: AUG-CC-PVTZ-JKFIT

    Orbital Energies [Eh]
    ---------------------

    Doubly Occupied:

       1A    -20.658190     2A    -20.653341     3A    -20.653134
       4A    -20.650708     5A    -20.650549     6A    -20.648879
       7A    -20.647697     8A    -20.596601     9A    -15.903409
      10A    -15.900719    11A    -15.900658    12A    -11.453184
      13A    -11.387510    14A    -11.386247    15A    -11.381989
      16A    -11.376848    17A    -11.357215    18A    -11.356757
      19A     -1.637243    20A     -1.634450    21A     -1.634126
      22A     -1.506729    23A     -1.437305    24A     -1.434760
      25A     -1.430140    26A     -1.406280    27A     -1.291554
      28A     -1.185888    29A     -1.182189    30A     -1.057415
      31A     -1.036787    32A     -1.029063    33A     -0.924506
      34A     -0.884452    35A     -0.871344    36A     -0.836516
      37A     -0.803290    38A     -0.790504    39A     -0.788630
      40A     -0.778148    41A     -0.766444    42A     -0.763736
      43A     -0.755860    44A     -0.752420    45A     -0.746289
      46A     -0.741987    47A     -0.716285    48A     -0.692431
      49A     -0.668264    50A     -0.647113    51A     -0.630526
      52A     -0.609253    53A     -0.556221    54A     -0.550471
      55A     -0.544067    56A     -0.538357    57A     -0.537033
      58A     -0.533812    59A     -0.522948    60A     -0.509835
      61A     -0.492829    62A     -0.491205    63A     -0.487398
      64A     -0.448561    65A     -0.446935

  @DF-RHF Final Energy: -1029.04927985322411

   => Energetics <=

    Nuclear Repulsion Energy =           1345.2718542968211750
    One-Electron Energy =               -4082.0518072258601023
    Two-Electron Energy =                1707.7306730758145932
    Total Energy =                      -1029.0492798532241068
  Basis Set: (AUG-CC-PVTZ AUX)
    Blend: AUG-CC-PVTZ-RI
    Molecular point group: c1

    Geometry (in Angstrom), charge = 0, multiplicity = 1:

       Center              X                  Y                   Z               Mass
    ------------   -----------------  -----------------  -----------------  -----------------
         O           -2.916381688852    -0.481197778295     1.017234575819    15.994914619570
         O           -2.971638688852     0.511734221705    -1.040070424181    15.994914619570
         O           -0.316487688852    -3.434054778295     0.467556575819    15.994914619570
         O           -0.262490688852     3.443861221705    -0.476755424181    15.994914619570
         O           -1.904712688852    -2.484923778295    -0.748677424181    15.994914619570
         O           -1.844225688852     2.517764221705     0.767895575819    15.994914619570
         O            3.994644511148    -1.121972378295    -0.019823324181    15.994914619570
         O            3.978442311148     1.066157221705     0.046375575819    15.994914619570
         N           -0.847438688852    -2.466808778295    -0.099156424181    14.003074004430
         N           -0.800221688852     2.485240221705     0.097739575819    14.003074004430
         N            3.403455311148    -0.032151778295     0.010236575819    14.003074004430
         C           -0.867782688852     0.011416221705    -0.008444424181    12.000000000000
         C           -0.137775688852    -1.179920778295    -0.020292424181    12.000000000000
         C           -0.112816688852     1.187178221705     0.008555575819    12.000000000000
         C            1.927089311148    -0.016838778295     0.003104575819    12.000000000000
         C            1.250639311148    -1.229471778295    -0.000190424181    12.000000000000
         C            1.275368311148     1.209881221705     0.005172575819    12.000000000000
         C           -2.370059688852     0.051142221705    -0.092421424181    12.000000000000
         H            1.780006311148    -2.175542778295     0.007212575819     1.007825032230
         H            1.823275311148     2.145455221705     0.005816575819     1.007825032230
         H           -3.889316688852    -0.452450778295     0.890884575819     1.007825032230

  Basis Set: AUG-CC-PVTZ
    Blend: AUG-CC-PVTZ
  Basis Set: (AUG-CC-PVTZ AUX)
    Blend: AUG-CC-PVTZ-JKFIT
	 Reference Energy          =   -1029.0492798532241068 [Eh]
	 Singles Energy            =      -0.0000000000000000 [Eh]
	 Same-Spin Energy          =      -1.0498468511626040 [Eh]
	 Opposite-Spin Energy      =      -2.9501785269603769 [Eh]
	 Correlation Energy        =      -4.0000253781229809 [Eh]
	 Total Energy              =   -1033.0493052313470344 [Eh]

	 ================> DF-SCS-MP2 Energies <==================
	-----------------------------------------------------------
	 SCS Same-Spin Scale       =       0.3333333333333333 [-]
	 SCS Opposite-Spin Scale   =       1.2000000000000000 [-]
	 SCS Same-Spin Energy      =      -0.3499489503875347 [Eh]
	 SCS Opposite-Spin Energy  =      -3.5402142323524521 [Eh]
	 SCS Correlation Energy    =      -3.8901631827399870 [Eh]
	 SCS Total Energy          =   -1032.9394430359641319 [Eh]
	-----------------------------------------------------------

  Dipole Moment: [D]
     X:    -0.2610      Y:    -0.6337      Z:     1.1888     Total:     1.3722

*** Psi4 exiting successfully. Buy a developer a beer!
