                               Psi4 1.4a3.dev225

  ==> Input File <==

--------------------------------------------------------------------------
#psi4
#
memory 32 gb

molecule  {
0 1
  O       -2.9128620    -0.4781290     1.0138340
  O       -2.9681190     0.5148030    -1.0434710
  O       -0.3129680    -3.4309860     0.4641560
  O       -0.2589710     3.4469300    -0.4801560
  O       -1.9011930    -2.4818550    -0.7520780
  O       -1.8407060     2.5208330     0.7644950
  O        3.9597560    -1.1388570    -0.0240200
  O        3.9819620     1.0692260     0.0429750
  N       -0.8439190    -2.4637400    -0.1025570
  N       -0.7967020     2.4883090     0.0943390
  N        3.4069750    -0.0290830     0.0068360
  C       -0.8642630     0.0144850    -0.0118450
  C       -0.1439001    -1.1943404    -0.0247647
  C       -0.1092970     1.1902470     0.0051550
  C        1.9306090    -0.0137700    -0.0002960
  C        1.2541590    -1.2264030    -0.0035910
  C        1.2788880     1.2129500     0.0017720
  C       -2.3665400     0.0542110    -0.0958220
  H        1.7835260    -2.1724740     0.0038120
  H        1.8267950     2.1485240     0.0024160
  H       -3.8857970    -0.4493820     0.8874840
units angstrom
no_reorient  #important for SAPT in psi4, default
symmetry c1  #important for SAPT in psi4, default
}

set PROPERTIES_ORIGIN ["COM"]
properties('MP2/aug-cc-pvtz', properties = ['dipole'])
--------------------------------------------------------------------------

    Molecular point group: c1
  Charge       = 0
  Multiplicity = 1
  Basis Set: AUG-CC-PVTZ
    Blend: AUG-CC-PVTZ
  Basis Set: (AUG-CC-PVTZ AUX)
    Blend: AUG-CC-PVTZ-JKFIT

    Orbital Energies [Eh]
    ---------------------

    Doubly Occupied:

       1A    -20.657577     2A    -20.652905     3A    -20.652745
       4A    -20.650640     5A    -20.650539     6A    -20.650205
       7A    -20.650030     8A    -20.595813     9A    -15.903419
      10A    -15.902139    11A    -15.900223    12A    -11.452122
      13A    -11.386839    14A    -11.385304    15A    -11.380110
      16A    -11.377331    17A    -11.357289    18A    -11.356413
      19A     -1.638709    20A     -1.634806    21A     -1.633711
      22A     -1.506067    23A     -1.437605    24A     -1.434778
      25A     -1.434260    26A     -1.405573    27A     -1.288956
      28A     -1.185288    29A     -1.182059    30A     -1.057361
      31A     -1.037352    32A     -1.028812    33A     -0.923363
      34A     -0.883834    35A     -0.870758    36A     -0.837410
      37A     -0.802986    38A     -0.791674    39A     -0.788309
      40A     -0.777646    41A     -0.767056    42A     -0.763468
      43A     -0.757435    44A     -0.753811    45A     -0.745992
      46A     -0.741779    47A     -0.715224    48A     -0.689876
      49A     -0.667658    50A     -0.645483    51A     -0.629122
      52A     -0.606851    53A     -0.556016    54A     -0.550254
      55A     -0.544701    56A     -0.540219    57A     -0.537076
      58A     -0.534563    59A     -0.522667    60A     -0.508888
      61A     -0.493970    62A     -0.492685    63A     -0.486963
      64A     -0.446838    65A     -0.445303

  @DF-RHF Final Energy: -1029.04909619877481

   => Energetics <=

    Nuclear Repulsion Energy =           1345.7309576002126050
    One-Electron Energy =               -4082.9863872637379245
    Two-Electron Energy =                1708.2063334647505144
    Total Energy =                      -1029.0490961987748051
  Basis Set: (AUG-CC-PVTZ AUX)
    Blend: AUG-CC-PVTZ-RI
    Molecular point group: c1

    Geometry (in Angstrom), charge = 0, multiplicity = 1:

       Center              X                  Y                   Z               Mass
    ------------   -----------------  -----------------  -----------------  -----------------
         O           -2.913540880423    -0.479139295150     1.017334166273    15.994914619570
         O           -2.968797880423     0.513792704850    -1.039970833727    15.994914619570
         O           -0.313646880423    -3.431996295150     0.467656166273    15.994914619570
         O           -0.259649880423     3.445919704850    -0.476655833727    15.994914619570
         O           -1.901871880423    -2.482865295150    -0.748577833727    15.994914619570
         O           -1.841384880423     2.519822704850     0.767995166273    15.994914619570
         O            3.959077119577    -1.139867295150    -0.020519833727    15.994914619570
         O            3.981283119577     1.068215704850     0.046475166273    15.994914619570
         N           -0.844597880423    -2.464750295150    -0.099056833727    14.003074004430
         N           -0.797380880423     2.487298704850     0.097839166273    14.003074004430
         N            3.406296119577    -0.030093295150     0.010336166273    14.003074004430
         C           -0.864941880423     0.013474704850    -0.008344833727    12.000000000000
         C           -0.144578980423    -1.195350695150    -0.021264533727    12.000000000000
         C           -0.109975880423     1.189236704850     0.008655166273    12.000000000000
         C            1.929930119577    -0.014780295150     0.003204166273    12.000000000000
         C            1.253480119577    -1.227413295150    -0.000090833727    12.000000000000
         C            1.278209119577     1.211939704850     0.005272166273    12.000000000000
         C           -2.367218880423     0.053200704850    -0.092321833727    12.000000000000
         H            1.782847119577    -2.173484295150     0.007312166273     1.007825032230
         H            1.826116119577     2.147513704850     0.005916166273     1.007825032230
         H           -3.886475880423    -0.450392295150     0.890984166273     1.007825032230

  Basis Set: AUG-CC-PVTZ
    Blend: AUG-CC-PVTZ
  Basis Set: (AUG-CC-PVTZ AUX)
    Blend: AUG-CC-PVTZ-JKFIT
	 Reference Energy          =   -1029.0490961987748051 [Eh]
	 Singles Energy            =      -0.0000000000000000 [Eh]
	 Same-Spin Energy          =      -1.0499562362036901 [Eh]
	 Opposite-Spin Energy      =      -2.9502145390414234 [Eh]
	 Correlation Energy        =      -4.0001707752451132 [Eh]
	 Total Energy              =   -1033.0492669740199290 [Eh]

	 ================> DF-SCS-MP2 Energies <==================
	-----------------------------------------------------------
	 SCS Same-Spin Scale       =       0.3333333333333333 [-]
	 SCS Opposite-Spin Scale   =       1.2000000000000000 [-]
	 SCS Same-Spin Energy      =      -0.3499854120678967 [Eh]
	 SCS Opposite-Spin Energy  =      -3.5402574468497079 [Eh]
	 SCS Correlation Energy    =      -3.8902428589176044 [Eh]
	 SCS Total Energy          =   -1032.9393390576924503 [Eh]
	-----------------------------------------------------------

  Dipole Moment: [D]
     X:    -0.1359      Y:    -0.6259      Z:     1.1902     Total:     1.3516

*** Psi4 exiting successfully. Buy a developer a beer!
