                               Psi4 1.4a3.dev225

  ==> Input File <==

--------------------------------------------------------------------------
#psi4
#
memory 32 gb

molecule  {
0 1
  O       -2.9128620    -0.4781290     1.0138340
  O       -2.9681190     0.5148030    -1.0434710
  O       -0.3129680    -3.4309860     0.4641560
  O       -0.2589710     3.4469300    -0.4801560
  O       -1.9011930    -2.4818550    -0.7520780
  O       -1.8407060     2.5208330     0.7644950
  O        3.9597560    -1.1388570    -0.0240200
  O        3.9819620     1.0692260     0.0429750
  N       -0.8439190    -2.4637400    -0.1025570
  N       -0.7967020     2.4883090     0.0943390
  N        3.4069750    -0.0290830     0.0068360
  C       -0.8642630     0.0144850    -0.0118450
  C       -0.1342560    -1.1768520    -0.0236930
  C       -0.1092970     1.1902470     0.0051550
  C        1.9306090    -0.0137700    -0.0002960
  C        1.2541590    -1.2264030    -0.0035910
  C        1.2788880     1.2129500     0.0017720
  C       -2.3665400     0.0542110    -0.0958220
  H        1.7835260    -2.1724740     0.0038120
  H        1.8773304     2.2348152     0.0024754
  H       -3.8857970    -0.4493820     0.8874840
units angstrom
no_reorient  #important for SAPT in psi4, default
symmetry c1  #important for SAPT in psi4, default
}

set PROPERTIES_ORIGIN ["COM"]
properties('MP2/aug-cc-pvtz', properties = ['dipole'])
--------------------------------------------------------------------------

    Molecular point group: c1
  Charge       = 0
  Multiplicity = 1
  Basis Set: AUG-CC-PVTZ
    Blend: AUG-CC-PVTZ
  Basis Set: (AUG-CC-PVTZ AUX)
    Blend: AUG-CC-PVTZ-JKFIT

    Orbital Energies [Eh]
    ---------------------

    Doubly Occupied:

       1A    -20.657493     2A    -20.652446     3A    -20.652245
       4A    -20.650373     5A    -20.650231     6A    -20.649711
       7A    -20.649646     8A    -20.595834     9A    -15.902510
      10A    -15.901751    11A    -15.899681    12A    -11.452403
      13A    -11.386116    14A    -11.385109    15A    -11.379985
      16A    -11.375801    17A    -11.363399    18A    -11.355849
      19A     -1.636362    20A     -1.634486    21A     -1.633252
      22A     -1.506003    23A     -1.436440    24A     -1.434491
      25A     -1.433834    26A     -1.405545    27A     -1.289733
      28A     -1.183653    29A     -1.180074    30A     -1.055692
      31A     -1.035498    32A     -1.024432    33A     -0.923355
      34A     -0.882334    35A     -0.869775    36A     -0.836656
      37A     -0.802466    38A     -0.788379    39A     -0.787663
      40A     -0.772268    41A     -0.764997    42A     -0.762208
      43A     -0.756464    44A     -0.753165    45A     -0.744440
      46A     -0.740045    47A     -0.715643    48A     -0.687404
      49A     -0.666499    50A     -0.636919    51A     -0.626685
      52A     -0.608019    53A     -0.555073    54A     -0.549513
      55A     -0.543592    56A     -0.539947    57A     -0.535692
      58A     -0.533853    59A     -0.522078    60A     -0.508969
      61A     -0.493769    62A     -0.492005    63A     -0.486563
      64A     -0.447237    65A     -0.445604

  @DF-RHF Final Energy: -1029.04151701620845

   => Energetics <=

    Nuclear Repulsion Energy =           1345.2546479602453928
    One-Electron Energy =               -4082.1336148835389395
    Two-Electron Energy =                1707.8374499070853290
    Total Energy =                      -1029.0415170162084451
  Basis Set: (AUG-CC-PVTZ AUX)
    Blend: AUG-CC-PVTZ-RI
    Molecular point group: c1

    Geometry (in Angstrom), charge = 0, multiplicity = 1:

       Center              X                  Y                   Z               Mass
    ------------   -----------------  -----------------  -----------------  -----------------
         O           -2.914189383225    -0.480294300812     1.017283891307    15.994914619570
         O           -2.969446383225     0.512637699188    -1.040021108693    15.994914619570
         O           -0.314295383225    -3.433151300812     0.467605891307    15.994914619570
         O           -0.260298383225     3.444764699188    -0.476706108693    15.994914619570
         O           -1.902520383225    -2.484020300812    -0.748628108693    15.994914619570
         O           -1.842033383225     2.518667699188     0.767944891307    15.994914619570
         O            3.958428616775    -1.141022300812    -0.020570108693    15.994914619570
         O            3.980634616775     1.067060699188     0.046424891307    15.994914619570
         N           -0.845246383225    -2.465905300812    -0.099107108693    14.003074004430
         N           -0.798029383225     2.486143699188     0.097788891307    14.003074004430
         N            3.405647616775    -0.031248300812     0.010285891307    14.003074004430
         C           -0.865590383225     0.012319699188    -0.008395108693    12.000000000000
         C           -0.135583383225    -1.179017300812    -0.020243108693    12.000000000000
         C           -0.110624383225     1.188081699188     0.008604891307    12.000000000000
         C            1.929281616775    -0.015935300812     0.003153891307    12.000000000000
         C            1.252831616775    -1.228568300812    -0.000141108693    12.000000000000
         C            1.277560616775     1.210784699188     0.005221891307    12.000000000000
         C           -2.367867383225     0.052045699188    -0.092372108693    12.000000000000
         H            1.782198616775    -2.174639300812     0.007261891307     1.007825032230
         H            1.876003016775     2.232649899188     0.005925291307     1.007825032230
         H           -3.887124383225    -0.451547300812     0.890933891307     1.007825032230

  Basis Set: AUG-CC-PVTZ
    Blend: AUG-CC-PVTZ
  Basis Set: (AUG-CC-PVTZ AUX)
    Blend: AUG-CC-PVTZ-JKFIT
	 Reference Energy          =   -1029.0415170162084451 [Eh]
	 Singles Energy            =      -0.0000000000000000 [Eh]
	 Same-Spin Energy          =      -1.0505048002383068 [Eh]
	 Opposite-Spin Energy      =      -2.9513391096033628 [Eh]
	 Correlation Energy        =      -4.0018439098416696 [Eh]
	 Total Energy              =   -1033.0433609260501271 [Eh]

	 ================> DF-SCS-MP2 Energies <==================
	-----------------------------------------------------------
	 SCS Same-Spin Scale       =       0.3333333333333333 [-]
	 SCS Opposite-Spin Scale   =       1.2000000000000000 [-]
	 SCS Same-Spin Energy      =      -0.3501682667461022 [Eh]
	 SCS Opposite-Spin Energy  =      -3.5416069315240351 [Eh]
	 SCS Correlation Energy    =      -3.8917751982701372 [Eh]
	 SCS Total Energy          =   -1032.9332922144785698 [Eh]
	-----------------------------------------------------------

  Dipole Moment: [D]
     X:    -0.0904      Y:    -0.5509      Z:     1.1867     Total:     1.3115

*** Psi4 exiting successfully. Buy a developer a beer!
