                               Psi4 1.4a3.dev225

  ==> Input File <==

--------------------------------------------------------------------------
#psi4
#
memory 32 gb

molecule  {
0 1
  O       -2.9128620    -0.4781290     1.0138340
  O       -2.9681190     0.5148030    -1.0434710
  O       -0.3129680    -3.4309860     0.4641560
  O       -0.2589710     3.4469300    -0.4801560
  O       -1.9011930    -2.4818550    -0.7520780
  O       -1.8407060     2.5208330     0.7644950
  O        3.9597560    -1.1388570    -0.0240200
  O        3.9819620     1.0692260     0.0429750
  N       -0.8439190    -2.4637400    -0.1025570
  N       -0.7967020     2.4883090     0.0943390
  N        3.4069750    -0.0290830     0.0068360
  C       -0.8642630     0.0144850    -0.0118450
  C       -0.1342560    -1.1768520    -0.0236930
  C       -0.1092970     1.1902470     0.0051550
  C        1.9306090    -0.0137700    -0.0002960
  C        1.2541590    -1.2264030    -0.0035910
  C        1.1789017     1.2113148     0.0020157
  C       -2.3665400     0.0542110    -0.0958220
  H        1.7835260    -2.1724740     0.0038120
  H        1.8267950     2.1485240     0.0024160
  H       -3.8857970    -0.4493820     0.8874840
units angstrom
no_reorient  #important for SAPT in psi4, default
symmetry c1  #important for SAPT in psi4, default
}

set PROPERTIES_ORIGIN ["COM"]
properties('MP2/aug-cc-pvtz', properties = ['dipole'])
--------------------------------------------------------------------------

    Molecular point group: c1
  Charge       = 0
  Multiplicity = 1
  Basis Set: AUG-CC-PVTZ
    Blend: AUG-CC-PVTZ
  Basis Set: (AUG-CC-PVTZ AUX)
    Blend: AUG-CC-PVTZ-JKFIT

    Orbital Energies [Eh]
    ---------------------

    Doubly Occupied:

       1A    -20.658183     2A    -20.653118     3A    -20.652567
       4A    -20.651536     5A    -20.650724     6A    -20.650564
       7A    -20.650219     8A    -20.596908     9A    -15.904057
      10A    -15.902956    11A    -15.899668    12A    -11.453289
      13A    -11.386526    14A    -11.382297    15A    -11.377629
      16A    -11.374715    17A    -11.354261    18A    -11.349351
      19A     -1.636834    20A     -1.634823    21A     -1.634269
      22A     -1.506809    23A     -1.436906    24A     -1.434835
      25A     -1.434665    26A     -1.406491    27A     -1.296548
      28A     -1.191682    29A     -1.177537    30A     -1.060590
      31A     -1.038015    32A     -1.024582    33A     -0.923942
      34A     -0.882360    35A     -0.874840    36A     -0.837358
      37A     -0.804022    38A     -0.795014    39A     -0.787346
      40A     -0.774574    41A     -0.765968    42A     -0.763169
      43A     -0.757359    44A     -0.753789    45A     -0.745203
      46A     -0.740609    47A     -0.719028    48A     -0.694005
      49A     -0.666834    50A     -0.633049    51A     -0.625092
      52A     -0.612138    53A     -0.555842    54A     -0.550511
      55A     -0.543705    56A     -0.540748    57A     -0.536408
      58A     -0.534987    59A     -0.522466    60A     -0.509712
      61A     -0.494142    62A     -0.492377    63A     -0.487128
      64A     -0.459482    65A     -0.439930

  @DF-RHF Final Energy: -1029.03553512024359

   => Energetics <=

    Nuclear Repulsion Energy =           1347.1516824997127060
    One-Electron Energy =               -4085.8018492863056963
    Two-Electron Energy =                1709.6146316663496236
    Total Energy =                      -1029.0355351202435941
  Basis Set: (AUG-CC-PVTZ AUX)
    Blend: AUG-CC-PVTZ-RI
    Molecular point group: c1

    Geometry (in Angstrom), charge = 0, multiplicity = 1:

       Center              X                  Y                   Z               Mass
    ------------   -----------------  -----------------  -----------------  -----------------
         O           -2.909322436500    -0.479879545390     1.017272744909    15.994914619570
         O           -2.964579436500     0.513052454610    -1.040032255091    15.994914619570
         O           -0.309428436500    -3.432736545390     0.467594744909    15.994914619570
         O           -0.255431436500     3.445179454610    -0.476717255091    15.994914619570
         O           -1.897653436500    -2.483605545390    -0.748639255091    15.994914619570
         O           -1.837166436500     2.519082454610     0.767933744909    15.994914619570
         O            3.963295563500    -1.140607545390    -0.020581255091    15.994914619570
         O            3.985501563500     1.067475454610     0.046413744909    15.994914619570
         N           -0.840379436500    -2.465490545390    -0.099118255091    14.003074004430
         N           -0.793162436500     2.486558454610     0.097777744909    14.003074004430
         N            3.410514563500    -0.030833545390     0.010274744909    14.003074004430
         C           -0.860723436500     0.012734454610    -0.008406255091    12.000000000000
         C           -0.130716436500    -1.178602545390    -0.020254255091    12.000000000000
         C           -0.105757436500     1.188496454610     0.008593744909    12.000000000000
         C            1.934148563500    -0.015520545390     0.003142744909    12.000000000000
         C            1.257698563500    -1.228153545390    -0.000152255091    12.000000000000
         C            1.182441263500     1.209564254610     0.005454444909    12.000000000000
         C           -2.363000436500     0.052460454610    -0.092383255091    12.000000000000
         H            1.787065563500    -2.174224545390     0.007250744909     1.007825032230
         H            1.830334563500     2.146773454610     0.005854744909     1.007825032230
         H           -3.882257436500    -0.451132545390     0.890922744909     1.007825032230

  Basis Set: AUG-CC-PVTZ
    Blend: AUG-CC-PVTZ
  Basis Set: (AUG-CC-PVTZ AUX)
    Blend: AUG-CC-PVTZ-JKFIT
	 Reference Energy          =   -1029.0355351202435941 [Eh]
	 Singles Energy            =      -0.0000000000000000 [Eh]
	 Same-Spin Energy          =      -1.0499889006931420 [Eh]
	 Opposite-Spin Energy      =      -2.9508892496672123 [Eh]
	 Correlation Energy        =      -4.0008781503603545 [Eh]
	 Total Energy              =   -1033.0364132706040436 [Eh]

	 ================> DF-SCS-MP2 Energies <==================
	-----------------------------------------------------------
	 SCS Same-Spin Scale       =       0.3333333333333333 [-]
	 SCS Opposite-Spin Scale   =       1.2000000000000000 [-]
	 SCS Same-Spin Energy      =      -0.3499963002310473 [Eh]
	 SCS Opposite-Spin Energy  =      -3.5410670996006548 [Eh]
	 SCS Correlation Energy    =      -3.8910633998317019 [Eh]
	 SCS Total Energy          =   -1032.9265985200752311 [Eh]
	-----------------------------------------------------------

  Dipole Moment: [D]
     X:    -0.0423      Y:    -0.6425      Z:     1.1832     Total:     1.3471

*** Psi4 exiting successfully. Buy a developer a beer!
