                               Psi4 1.4a3.dev225

  ==> Input File <==

--------------------------------------------------------------------------
#psi4
#
memory 32 gb

molecule  {
0 1
  O       -2.9973820    -0.4598822     0.9769951
  O       -2.9681190     0.5148030    -1.0434710
  O       -0.3129680    -3.4309860     0.4641560
  O       -0.2589710     3.4469300    -0.4801560
  O       -1.9011930    -2.4818550    -0.7520780
  O       -1.8407060     2.5208330     0.7644950
  O        3.9597560    -1.1388570    -0.0240200
  O        3.9819620     1.0692260     0.0429750
  N       -0.8439190    -2.4637400    -0.1025570
  N       -0.7967020     2.4883090     0.0943390
  N        3.4069750    -0.0290830     0.0068360
  C       -0.8642630     0.0144850    -0.0118450
  C       -0.1342560    -1.1768520    -0.0236930
  C       -0.1092970     1.1902470     0.0051550
  C        1.9306090    -0.0137700    -0.0002960
  C        1.2541590    -1.2264030    -0.0035910
  C        1.2788880     1.2129500     0.0017720
  C       -2.3665400     0.0542110    -0.0958220
  H        1.7835260    -2.1724740     0.0038120
  H        1.8267950     2.1485240     0.0024160
  H       -3.8857970    -0.4493820     0.8874840
units angstrom
no_reorient  #important for SAPT in psi4, default
symmetry c1  #important for SAPT in psi4, default
}

set PROPERTIES_ORIGIN ["COM"]
properties('MP2/aug-cc-pvtz', properties = ['dipole'])
--------------------------------------------------------------------------

    Molecular point group: c1
  Charge       = 0
  Multiplicity = 1
  Basis Set: AUG-CC-PVTZ
    Blend: AUG-CC-PVTZ
  Basis Set: (AUG-CC-PVTZ AUX)
    Blend: AUG-CC-PVTZ-JKFIT

    Orbital Energies [Eh]
    ---------------------

    Doubly Occupied:

       1A    -20.653844     2A    -20.653700     3A    -20.651994
       4A    -20.651919     5A    -20.651017     6A    -20.650923
       7A    -20.643564     8A    -20.591965     9A    -15.903960
      10A    -15.903333    11A    -15.901036    12A    -11.452532
      13A    -11.388942    14A    -11.387858    15A    -11.382283
      16A    -11.379741    17A    -11.357411    18A    -11.357159
      19A     -1.637764    20A     -1.636091    21A     -1.634535
      22A     -1.514344    23A     -1.437822    24A     -1.436056
      25A     -1.435119    26A     -1.406016    27A     -1.292491
      28A     -1.186463    29A     -1.182976    30A     -1.059948
      31A     -1.037249    32A     -1.029632    33A     -0.937284
      34A     -0.885257    35A     -0.875843    36A     -0.840861
      37A     -0.805251    38A     -0.793406    39A     -0.789691
      40A     -0.787816    41A     -0.767262    42A     -0.764086
      43A     -0.758498    44A     -0.754639    45A     -0.746906
      46A     -0.739183    47A     -0.717183    48A     -0.691409
      49A     -0.667102    50A     -0.647832    51A     -0.628272
      52A     -0.610575    53A     -0.556449    54A     -0.550763
      55A     -0.545019    56A     -0.541288    57A     -0.537308
      58A     -0.535307    59A     -0.519844    60A     -0.507723
      61A     -0.495101    62A     -0.493074    63A     -0.487063
      64A     -0.449533    65A     -0.447472

  @DF-RHF Final Energy: -1029.04605893519147

   => Energetics <=

    Nuclear Repulsion Energy =           1345.0445903920747242
    One-Electron Energy =               -4081.4533262066274801
    Two-Electron Energy =                1707.3626768793610609
    Total Energy =                      -1029.0460589351914678
  Basis Set: (AUG-CC-PVTZ AUX)
    Blend: AUG-CC-PVTZ-RI
    Molecular point group: c1

    Geometry (in Angstrom), charge = 0, multiplicity = 1:

       Center              X                  Y                   Z               Mass
    ------------   -----------------  -----------------  -----------------  -----------------
         O           -2.993250766038    -0.462844761293     0.982738038922    15.994914619570
         O           -2.963987766038     0.511840438707    -1.037728061078    15.994914619570
         O           -0.308836766038    -3.433948561293     0.469898938922    15.994914619570
         O           -0.254839766038     3.443967438707    -0.474413061078    15.994914619570
         O           -1.897061766038    -2.484817561293    -0.746335061078    15.994914619570
         O           -1.836574766038     2.517870438707     0.770237938922    15.994914619570
         O            3.963887233962    -1.141819561293    -0.018277061078    15.994914619570
         O            3.986093233962     1.066263438707     0.048717938922    15.994914619570
         N           -0.839787766038    -2.466702561293    -0.096814061078    14.003074004430
         N           -0.792570766038     2.485346438707     0.100081938922    14.003074004430
         N            3.411106233962    -0.032045561293     0.012578938922    14.003074004430
         C           -0.860131766038     0.011522438707    -0.006102061078    12.000000000000
         C           -0.130124766038    -1.179814561293    -0.017950061078    12.000000000000
         C           -0.105165766038     1.187284438707     0.010897938922    12.000000000000
         C            1.934740233962    -0.016732561293     0.005446938922    12.000000000000
         C            1.258290233962    -1.229365561293     0.002151938922    12.000000000000
         C            1.283019233962     1.209987438707     0.007514938922    12.000000000000
         C           -2.362408766038     0.051248438707    -0.090079061078    12.000000000000
         H            1.787657233962    -2.175436561293     0.009554938922     1.007825032230
         H            1.830926233962     2.145561438707     0.008158938922     1.007825032230
         H           -3.881665766038    -0.452344561293     0.893226938922     1.007825032230

  Basis Set: AUG-CC-PVTZ
    Blend: AUG-CC-PVTZ
  Basis Set: (AUG-CC-PVTZ AUX)
    Blend: AUG-CC-PVTZ-JKFIT
	 Reference Energy          =   -1029.0460589351914678 [Eh]
	 Singles Energy            =      -0.0000000000000000 [Eh]
	 Same-Spin Energy          =      -1.0484442628618693 [Eh]
	 Opposite-Spin Energy      =      -2.9472366805546866 [Eh]
	 Correlation Energy        =      -3.9956809434165557 [Eh]
	 Total Energy              =   -1033.0417398786080412 [Eh]

	 ================> DF-SCS-MP2 Energies <==================
	-----------------------------------------------------------
	 SCS Same-Spin Scale       =       0.3333333333333333 [-]
	 SCS Opposite-Spin Scale   =       1.2000000000000000 [-]
	 SCS Same-Spin Energy      =      -0.3494814209539564 [Eh]
	 SCS Opposite-Spin Energy  =      -3.5366840166656237 [Eh]
	 SCS Correlation Energy    =      -3.8861654376195802 [Eh]
	 SCS Total Energy          =   -1032.9322243728111062 [Eh]
	-----------------------------------------------------------

  Dipole Moment: [D]
     X:     0.1213      Y:    -0.6167      Z:     1.1804     Total:     1.3373

*** Psi4 exiting successfully. Buy a developer a beer!
