                               Psi4 1.4a3.dev225

  ==> Input File <==

--------------------------------------------------------------------------
#psi4
#
memory 32 gb

molecule  {
0 1
  O       -2.9128620    -0.4781290     1.0138340
  O       -2.9681190     0.5148030    -1.0434710
  O       -0.3129680    -3.4309860     0.4641560
  O       -0.2589710     3.4469300    -0.4801560
  O       -1.9011930    -2.4818550    -0.7520780
  O       -1.8407060     2.5208330     0.7644950
  O        3.9597560    -1.1388570    -0.0240200
  O        3.9819620     1.0692260     0.0429750
  N       -0.8439190    -2.4637400    -0.1025570
  N       -0.7967020     2.4883090     0.0943390
  N        3.4069750    -0.0290830     0.0068360
  C       -0.8642630     0.0144850    -0.0118450
  C       -0.1342560    -1.1768520    -0.0236930
  C       -0.0999544     1.1726048     0.0039429
  C        1.9306090    -0.0137700    -0.0002960
  C        1.2541590    -1.2264030    -0.0035910
  C        1.2788880     1.2129500     0.0017720
  C       -2.3665400     0.0542110    -0.0958220
  H        1.7835260    -2.1724740     0.0038120
  H        1.8267950     2.1485240     0.0024160
  H       -3.8857970    -0.4493820     0.8874840
units angstrom
no_reorient  #important for SAPT in psi4, default
symmetry c1  #important for SAPT in psi4, default
}

set PROPERTIES_ORIGIN ["COM"]
properties('MP2/aug-cc-pvtz', properties = ['dipole'])
--------------------------------------------------------------------------

    Molecular point group: c1
  Charge       = 0
  Multiplicity = 1
  Basis Set: AUG-CC-PVTZ
    Blend: AUG-CC-PVTZ
  Basis Set: (AUG-CC-PVTZ AUX)
    Blend: AUG-CC-PVTZ-JKFIT

    Orbital Energies [Eh]
    ---------------------

    Doubly Occupied:

       1A    -20.657922     2A    -20.652828     3A    -20.652648
       4A    -20.650818     5A    -20.650718     6A    -20.649887
       7A    -20.649709     8A    -20.596289     9A    -15.902782
      10A    -15.902036    11A    -15.899285    12A    -11.453123
      13A    -11.386902    14A    -11.385291    15A    -11.380499
      16A    -11.374758    17A    -11.355396    18A    -11.354533
      19A     -1.636721    20A     -1.634896    21A     -1.631625
      22A     -1.506427    23A     -1.436798    24A     -1.434890
      25A     -1.433284    26A     -1.405964    27A     -1.292253
      28A     -1.184940    29A     -1.179853    30A     -1.056471
      31A     -1.034902    32A     -1.026344    33A     -0.925314
      34A     -0.883966    35A     -0.871365    36A     -0.837224
      37A     -0.802467    38A     -0.790148    39A     -0.786437
      40A     -0.777976    41A     -0.765929    42A     -0.762187
      43A     -0.757330    44A     -0.753604    45A     -0.745078
      46A     -0.741307    47A     -0.716703    48A     -0.693094
      49A     -0.667839    50A     -0.647272    51A     -0.630883
      52A     -0.610162    53A     -0.555210    54A     -0.549704
      55A     -0.543882    56A     -0.540408    57A     -0.536133
      58A     -0.532688    59A     -0.522081    60A     -0.509595
      61A     -0.494076    62A     -0.492346    63A     -0.486539
      64A     -0.448080    65A     -0.447325

  @DF-RHF Final Energy: -1029.04888427840410

   => Energetics <=

    Nuclear Repulsion Energy =           1345.9164046819917075
    One-Electron Energy =               -4083.3802952224887122
    Two-Electron Energy =                1708.4150062620931294
    Total Energy =                      -1029.0488842784041026
  Basis Set: (AUG-CC-PVTZ AUX)
    Blend: AUG-CC-PVTZ-RI
    Molecular point group: c1

    Geometry (in Angstrom), charge = 0, multiplicity = 1:

       Center              X                  Y                   Z               Mass
    ------------   -----------------  -----------------  -----------------  -----------------
         O           -2.914427446493    -0.479132113604     1.017340722119    15.994914619570
         O           -2.969684446493     0.513799886396    -1.039964277881    15.994914619570
         O           -0.314533446493    -3.431989113604     0.467662722119    15.994914619570
         O           -0.260536446493     3.445926886396    -0.476649277881    15.994914619570
         O           -1.902758446493    -2.482858113604    -0.748571277881    15.994914619570
         O           -1.842271446493     2.519829886396     0.768001722119    15.994914619570
         O            3.958190553507    -1.139860113604    -0.020513277881    15.994914619570
         O            3.980396553507     1.068222886396     0.046481722119    15.994914619570
         N           -0.845484446493    -2.464743113604    -0.099050277881    14.003074004430
         N           -0.798267446493     2.487305886396     0.097845722119    14.003074004430
         N            3.405409553507    -0.030086113604     0.010342722119    14.003074004430
         C           -0.865828446493     0.013481886396    -0.008338277881    12.000000000000
         C           -0.135821446493    -1.177855113604    -0.020186277881    12.000000000000
         C           -0.101519846493     1.171601686396     0.007449622119    12.000000000000
         C            1.929043553507    -0.014773113604     0.003210722119    12.000000000000
         C            1.252593553507    -1.227406113604    -0.000084277881    12.000000000000
         C            1.277322553507     1.211946886396     0.005278722119    12.000000000000
         C           -2.368105446493     0.053207886396    -0.092315277881    12.000000000000
         H            1.781960553507    -2.173477113604     0.007318722119     1.007825032230
         H            1.825229553507     2.147520886396     0.005922722119     1.007825032230
         H           -3.887362446493    -0.450385113604     0.890990722119     1.007825032230

  Basis Set: AUG-CC-PVTZ
    Blend: AUG-CC-PVTZ
  Basis Set: (AUG-CC-PVTZ AUX)
    Blend: AUG-CC-PVTZ-JKFIT
	 Reference Energy          =   -1029.0488842784041026 [Eh]
	 Singles Energy            =      -0.0000000000000000 [Eh]
	 Same-Spin Energy          =      -1.0500464562703280 [Eh]
	 Opposite-Spin Energy      =      -2.9504578389014968 [Eh]
	 Correlation Energy        =      -4.0005042951718250 [Eh]
	 Total Energy              =   -1033.0493885735759250 [Eh]

	 ================> DF-SCS-MP2 Energies <==================
	-----------------------------------------------------------
	 SCS Same-Spin Scale       =       0.3333333333333333 [-]
	 SCS Opposite-Spin Scale   =       1.2000000000000000 [-]
	 SCS Same-Spin Energy      =      -0.3500154854234426 [Eh]
	 SCS Opposite-Spin Energy  =      -3.5405494066817962 [Eh]
	 SCS Correlation Energy    =      -3.8905648921052389 [Eh]
	 SCS Total Energy          =   -1032.9394491705093060 [Eh]
	-----------------------------------------------------------

  Dipole Moment: [D]
     X:    -0.1375      Y:    -0.6292      Z:     1.1891     Total:     1.3523

*** Psi4 exiting successfully. Buy a developer a beer!
