                               Psi4 1.4a3.dev225

  ==> Input File <==

--------------------------------------------------------------------------
#psi4
#
memory 32 gb

molecule  {
0 1
  O       -2.9128620    -0.4781290     1.0138340
  O       -2.9681190     0.5148030    -1.0434710
  O       -0.3129680    -3.4309860     0.4641560
  O       -0.2589710     3.4469300    -0.4801560
  O       -1.9011930    -2.4818550    -0.7520780
  O       -1.8407060     2.5208330     0.7644950
  O        3.9597560    -1.1388570    -0.0240200
  O        3.9819620     1.0692260     0.0429750
  N       -0.8439190    -2.4637400    -0.1025570
  N       -0.7967020     2.4883090     0.0943390
  N        3.4069750    -0.0290830     0.0068360
  C       -0.8642630     0.0144850    -0.0118450
  C       -0.1342560    -1.1768520    -0.0236930
  C       -0.1092970     1.1902470     0.0051550
  C        1.9306090    -0.0137700    -0.0002960
  C        1.2541590    -1.2264030    -0.0035910
  C        1.0789153     1.2096796     0.0022593
  C       -2.3665400     0.0542110    -0.0958220
  H        1.7835260    -2.1724740     0.0038120
  H        1.8267950     2.1485240     0.0024160
  H       -3.8857970    -0.4493820     0.8874840
units angstrom
no_reorient  #important for SAPT in psi4, default
symmetry c1  #important for SAPT in psi4, default
}

set PROPERTIES_ORIGIN ["COM"]
properties('MP2/aug-cc-pvtz', properties = ['dipole'])
--------------------------------------------------------------------------

    Molecular point group: c1
  Charge       = 0
  Multiplicity = 1
  Basis Set: AUG-CC-PVTZ
    Blend: AUG-CC-PVTZ
  Basis Set: (AUG-CC-PVTZ AUX)
    Blend: AUG-CC-PVTZ-JKFIT

    Orbital Energies [Eh]
    ---------------------

    Doubly Occupied:

       1A    -20.658565     2A    -20.653553     3A    -20.652658
       4A    -20.652073     5A    -20.651361     6A    -20.650888
       7A    -20.649735     8A    -20.597626     9A    -15.905728
      10A    -15.903176    11A    -15.898841    12A    -11.453793
      13A    -11.386738    14A    -11.384450    15A    -11.378760
      16A    -11.361771    17A    -11.352662    18A    -11.340480
      19A     -1.637077    20A     -1.634905    21A     -1.634595
      22A     -1.507288    23A     -1.437141    24A     -1.435073
      25A     -1.434677    26A     -1.407101    27A     -1.306444
      28A     -1.203034    29A     -1.171003    30A     -1.065028
      31A     -1.040188    32A     -1.022220    33A     -0.922399
      34A     -0.880637    35A     -0.878162    36A     -0.837484
      37A     -0.805232    38A     -0.799664    39A     -0.786279
      40A     -0.773025    41A     -0.765984    42A     -0.763232
      43A     -0.756932    44A     -0.753743    45A     -0.744867
      46A     -0.739272    47A     -0.721236    48A     -0.693277
      49A     -0.667276    50A     -0.633323    51A     -0.620806
      52A     -0.600624    53A     -0.556136    54A     -0.551253
      55A     -0.542885    56A     -0.540900    57A     -0.536097
      58A     -0.534249    59A     -0.521461    60A     -0.509952
      61A     -0.494473    62A     -0.492477    63A     -0.487164
      64A     -0.474753    65A     -0.433222

  @DF-RHF Final Energy: -1028.98461722955881

   => Energetics <=

    Nuclear Repulsion Energy =           1348.7330600146121924
    One-Electron Energy =               -4088.8611443619051897
    Two-Electron Energy =                1711.1434671177344171
    Total Energy =                      -1028.9846172295588076
  Basis Set: (AUG-CC-PVTZ AUX)
    Blend: AUG-CC-PVTZ-RI
    Molecular point group: c1

    Geometry (in Angstrom), charge = 0, multiplicity = 1:

       Center              X                  Y                   Z               Mass
    ------------   -----------------  -----------------  -----------------  -----------------
         O           -2.904653665743    -0.479803191266     1.017261370237    15.994914619570
         O           -2.959910665743     0.513128808734    -1.040043629763    15.994914619570
         O           -0.304759665743    -3.432660191266     0.467583370237    15.994914619570
         O           -0.250762665743     3.445255808734    -0.476728629763    15.994914619570
         O           -1.892984665743    -2.483529191266    -0.748650629763    15.994914619570
         O           -1.832497665743     2.519158808734     0.767922370237    15.994914619570
         O            3.967964334257    -1.140531191266    -0.020592629763    15.994914619570
         O            3.990170334257     1.067551808734     0.046402370237    15.994914619570
         N           -0.835710665743    -2.465414191266    -0.099129629763    14.003074004430
         N           -0.788493665743     2.486634808734     0.097766370237    14.003074004430
         N            3.415183334257    -0.030757191266     0.010263370237    14.003074004430
         C           -0.856054665743     0.012810808734    -0.008417629763    12.000000000000
         C           -0.126047665743    -1.178526191266    -0.020265629763    12.000000000000
         C           -0.101088665743     1.188572808734     0.008582370237    12.000000000000
         C            1.938817334257    -0.015444191266     0.003131370237    12.000000000000
         C            1.262367334257    -1.228077191266    -0.000163629763    12.000000000000
         C            1.087123634257     1.208005408734     0.005686670237    12.000000000000
         C           -2.358331665743     0.052536808734    -0.092394629763    12.000000000000
         H            1.791734334257    -2.174148191266     0.007239370237     1.007825032230
         H            1.835003334257     2.146849808734     0.005843370237     1.007825032230
         H           -3.877588665743    -0.451056191266     0.890911370237     1.007825032230

  Basis Set: AUG-CC-PVTZ
    Blend: AUG-CC-PVTZ
  Basis Set: (AUG-CC-PVTZ AUX)
    Blend: AUG-CC-PVTZ-JKFIT
	 Reference Energy          =   -1028.9846172295588076 [Eh]
	 Singles Energy            =      -0.0000000000000000 [Eh]
	 Same-Spin Energy          =      -1.0500046138107528 [Eh]
	 Opposite-Spin Energy      =      -2.9526149244331101 [Eh]
	 Correlation Energy        =      -4.0026195382438630 [Eh]
	 Total Energy              =   -1032.9872367678026421 [Eh]

	 ================> DF-SCS-MP2 Energies <==================
	-----------------------------------------------------------
	 SCS Same-Spin Scale       =       0.3333333333333333 [-]
	 SCS Opposite-Spin Scale   =       1.2000000000000000 [-]
	 SCS Same-Spin Energy      =      -0.3500015379369176 [Eh]
	 SCS Opposite-Spin Energy  =      -3.5431379093197322 [Eh]
	 SCS Correlation Energy    =      -3.8931394472566496 [Eh]
	 SCS Total Energy          =   -1032.8777566768153520 [Eh]
	-----------------------------------------------------------

  Dipole Moment: [D]
     X:     0.0480      Y:    -0.6698      Z:     1.1758     Total:     1.3541

*** Psi4 exiting successfully. Buy a developer a beer!
