                               Psi4 1.4a3.dev225

  ==> Input File <==

--------------------------------------------------------------------------
#psi4
#
memory 32 gb

molecule  {
0 1
  O       -2.9128620    -0.4781290     1.0138340
  O       -2.9681190     0.5148030    -1.0434710
  O       -0.3129680    -3.4309860     0.4641560
  O       -0.2589710     3.4469300    -0.4801560
  O       -1.9011930    -2.4818550    -0.7520780
  O       -1.8407060     2.5208330     0.7644950
  O        3.9597560    -1.1388570    -0.0240200
  O        3.9819620     1.0692260     0.0429750
  N       -0.8439190    -2.4637400    -0.1025570
  N       -0.7967020     2.4883090     0.0943390
  N        3.4069750    -0.0290830     0.0068360
  C       -0.8642630     0.0144850    -0.0118450
  C       -0.1342560    -1.1768520    -0.0236930
  C       -0.1092970     1.1902470     0.0051550
  C        1.9306090    -0.0137700    -0.0002960
  C        1.2785171    -1.1827376    -0.0034724
  C        1.2788880     1.2129500     0.0017720
  C       -2.3665400     0.0542110    -0.0958220
  H        1.7835260    -2.1724740     0.0038120
  H        1.8267950     2.1485240     0.0024160
  H       -3.8857970    -0.4493820     0.8874840
units angstrom
no_reorient  #important for SAPT in psi4, default
symmetry c1  #important for SAPT in psi4, default
}

set PROPERTIES_ORIGIN ["COM"]
properties('MP2/aug-cc-pvtz', properties = ['dipole'])
--------------------------------------------------------------------------

    Molecular point group: c1
  Charge       = 0
  Multiplicity = 1
  Basis Set: AUG-CC-PVTZ
    Blend: AUG-CC-PVTZ
  Basis Set: (AUG-CC-PVTZ AUX)
    Blend: AUG-CC-PVTZ-JKFIT

    Orbital Energies [Eh]
    ---------------------

    Doubly Occupied:

       1A    -20.657297     2A    -20.653323     3A    -20.652893
       4A    -20.651543     5A    -20.650957     6A    -20.649743
       7A    -20.649684     8A    -20.595596     9A    -15.904023
      10A    -15.902138    11A    -15.899789    12A    -11.451958
      13A    -11.387927    14A    -11.384646    15A    -11.375608
      16A    -11.375111    17A    -11.356185    18A    -11.353633
      19A     -1.636915    20A     -1.635417    21A     -1.633322
      22A     -1.505793    23A     -1.437023    24A     -1.435350
      25A     -1.433886    26A     -1.405347    27A     -1.292706
      28A     -1.189549    29A     -1.178269    30A     -1.054781
      31A     -1.037086    32A     -1.029075    33A     -0.924926
      34A     -0.884990    35A     -0.869865    36A     -0.837873
      37A     -0.803320    38A     -0.793642    39A     -0.787392
      40A     -0.776135    41A     -0.766159    42A     -0.762992
      43A     -0.757410    44A     -0.753473    45A     -0.745982
      46A     -0.741242    47A     -0.716386    48A     -0.687136
      49A     -0.667959    50A     -0.643470    51A     -0.628075
      52A     -0.609950    53A     -0.555770    54A     -0.549754
      55A     -0.544516    56A     -0.540650    57A     -0.536714
      58A     -0.534322    59A     -0.522269    60A     -0.508812
      61A     -0.494309    62A     -0.492524    63A     -0.486668
      64A     -0.452976    65A     -0.442681

  @DF-RHF Final Energy: -1029.04640766920988

   => Energetics <=

    Nuclear Repulsion Energy =           1346.2408879533240906
    One-Electron Energy =               -4084.0207565170621820
    Two-Electron Energy =                1708.7334608945282071
    Total Energy =                      -1029.0464076692098843
  Basis Set: (AUG-CC-PVTZ AUX)
    Blend: AUG-CC-PVTZ-RI
    Molecular point group: c1

    Geometry (in Angstrom), charge = 0, multiplicity = 1:

       Center              X                  Y                   Z               Mass
    ------------   -----------------  -----------------  -----------------  -----------------
         O           -2.915128581120    -0.481994814232     1.017278586336    15.994914619570
         O           -2.970385581120     0.510937185768    -1.040026413664    15.994914619570
         O           -0.315234581120    -3.434851814232     0.467600586336    15.994914619570
         O           -0.261237581120     3.443064185768    -0.476711413664    15.994914619570
         O           -1.903459581120    -2.485720814232    -0.748633413664    15.994914619570
         O           -1.842972581120     2.516967185768     0.767939586336    15.994914619570
         O            3.957489418880    -1.142722814232    -0.020575413664    15.994914619570
         O            3.979695418880     1.065360185768     0.046419586336    15.994914619570
         N           -0.846185581120    -2.467605814232    -0.099112413664    14.003074004430
         N           -0.798968581120     2.484443185768     0.097783586336    14.003074004430
         N            3.404708418880    -0.032948814232     0.010280586336    14.003074004430
         C           -0.866529581120     0.010619185768    -0.008400413664    12.000000000000
         C           -0.136522581120    -1.180717814232    -0.020248413664    12.000000000000
         C           -0.111563581120     1.186381185768     0.008599586336    12.000000000000
         C            1.928342418880    -0.017635814232     0.003148586336    12.000000000000
         C            1.276250518880    -1.186603414232    -0.000027813664    12.000000000000
         C            1.276621418880     1.209084185768     0.005216586336    12.000000000000
         C           -2.368806581120     0.050345185768    -0.092377413664    12.000000000000
         H            1.781259418880    -2.176339814232     0.007256586336     1.007825032230
         H            1.824528418880     2.144658185768     0.005860586336     1.007825032230
         H           -3.888063581120    -0.453247814232     0.890928586336     1.007825032230

  Basis Set: AUG-CC-PVTZ
    Blend: AUG-CC-PVTZ
  Basis Set: (AUG-CC-PVTZ AUX)
    Blend: AUG-CC-PVTZ-JKFIT
	 Reference Energy          =   -1029.0464076692098843 [Eh]
	 Singles Energy            =      -0.0000000000000000 [Eh]
	 Same-Spin Energy          =      -1.0499639605509101 [Eh]
	 Opposite-Spin Energy      =      -2.9503196176533368 [Eh]
	 Correlation Energy        =      -4.0002835782042467 [Eh]
	 Total Energy              =   -1033.0466912474141736 [Eh]

	 ================> DF-SCS-MP2 Energies <==================
	-----------------------------------------------------------
	 SCS Same-Spin Scale       =       0.3333333333333333 [-]
	 SCS Opposite-Spin Scale   =       1.2000000000000000 [-]
	 SCS Same-Spin Energy      =      -0.3499879868503034 [Eh]
	 SCS Opposite-Spin Energy  =      -3.5403835411840041 [Eh]
	 SCS Correlation Energy    =      -3.8903715280343074 [Eh]
	 SCS Total Energy          =   -1032.9367791972442774 [Eh]
	-----------------------------------------------------------

  Dipole Moment: [D]
     X:    -0.1534      Y:    -0.6636      Z:     1.1851     Total:     1.3668

*** Psi4 exiting successfully. Buy a developer a beer!
