                               Psi4 1.4a3.dev225

  ==> Input File <==

--------------------------------------------------------------------------
#psi4
#
memory 32 gb

molecule  {
0 1
  O       -2.9128620    -0.4781290     1.0138340
  O       -2.9681190     0.5148030    -1.0434710
  O       -0.3129680    -3.4309860     0.4641560
  O       -0.2589710     3.4469300    -0.4801560
  O       -1.9011930    -2.4818550    -0.7520780
  O       -1.8407060     2.5208330     0.7644950
  O        3.9597560    -1.1388570    -0.0240200
  O        3.9819620     1.0692260     0.0429750
  N       -0.8268797    -2.4634481    -0.0920891
  N       -0.7967020     2.4883090     0.0943390
  N        3.4069750    -0.0290830     0.0068360
  C       -0.8642630     0.0144850    -0.0118450
  C       -0.1342560    -1.1768520    -0.0236930
  C       -0.1092970     1.1902470     0.0051550
  C        1.9306090    -0.0137700    -0.0002960
  C        1.2541590    -1.2264030    -0.0035910
  C        1.2788880     1.2129500     0.0017720
  C       -2.3665400     0.0542110    -0.0958220
  H        1.7835260    -2.1724740     0.0038120
  H        1.8267950     2.1485240     0.0024160
  H       -3.8857970    -0.4493820     0.8874840
units angstrom
no_reorient  #important for SAPT in psi4, default
symmetry c1  #important for SAPT in psi4, default
}

set PROPERTIES_ORIGIN ["COM"]
properties('MP2/aug-cc-pvtz', properties = ['dipole'])
--------------------------------------------------------------------------

    Molecular point group: c1
  Charge       = 0
  Multiplicity = 1
  Basis Set: AUG-CC-PVTZ
    Blend: AUG-CC-PVTZ
  Basis Set: (AUG-CC-PVTZ AUX)
    Blend: AUG-CC-PVTZ-JKFIT

    Orbital Energies [Eh]
    ---------------------

    Doubly Occupied:

       1A    -20.659264     2A    -20.656751     3A    -20.651031
       4A    -20.650958     5A    -20.650333     6A    -20.650189
       7A    -20.645479     8A    -20.595268     9A    -15.902389
      10A    -15.902277    11A    -15.900288    12A    -11.452053
      13A    -11.386767    14A    -11.385800    15A    -11.380602
      16A    -11.376654    17A    -11.356496    18A    -11.356252
      19A     -1.635332    20A     -1.634942    21A     -1.633819
      22A     -1.505374    23A     -1.435161    24A     -1.434389
      25A     -1.431654    26A     -1.404936    27A     -1.291223
      28A     -1.185245    29A     -1.182960    30A     -1.058000
      31A     -1.036891    32A     -1.028765    33A     -0.924093
      34A     -0.883858    35A     -0.871363    36A     -0.837326
      37A     -0.803325    38A     -0.789960    39A     -0.788784
      40A     -0.777056    41A     -0.765509    42A     -0.762737
      43A     -0.757494    44A     -0.753692    45A     -0.745206
      46A     -0.740518    47A     -0.715725    48A     -0.691537
      49A     -0.667139    50A     -0.646460    51A     -0.629382
      52A     -0.608533    53A     -0.555934    54A     -0.549675
      55A     -0.543771    56A     -0.540098    57A     -0.536751
      58A     -0.534765    59A     -0.521771    60A     -0.508614
      61A     -0.494340    62A     -0.490764    63A     -0.486905
      64A     -0.447843    65A     -0.446580

  @DF-RHF Final Energy: -1029.04786642266345

   => Energetics <=

    Nuclear Repulsion Energy =           1345.8449416676339752
    One-Electron Energy =               -4083.2355209172742434
    Two-Electron Energy =                1708.3427128269768218
    Total Energy =                      -1029.0478664226634464
  Basis Set: (AUG-CC-PVTZ AUX)
    Blend: AUG-CC-PVTZ-RI
    Molecular point group: c1

    Geometry (in Angstrom), charge = 0, multiplicity = 1:

       Center              X                  Y                   Z               Mass
    ------------   -----------------  -----------------  -----------------  -----------------
         O           -2.914919646141    -0.479971804666     1.016713745522    15.994914619570
         O           -2.970176646141     0.512960195334    -1.040591254478    15.994914619570
         O           -0.315025646141    -3.432828804666     0.467035745522    15.994914619570
         O           -0.261028646141     3.445087195334    -0.477276254478    15.994914619570
         O           -1.903250646141    -2.483697804666    -0.749198254478    15.994914619570
         O           -1.842763646141     2.518990195334     0.767374745522    15.994914619570
         O            3.957698353859    -1.140699804666    -0.021140254478    15.994914619570
         O            3.979904353859     1.067383195334     0.045854745522    15.994914619570
         N           -0.828937346141    -2.465290904666    -0.089209354478    14.003074004430
         N           -0.798759646141     2.486466195334     0.097218745522    14.003074004430
         N            3.404917353859    -0.030925804666     0.009715745522    14.003074004430
         C           -0.866320646141     0.012642195334    -0.008965254478    12.000000000000
         C           -0.136313646141    -1.178694804666    -0.020813254478    12.000000000000
         C           -0.111354646141     1.188404195334     0.008034745522    12.000000000000
         C            1.928551353859    -0.015612804666     0.002583745522    12.000000000000
         C            1.252101353859    -1.228245804666    -0.000711254478    12.000000000000
         C            1.276830353859     1.211107195334     0.004651745522    12.000000000000
         C           -2.368597646141     0.052368195334    -0.092942254478    12.000000000000
         H            1.781468353859    -2.174316804666     0.006691745522     1.007825032230
         H            1.824737353859     2.146681195334     0.005295745522     1.007825032230
         H           -3.887854646141    -0.451224804666     0.890363745522     1.007825032230

  Basis Set: AUG-CC-PVTZ
    Blend: AUG-CC-PVTZ
  Basis Set: (AUG-CC-PVTZ AUX)
    Blend: AUG-CC-PVTZ-JKFIT
	 Reference Energy          =   -1029.0478664226634464 [Eh]
	 Singles Energy            =      -0.0000000000000000 [Eh]
	 Same-Spin Energy          =      -1.0501845244753631 [Eh]
	 Opposite-Spin Energy      =      -2.9507985815607571 [Eh]
	 Correlation Energy        =      -4.0009831060361201 [Eh]
	 Total Energy              =   -1033.0488495286995203 [Eh]

	 ================> DF-SCS-MP2 Energies <==================
	-----------------------------------------------------------
	 SCS Same-Spin Scale       =       0.3333333333333333 [-]
	 SCS Opposite-Spin Scale   =       1.2000000000000000 [-]
	 SCS Same-Spin Energy      =      -0.3500615081584544 [Eh]
	 SCS Opposite-Spin Energy  =      -3.5409582978729084 [Eh]
	 SCS Correlation Energy    =      -3.8910198060313625 [Eh]
	 SCS Total Energy          =   -1032.9388862286948552 [Eh]
	-----------------------------------------------------------

  Dipole Moment: [D]
     X:    -0.0677      Y:    -0.6036      Z:     1.2352     Total:     1.3764

*** Psi4 exiting successfully. Buy a developer a beer!
