                               Psi4 1.4a3.dev225

  ==> Input File <==

--------------------------------------------------------------------------
#psi4
#
memory 32 gb

molecule  {
0 1
  O       -2.9128620    -0.4781290     1.0138340
  O       -2.9681190     0.5148030    -1.0434710
  O       -0.3129680    -3.4309860     0.4641560
  O       -0.2589710     3.4469300    -0.4801560
  O       -1.9011930    -2.4818550    -0.7520780
  O       -1.8407060     2.5208330     0.7644950
  O        3.9597560    -1.1388570    -0.0240200
  O        3.9819620     1.0692260     0.0429750
  N       -0.8439190    -2.4637400    -0.1025570
  N       -0.7967020     2.4883090     0.0943390
  N        3.4069750    -0.0290830     0.0068360
  C       -0.8642630     0.0144850    -0.0118450
  C       -0.1342560    -1.1768520    -0.0236930
  C       -0.1092970     1.1902470     0.0051550
  C        1.9306090    -0.0137700    -0.0002960
  C        1.2541590    -1.2264030    -0.0035910
  C        1.2788880     1.2129500     0.0017720
  C       -2.3665400     0.0542110    -0.0958220
  H        1.7835260    -2.1724740     0.0038120
  H        1.7762596     2.0622328     0.0023566
  H       -3.8857970    -0.4493820     0.8874840
units angstrom
no_reorient  #important for SAPT in psi4, default
symmetry c1  #important for SAPT in psi4, default
}

set PROPERTIES_ORIGIN ["COM"]
properties('MP2/aug-cc-pvtz', properties = ['dipole'])
--------------------------------------------------------------------------

    Molecular point group: c1
  Charge       = 0
  Multiplicity = 1
  Basis Set: AUG-CC-PVTZ
    Blend: AUG-CC-PVTZ
  Basis Set: (AUG-CC-PVTZ AUX)
    Blend: AUG-CC-PVTZ-JKFIT

    Orbital Energies [Eh]
    ---------------------

    Doubly Occupied:

       1A    -20.657917     2A    -20.653142     3A    -20.652938
       4A    -20.651095     5A    -20.650856     6A    -20.650694
       7A    -20.650358     8A    -20.596279     9A    -15.903183
      10A    -15.902347    11A    -15.900521    12A    -11.452833
      13A    -11.387271    14A    -11.385870    15A    -11.380633
      16A    -11.376149    17A    -11.356143    18A    -11.346934
      19A     -1.637039    20A     -1.635134    21A     -1.634091
      22A     -1.506442    23A     -1.437101    24A     -1.435097
      25A     -1.434620    26A     -1.405987    27A     -1.291526
      28A     -1.185900    29A     -1.182620    30A     -1.057922
      31A     -1.036305    32A     -1.033142    33A     -0.925541
      34A     -0.886386    35A     -0.872780    36A     -0.837968
      37A     -0.803349    38A     -0.796608    39A     -0.788627
      40A     -0.782794    41A     -0.766871    42A     -0.763873
      43A     -0.758036    44A     -0.754044    45A     -0.747258
      46A     -0.742261    47A     -0.716379    48A     -0.696462
      49A     -0.669198    50A     -0.653613    51A     -0.630821
      52A     -0.608880    53A     -0.555730    54A     -0.550326
      55A     -0.544834    56A     -0.540633    57A     -0.536640
      58A     -0.534811    59A     -0.522771    60A     -0.509546
      61A     -0.494188    62A     -0.492612    63A     -0.487279
      64A     -0.448240    65A     -0.446414

  @DF-RHF Final Energy: -1029.04362706941333

   => Energetics <=

    Nuclear Repulsion Energy =           1346.4392361656068715
    One-Electron Energy =               -4084.2979998655505369
    Two-Electron Energy =                1708.8151366305303327
    Total Energy =                      -1029.0436270694133327
  Basis Set: (AUG-CC-PVTZ AUX)
    Blend: AUG-CC-PVTZ-RI
    Molecular point group: c1

    Geometry (in Angstrom), charge = 0, multiplicity = 1:

       Center              X                  Y                   Z               Mass
    ------------   -----------------  -----------------  -----------------  -----------------
         O           -2.913793021950    -0.479617498214     1.017284357196    15.994914619570
         O           -2.969050021950     0.513314501786    -1.040020642804    15.994914619570
         O           -0.313899021950    -3.432474498214     0.467606357196    15.994914619570
         O           -0.259902021950     3.445441501786    -0.476705642804    15.994914619570
         O           -1.902124021950    -2.483343498214    -0.748627642804    15.994914619570
         O           -1.841637021950     2.519344501786     0.767945357196    15.994914619570
         O            3.958824978050    -1.140345498214    -0.020569642804    15.994914619570
         O            3.981030978050     1.067737501786     0.046425357196    15.994914619570
         N           -0.844850021950    -2.465228498214    -0.099106642804    14.003074004430
         N           -0.797633021950     2.486820501786     0.097789357196    14.003074004430
         N            3.406043978050    -0.030571498214     0.010286357196    14.003074004430
         C           -0.865194021950     0.012996501786    -0.008394642804    12.000000000000
         C           -0.135187021950    -1.178340498214    -0.020242642804    12.000000000000
         C           -0.110228021950     1.188758501786     0.008605357196    12.000000000000
         C            1.929677978050    -0.015258498214     0.003154357196    12.000000000000
         C            1.253227978050    -1.227891498214    -0.000140642804    12.000000000000
         C            1.277956978050     1.211461501786     0.005222357196    12.000000000000
         C           -2.367471021950     0.052722501786    -0.092371642804    12.000000000000
         H            1.782594978050    -2.173962498214     0.007262357196     1.007825032230
         H            1.775328578050     2.060744301786     0.005806957196     1.007825032230
         H           -3.886728021950    -0.450870498214     0.890934357196     1.007825032230

  Basis Set: AUG-CC-PVTZ
    Blend: AUG-CC-PVTZ
  Basis Set: (AUG-CC-PVTZ AUX)
    Blend: AUG-CC-PVTZ-JKFIT
	 Reference Energy          =   -1029.0436270694133327 [Eh]
	 Singles Energy            =      -0.0000000000000000 [Eh]
	 Same-Spin Energy          =      -1.0495811890268545 [Eh]
	 Opposite-Spin Energy      =      -2.9497270064990806 [Eh]
	 Correlation Energy        =      -3.9993081955259351 [Eh]
	 Total Energy              =   -1033.0429352649391603 [Eh]

	 ================> DF-SCS-MP2 Energies <==================
	-----------------------------------------------------------
	 SCS Same-Spin Scale       =       0.3333333333333333 [-]
	 SCS Opposite-Spin Scale   =       1.2000000000000000 [-]
	 SCS Same-Spin Energy      =      -0.3498603963422848 [Eh]
	 SCS Opposite-Spin Energy  =      -3.5396724077988968 [Eh]
	 SCS Correlation Energy    =      -3.8895328041411816 [Eh]
	 SCS Total Energy          =   -1032.9331598735545867 [Eh]
	-----------------------------------------------------------

  Dipole Moment: [D]
     X:    -0.1829      Y:    -0.6834      Z:     1.1935     Total:     1.3874

*** Psi4 exiting successfully. Buy a developer a beer!
