                               Psi4 1.4a3.dev225

  ==> Input File <==

--------------------------------------------------------------------------
#psi4
#
memory 32 gb

molecule  {
0 1
  O       -2.9128620    -0.4781290     1.0138340
  O       -2.9681190     0.5148030    -1.0434710
  O       -0.3129680    -3.4309860     0.4641560
  O       -0.2589710     3.4469300    -0.4801560
  O       -1.9011930    -2.4818550    -0.7520780
  O       -1.8407060     2.5208330     0.7644950
  O        3.9597560    -1.1388570    -0.0240200
  O        3.9819620     1.0692260     0.0429750
  N       -0.8439190    -2.4637400    -0.1025570
  N       -0.7546394     2.4869986     0.0673386
  N        3.4069750    -0.0290830     0.0068360
  C       -0.8642630     0.0144850    -0.0118450
  C       -0.1342560    -1.1768520    -0.0236930
  C       -0.1092970     1.1902470     0.0051550
  C        1.9306090    -0.0137700    -0.0002960
  C        1.2541590    -1.2264030    -0.0035910
  C        1.2788880     1.2129500     0.0017720
  C       -2.3665400     0.0542110    -0.0958220
  H        1.7835260    -2.1724740     0.0038120
  H        1.8267950     2.1485240     0.0024160
  H       -3.8857970    -0.4493820     0.8874840
units angstrom
no_reorient  #important for SAPT in psi4, default
symmetry c1  #important for SAPT in psi4, default
}

set PROPERTIES_ORIGIN ["COM"]
properties('MP2/aug-cc-pvtz', properties = ['dipole'])
--------------------------------------------------------------------------

    Molecular point group: c1
  Charge       = 0
  Multiplicity = 1
  Basis Set: AUG-CC-PVTZ
    Blend: AUG-CC-PVTZ
  Basis Set: (AUG-CC-PVTZ AUX)
    Blend: AUG-CC-PVTZ-JKFIT

    Orbital Energies [Eh]
    ---------------------

    Doubly Occupied:

       1A    -20.666362     2A    -20.655819     3A    -20.653084
       4A    -20.652904     5A    -20.651477     6A    -20.651412
       7A    -20.632288     8A    -20.593826     9A    -15.903223
      10A    -15.902818    11A    -15.898325    12A    -11.451166
      13A    -11.387484    14A    -11.385603    15A    -11.381021
      16A    -11.377625    17A    -11.357320    18A    -11.356857
      19A     -1.637012    20A     -1.635635    21A     -1.635003
      22A     -1.504296    23A     -1.437032    24A     -1.435600
      25A     -1.418333    26A     -1.403322    27A     -1.292073
      28A     -1.186647    29A     -1.184927    30A     -1.060165
      31A     -1.038039    32A     -1.029805    33A     -0.924054
      34A     -0.884606    35A     -0.871415    36A     -0.837869
      37A     -0.803896    38A     -0.790972    39A     -0.789242
      40A     -0.777563    41A     -0.765977    42A     -0.761348
      43A     -0.757671    44A     -0.754113    45A     -0.744134
      46A     -0.739820    47A     -0.715203    48A     -0.691523
      49A     -0.666276    50A     -0.646818    51A     -0.628750
      52A     -0.608642    53A     -0.556654    54A     -0.549407
      55A     -0.544080    56A     -0.539673    57A     -0.537360
      58A     -0.532506    59A     -0.520368    60A     -0.507486
      61A     -0.494810    62A     -0.492365    63A     -0.482329
      64A     -0.448588    65A     -0.446359

  @DF-RHF Final Energy: -1029.04373720505237

   => Energetics <=

    Nuclear Repulsion Energy =           1345.9019160905766057
    One-Electron Energy =               -4083.3545522032945883
    Two-Electron Energy =                1708.4088989076658436
    Total Energy =                      -1029.0437372050523663
  Basis Set: (AUG-CC-PVTZ AUX)
    Blend: AUG-CC-PVTZ-RI
    Molecular point group: c1

    Geometry (in Angstrom), charge = 0, multiplicity = 1:

       Center              X                  Y                   Z               Mass
    ------------   -----------------  -----------------  -----------------  -----------------
         O           -2.916283124781    -0.479884497963     1.018755331832    15.994914619570
         O           -2.971540124781     0.513047502037    -1.038549668168    15.994914619570
         O           -0.316389124781    -3.432741497963     0.469077331832    15.994914619570
         O           -0.262392124781     3.445174502037    -0.475234668168    15.994914619570
         O           -1.904614124781    -2.483610497963    -0.747156668168    15.994914619570
         O           -1.844127124781     2.519077502037     0.769416331832    15.994914619570
         O            3.956334875219    -1.140612497963    -0.019098668168    15.994914619570
         O            3.978540875219     1.067470502037     0.047896331832    15.994914619570
         N           -0.847340124781    -2.465495497963    -0.097635668168    14.003074004430
         N           -0.758060524781     2.485243102037     0.072259931832    14.003074004430
         N            3.403553875219    -0.030838497963     0.011757331832    14.003074004430
         C           -0.867684124781     0.012729502037    -0.006923668168    12.000000000000
         C           -0.137677124781    -1.178607497963    -0.018771668168    12.000000000000
         C           -0.112718124781     1.188491502037     0.010076331832    12.000000000000
         C            1.927187875219    -0.015525497963     0.004625331832    12.000000000000
         C            1.250737875219    -1.228158497963     0.001330331832    12.000000000000
         C            1.275466875219     1.211194502037     0.006693331832    12.000000000000
         C           -2.369961124781     0.052455502037    -0.090900668168    12.000000000000
         H            1.780104875219    -2.174229497963     0.008733331832     1.007825032230
         H            1.823373875219     2.146768502037     0.007337331832     1.007825032230
         H           -3.889218124781    -0.451137497963     0.892405331832     1.007825032230

  Basis Set: AUG-CC-PVTZ
    Blend: AUG-CC-PVTZ
  Basis Set: (AUG-CC-PVTZ AUX)
    Blend: AUG-CC-PVTZ-JKFIT
	 Reference Energy          =   -1029.0437372050523663 [Eh]
	 Singles Energy            =      -0.0000000000000000 [Eh]
	 Same-Spin Energy          =      -1.0502887604662012 [Eh]
	 Opposite-Spin Energy      =      -2.9511207470070939 [Eh]
	 Correlation Energy        =      -4.0014095074732952 [Eh]
	 Total Energy              =   -1033.0451467125255931 [Eh]

	 ================> DF-SCS-MP2 Energies <==================
	-----------------------------------------------------------
	 SCS Same-Spin Scale       =       0.3333333333333333 [-]
	 SCS Opposite-Spin Scale   =       1.2000000000000000 [-]
	 SCS Same-Spin Energy      =      -0.3500962534887337 [Eh]
	 SCS Opposite-Spin Energy  =      -3.5413448964085128 [Eh]
	 SCS Correlation Energy    =      -3.8914411498972465 [Eh]
	 SCS Total Energy          =   -1032.9351783549495849 [Eh]
	-----------------------------------------------------------

  Dipole Moment: [D]
     X:     0.0332      Y:    -0.6584      Z:     1.0741     Total:     1.2603

*** Psi4 exiting successfully. Buy a developer a beer!
