                               Psi4 1.4a3.dev225

  ==> Input File <==

--------------------------------------------------------------------------
#psi4
#
memory 32 gb

molecule  {
0 1
  O       -2.9128620    -0.4781290     1.0138340
  O       -2.9681190     0.5148030    -1.0434710
  O       -0.3129680    -3.4309860     0.4641560
  O       -0.2589710     3.4469300    -0.4801560
  O       -1.9011930    -2.4818550    -0.7520780
  O       -1.8407060     2.5208330     0.7644950
  O        3.9597560    -1.1388570    -0.0240200
  O        3.9819620     1.0692260     0.0429750
  N       -0.8439190    -2.4637400    -0.1025570
  N       -0.7967020     2.4883090     0.0943390
  N        3.4069750    -0.0290830     0.0068360
  C       -0.8642630     0.0144850    -0.0118450
  C       -0.1342560    -1.1768520    -0.0236930
  C       -0.0552699     1.2743873     0.0063716
  C        1.9306090    -0.0137700    -0.0002960
  C        1.2541590    -1.2264030    -0.0035910
  C        1.2788880     1.2129500     0.0017720
  C       -2.3665400     0.0542110    -0.0958220
  H        1.7835260    -2.1724740     0.0038120
  H        1.8267950     2.1485240     0.0024160
  H       -3.8857970    -0.4493820     0.8874840
units angstrom
no_reorient  #important for SAPT in psi4, default
symmetry c1  #important for SAPT in psi4, default
}

set PROPERTIES_ORIGIN ["COM"]
properties('MP2/aug-cc-pvtz', properties = ['dipole'])
--------------------------------------------------------------------------

    Molecular point group: c1
  Charge       = 0
  Multiplicity = 1
  Basis Set: AUG-CC-PVTZ
    Blend: AUG-CC-PVTZ
  Basis Set: (AUG-CC-PVTZ AUX)
    Blend: AUG-CC-PVTZ-JKFIT

    Orbital Energies [Eh]
    ---------------------

    Doubly Occupied:

       1A    -20.657936     2A    -20.653767     3A    -20.653204
       4A    -20.651763     5A    -20.649814     6A    -20.649694
       7A    -20.648785     8A    -20.596326     9A    -15.903465
      10A    -15.901475    11A    -15.901201    12A    -11.452921
      13A    -11.387396    14A    -11.386049    15A    -11.384941
      16A    -11.379281    17A    -11.357819    18A    -11.347926
      19A     -1.638892    20A     -1.637362    21A     -1.633695
      22A     -1.506352    23A     -1.437499    24A     -1.436576
      25A     -1.433647    26A     -1.405952    27A     -1.287014
      28A     -1.190237    29A     -1.179870    30A     -1.055606
      31A     -1.044365    32A     -1.031858    33A     -0.919222
      34A     -0.879565    35A     -0.873460    36A     -0.837617
      37A     -0.803591    38A     -0.794861    39A     -0.790054
      40A     -0.775741    41A     -0.767353    42A     -0.765318
      43A     -0.756628    44A     -0.753179    45A     -0.748489
      46A     -0.742049    47A     -0.713342    48A     -0.689513
      49A     -0.668514    50A     -0.639313    51A     -0.626391
      52A     -0.605319    53A     -0.556163    54A     -0.551117
      55A     -0.545583    56A     -0.539210    57A     -0.537221
      58A     -0.535757    59A     -0.523222    60A     -0.509110
      61A     -0.493247    62A     -0.492820    63A     -0.488006
      64A     -0.455848    65A     -0.435882

  @DF-RHF Final Energy: -1029.03794956350816

   => Energetics <=

    Nuclear Repulsion Energy =           1345.1232885662018361
    One-Electron Energy =               -4081.7316874115726932
    Two-Electron Energy =                1707.5704492818629205
    Total Energy =                      -1029.0379495635081639
  Basis Set: (AUG-CC-PVTZ AUX)
    Blend: AUG-CC-PVTZ-RI
    Molecular point group: c1

    Geometry (in Angstrom), charge = 0, multiplicity = 1:

       Center              X                  Y                   Z               Mass
    ------------   -----------------  -----------------  -----------------  -----------------
         O           -2.916513947126    -0.483884751558     1.017227316260    15.994914619570
         O           -2.971770947126     0.509047248442    -1.040077683740    15.994914619570
         O           -0.316619947126    -3.436741751558     0.467549316260    15.994914619570
         O           -0.262622947126     3.441174248442    -0.476762683740    15.994914619570
         O           -1.904844947126    -2.487610751558    -0.748684683740    15.994914619570
         O           -1.844357947126     2.515077248442     0.767888316260    15.994914619570
         O            3.956104052874    -1.144612751558    -0.020626683740    15.994914619570
         O            3.978310052874     1.063470248442     0.046368316260    15.994914619570
         N           -0.847570947126    -2.469495751558    -0.099163683740    14.003074004430
         N           -0.800353947126     2.482553248442     0.097732316260    14.003074004430
         N            3.403323052874    -0.034838751558     0.010229316260    14.003074004430
         C           -0.867914947126     0.008729248442    -0.008451683740    12.000000000000
         C           -0.137907947126    -1.182607751558    -0.020299683740    12.000000000000
         C           -0.058921847126     1.268631548442     0.009764916260    12.000000000000
         C            1.926957052874    -0.019525751558     0.003097316260    12.000000000000
         C            1.250507052874    -1.232158751558    -0.000197683740    12.000000000000
         C            1.275236052874     1.207194248442     0.005165316260    12.000000000000
         C           -2.370191947126     0.048455248442    -0.092428683740    12.000000000000
         H            1.779874052874    -2.178229751558     0.007205316260     1.007825032230
         H            1.823143052874     2.142768248442     0.005809316260     1.007825032230
         H           -3.889448947126    -0.455137751558     0.890877316260     1.007825032230

  Basis Set: AUG-CC-PVTZ
    Blend: AUG-CC-PVTZ
  Basis Set: (AUG-CC-PVTZ AUX)
    Blend: AUG-CC-PVTZ-JKFIT
	 Reference Energy          =   -1029.0379495635081639 [Eh]
	 Singles Energy            =      -0.0000000000000000 [Eh]
	 Same-Spin Energy          =      -1.0498252217434325 [Eh]
	 Opposite-Spin Energy      =      -2.9505734243480797 [Eh]
	 Correlation Energy        =      -4.0003986460915124 [Eh]
	 Total Energy              =   -1033.0383482095996897 [Eh]

	 ================> DF-SCS-MP2 Energies <==================
	-----------------------------------------------------------
	 SCS Same-Spin Scale       =       0.3333333333333333 [-]
	 SCS Opposite-Spin Scale   =       1.2000000000000000 [-]
	 SCS Same-Spin Energy      =      -0.3499417405811441 [Eh]
	 SCS Opposite-Spin Energy  =      -3.5406881092176956 [Eh]
	 SCS Correlation Energy    =      -3.8906298497988399 [Eh]
	 SCS Total Energy          =   -1032.9285794133070340 [Eh]
	-----------------------------------------------------------

  Dipole Moment: [D]
     X:    -0.0913      Y:    -0.5539      Z:     1.2134     Total:     1.3369

*** Psi4 exiting successfully. Buy a developer a beer!
