                               Psi4 1.4a3.dev225

  ==> Input File <==

--------------------------------------------------------------------------
#psi4
#
memory 32 gb

molecule  {
0 1
  O       -2.9128620    -0.4781290     1.0138340
  O       -2.9681190     0.5148030    -1.0434710
  O       -0.3129680    -3.4309860     0.4641560
  O       -0.2589710     3.4469300    -0.4801560
  O       -1.9011930    -2.4818550    -0.7520780
  O       -1.8407060     2.5208330     0.7644950
  O        3.9597560    -1.1388570    -0.0240200
  O        3.9819620     1.0692260     0.0429750
  N       -0.8439190    -2.4637400    -0.1025570
  N       -0.7967020     2.4883090     0.0943390
  N        3.4069750    -0.0290830     0.0068360
  C       -0.8642630     0.0144850    -0.0118450
  C       -0.2627887    -1.2466217    -0.0250030
  C       -0.1092970     1.1902470     0.0051550
  C        1.9306090    -0.0137700    -0.0002960
  C        1.2541590    -1.2264030    -0.0035910
  C        1.2788880     1.2129500     0.0017720
  C       -2.3665400     0.0542110    -0.0958220
  H        1.7835260    -2.1724740     0.0038120
  H        1.8267950     2.1485240     0.0024160
  H       -3.8857970    -0.4493820     0.8874840
units angstrom
no_reorient  #important for SAPT in psi4, default
symmetry c1  #important for SAPT in psi4, default
}

set PROPERTIES_ORIGIN ["COM"]
properties('MP2/aug-cc-pvtz', properties = ['dipole'])
--------------------------------------------------------------------------

    Molecular point group: c1
  Charge       = 0
  Multiplicity = 1
  Basis Set: AUG-CC-PVTZ
    Blend: AUG-CC-PVTZ
  Basis Set: (AUG-CC-PVTZ AUX)
    Blend: AUG-CC-PVTZ-JKFIT

    Orbital Energies [Eh]
    ---------------------

    Doubly Occupied:

       1A    -20.656549     2A    -20.652685     3A    -20.651923
       4A    -20.650939     5A    -20.650762     6A    -20.649596
       7A    -20.649541     8A    -20.593793     9A    -15.903270
      10A    -15.903200    11A    -15.900628    12A    -11.448539
      13A    -11.388531    14A    -11.384318    15A    -11.380171
      16A    -11.378931    17A    -11.371815    18A    -11.360938
      19A     -1.649586    20A     -1.635612    21A     -1.633379
      22A     -1.504961    23A     -1.440915    24A     -1.435565
      25A     -1.433894    26A     -1.404044    27A     -1.283699
      28A     -1.201435    29A     -1.180311    30A     -1.073031
      31A     -1.036045    32A     -1.025217    33A     -0.920988
      34A     -0.887599    35A     -0.866959    36A     -0.838012
      37A     -0.809271    38A     -0.796982    39A     -0.787871
      40A     -0.778845    41A     -0.772067    42A     -0.763591
      43A     -0.758924    44A     -0.755471    45A     -0.746144
      46A     -0.741565    47A     -0.712820    48A     -0.677637
      49A     -0.666647    50A     -0.645100    51A     -0.620384
      52A     -0.600023    53A     -0.559359    54A     -0.551030
      55A     -0.546673    56A     -0.539489    57A     -0.539389
      58A     -0.534626    59A     -0.522817    60A     -0.504909
      61A     -0.494619    62A     -0.493903    63A     -0.486708
      64A     -0.451957    65A     -0.433488

  @DF-RHF Final Energy: -1029.02526757862370

   => Energetics <=

    Nuclear Repulsion Energy =           1345.9102885519932897
    One-Electron Energy =               -4083.2317368001417890
    Two-Electron Energy =                1708.2961806695248015
    Total Energy =                      -1029.0252675786236978
  Basis Set: (AUG-CC-PVTZ AUX)
    Blend: AUG-CC-PVTZ-RI
    Molecular point group: c1

    Geometry (in Angstrom), charge = 0, multiplicity = 1:

       Center              X                  Y                   Z               Mass
    ------------   -----------------  -----------------  -----------------  -----------------
         O           -2.907989489244    -0.476698069098     1.017345293467    15.994914619570
         O           -2.963246489244     0.516233930902    -1.039959706533    15.994914619570
         O           -0.308095489244    -3.429555069098     0.467667293467    15.994914619570
         O           -0.254098489244     3.448360930902    -0.476644706533    15.994914619570
         O           -1.896320489244    -2.480424069098    -0.748566706533    15.994914619570
         O           -1.835833489244     2.522263930902     0.768006293467    15.994914619570
         O            3.964628510756    -1.137426069098    -0.020508706533    15.994914619570
         O            3.986834510756     1.070656930902     0.046486293467    15.994914619570
         N           -0.839046489244    -2.462309069098    -0.099045706533    14.003074004430
         N           -0.791829489244     2.489739930902     0.097850293467    14.003074004430
         N            3.411847510756    -0.027652069098     0.010347293467    14.003074004430
         C           -0.859390489244     0.015915930902    -0.008333706533    12.000000000000
         C           -0.257916189244    -1.245190769098    -0.021491706533    12.000000000000
         C           -0.104424489244     1.191677930902     0.008666293467    12.000000000000
         C            1.935481510756    -0.012339069098     0.003215293467    12.000000000000
         C            1.259031510756    -1.224972069098    -0.000079706533    12.000000000000
         C            1.283760510756     1.214380930902     0.005283293467    12.000000000000
         C           -2.361667489244     0.055641930902    -0.092310706533    12.000000000000
         H            1.788398510756    -2.171043069098     0.007323293467     1.007825032230
         H            1.831667510756     2.149954930902     0.005927293467     1.007825032230
         H           -3.880924489244    -0.447951069098     0.890995293467     1.007825032230

  Basis Set: AUG-CC-PVTZ
    Blend: AUG-CC-PVTZ
  Basis Set: (AUG-CC-PVTZ AUX)
    Blend: AUG-CC-PVTZ-JKFIT
	 Reference Energy          =   -1029.0252675786236978 [Eh]
	 Singles Energy            =      -0.0000000000000000 [Eh]
	 Same-Spin Energy          =      -1.0503681073413662 [Eh]
	 Opposite-Spin Energy      =      -2.9510406851042066 [Eh]
	 Correlation Energy        =      -4.0014087924455728 [Eh]
	 Total Energy              =   -1033.0266763710692430 [Eh]

	 ================> DF-SCS-MP2 Energies <==================
	-----------------------------------------------------------
	 SCS Same-Spin Scale       =       0.3333333333333333 [-]
	 SCS Opposite-Spin Scale   =       1.2000000000000000 [-]
	 SCS Same-Spin Energy      =      -0.3501227024471221 [Eh]
	 SCS Opposite-Spin Energy  =      -3.5412488221250480 [Eh]
	 SCS Correlation Energy    =      -3.8913715245721701 [Eh]
	 SCS Total Energy          =   -1032.9166391031958483 [Eh]
	-----------------------------------------------------------

  Dipole Moment: [D]
     X:    -0.1642      Y:    -0.6305      Z:     1.2120     Total:     1.3760

*** Psi4 exiting successfully. Buy a developer a beer!
