                               Psi4 1.4a3.dev225

  ==> Input File <==

--------------------------------------------------------------------------
#psi4
#
memory 32 gb

molecule  {
0 1
  O       -2.9128620    -0.4781290     1.0138340
  O       -2.9681190     0.5148030    -1.0434710
  O       -0.3129680    -3.4309860     0.4641560
  O       -0.2589710     3.4469300    -0.4801560
  O       -1.9011930    -2.4818550    -0.7520780
  O       -1.8407060     2.5208330     0.7644950
  O        3.9597560    -1.1388570    -0.0240200
  O        3.9819620     1.0692260     0.0429750
  N       -0.8439190    -2.4637400    -0.1025570
  N       -0.7967020     2.4883090     0.0943390
  N        3.4069750    -0.0290830     0.0068360
  C       -0.8642630     0.0144850    -0.0118450
  C       -0.1342560    -1.1768520    -0.0236930
  C       -0.1092970     1.1902470     0.0051550
  C        1.9306090    -0.0137700    -0.0002960
  C        1.2541590    -1.2264030    -0.0035910
  C        1.2788880     1.2129500     0.0017720
  C       -2.3665400     0.0542110    -0.0958220
  H        1.7835260    -2.1724740     0.0038120
  H        1.8015273     2.1053784     0.0023863
  H       -3.8857970    -0.4493820     0.8874840
units angstrom
no_reorient  #important for SAPT in psi4, default
symmetry c1  #important for SAPT in psi4, default
}

set PROPERTIES_ORIGIN ["COM"]
properties('MP2/aug-cc-pvtz', properties = ['dipole'])
--------------------------------------------------------------------------

    Molecular point group: c1
  Charge       = 0
  Multiplicity = 1
  Basis Set: AUG-CC-PVTZ
    Blend: AUG-CC-PVTZ
  Basis Set: (AUG-CC-PVTZ AUX)
    Blend: AUG-CC-PVTZ-JKFIT

    Orbital Energies [Eh]
    ---------------------

    Doubly Occupied:

       1A    -20.657816     2A    -20.652967     3A    -20.652763
       4A    -20.650898     5A    -20.650747     6A    -20.650454
       7A    -20.650210     8A    -20.596173     9A    -15.903014
      10A    -15.902212    11A    -15.900327    12A    -11.452730
      13A    -11.386974    14A    -11.385651    15A    -11.380442
      16A    -11.376068    17A    -11.356075    18A    -11.351421
      19A     -1.636869    20A     -1.634988    21A     -1.633901
      22A     -1.506337    23A     -1.436935    24A     -1.434963
      25A     -1.434445    26A     -1.405881    27A     -1.290999
      28A     -1.185046    29A     -1.182050    30A     -1.057176
      31A     -1.036047    32A     -1.030528    33A     -0.924845
      34A     -0.884966    35A     -0.871956    36A     -0.837580
      37A     -0.803101    38A     -0.792460    39A     -0.788494
      40A     -0.780512    41A     -0.766484    42A     -0.763596
      43A     -0.757727    44A     -0.753852    45A     -0.746570
      46A     -0.741927    47A     -0.716196    48A     -0.693940
      49A     -0.668419    50A     -0.650421    51A     -0.630464
      52A     -0.608674    53A     -0.555579    54A     -0.550139
      55A     -0.544566    56A     -0.540495    57A     -0.536437
      58A     -0.534615    59A     -0.522618    60A     -0.509413
      61A     -0.494102    62A     -0.492462    63A     -0.487129
      64A     -0.447965    65A     -0.446231

  @DF-RHF Final Energy: -1029.04874801836490

   => Energetics <=

    Nuclear Repulsion Energy =           1346.1216984900738680
    One-Electron Energy =               -4083.7268083382155055
    Two-Electron Energy =                1708.5563618297767334
    Total Energy =                      -1029.0487480183649041
  Basis Set: (AUG-CC-PVTZ AUX)
    Blend: AUG-CC-PVTZ-RI
    Molecular point group: c1

    Geometry (in Angstrom), charge = 0, multiplicity = 1:

       Center              X                  Y                   Z               Mass
    ------------   -----------------  -----------------  -----------------  -----------------
         O           -2.913892112269    -0.479786698864     1.017284240723    15.994914619570
         O           -2.969149112269     0.513145301136    -1.040020759277    15.994914619570
         O           -0.313998112269    -3.432643698864     0.467606240723    15.994914619570
         O           -0.260001112269     3.445272301136    -0.476705759277    15.994914619570
         O           -1.902223112269    -2.483512698864    -0.748627759277    15.994914619570
         O           -1.841736112269     2.519175301136     0.767945240723    15.994914619570
         O            3.958725887731    -1.140514698864    -0.020569759277    15.994914619570
         O            3.980931887731     1.067568301136     0.046425240723    15.994914619570
         N           -0.844949112269    -2.465397698864    -0.099106759277    14.003074004430
         N           -0.797732112269     2.486651301136     0.097789240723    14.003074004430
         N            3.405944887731    -0.030740698864     0.010286240723    14.003074004430
         C           -0.865293112269     0.012827301136    -0.008394759277    12.000000000000
         C           -0.135286112269    -1.178509698864    -0.020242759277    12.000000000000
         C           -0.110327112269     1.188589301136     0.008605240723    12.000000000000
         C            1.929578887731    -0.015427698864     0.003154240723    12.000000000000
         C            1.253128887731    -1.228060698864    -0.000140759277    12.000000000000
         C            1.277857887731     1.211292301136     0.005222240723    12.000000000000
         C           -2.367570112269     0.052553301136    -0.092371759277    12.000000000000
         H            1.782495887731    -2.174131698864     0.007262240723     1.007825032230
         H            1.800497187731     2.103720701136     0.005836540723     1.007825032230
         H           -3.886827112269    -0.451039698864     0.890934240723     1.007825032230

  Basis Set: AUG-CC-PVTZ
    Blend: AUG-CC-PVTZ
  Basis Set: (AUG-CC-PVTZ AUX)
    Blend: AUG-CC-PVTZ-JKFIT
	 Reference Energy          =   -1029.0487480183649041 [Eh]
	 Singles Energy            =      -0.0000000000000000 [Eh]
	 Same-Spin Energy          =      -1.0497637295116404 [Eh]
	 Opposite-Spin Energy      =      -2.9499556814141874 [Eh]
	 Correlation Energy        =      -3.9997194109258278 [Eh]
	 Total Energy              =   -1033.0484674292906675 [Eh]

	 ================> DF-SCS-MP2 Energies <==================
	-----------------------------------------------------------
	 SCS Same-Spin Scale       =       0.3333333333333333 [-]
	 SCS Opposite-Spin Scale   =       1.2000000000000000 [-]
	 SCS Same-Spin Energy      =      -0.3499212431705468 [Eh]
	 SCS Opposite-Spin Energy  =      -3.5399468176970248 [Eh]
	 SCS Correlation Energy    =      -3.8898680608675718 [Eh]
	 SCS Total Energy          =   -1032.9386160792325882 [Eh]
	-----------------------------------------------------------

  Dipole Moment: [D]
     X:    -0.1601      Y:    -0.6509      Z:     1.1921     Total:     1.3676

*** Psi4 exiting successfully. Buy a developer a beer!
