                               Psi4 1.4a3.dev225

  ==> Input File <==

--------------------------------------------------------------------------
#psi4
#
memory 32 gb

molecule  {
0 1
  O       -2.9128620    -0.4781290     1.0138340
  O       -2.9681190     0.5148030    -1.0434710
  O       -0.3129680    -3.4309860     0.4641560
  O       -0.2589710     3.4469300    -0.4801560
  O       -1.9011930    -2.4818550    -0.7520780
  O       -1.8407060     2.5208330     0.7644950
  O        3.9597560    -1.1388570    -0.0240200
  O        3.9819620     1.0692260     0.0429750
  N       -0.8439190    -2.4637400    -0.1025570
  N       -0.7967020     2.4883090     0.0943390
  N        3.4069750    -0.0290830     0.0068360
  C       -0.8642630     0.0144850    -0.0118450
  C       -0.1342560    -1.1768520    -0.0236930
  C       -0.1092970     1.1902470     0.0051550
  C        2.0306025    -0.0148071     0.0001870
  C        1.2541590    -1.2264030    -0.0035910
  C        1.2788880     1.2129500     0.0017720
  C       -2.3665400     0.0542110    -0.0958220
  H        1.7835260    -2.1724740     0.0038120
  H        1.8267950     2.1485240     0.0024160
  H       -3.8857970    -0.4493820     0.8874840
units angstrom
no_reorient  #important for SAPT in psi4, default
symmetry c1  #important for SAPT in psi4, default
}

set PROPERTIES_ORIGIN ["COM"]
properties('MP2/aug-cc-pvtz', properties = ['dipole'])
--------------------------------------------------------------------------

    Molecular point group: c1
  Charge       = 0
  Multiplicity = 1
  Basis Set: AUG-CC-PVTZ
    Blend: AUG-CC-PVTZ
  Basis Set: (AUG-CC-PVTZ AUX)
    Blend: AUG-CC-PVTZ-JKFIT

    Orbital Energies [Eh]
    ---------------------

    Doubly Occupied:

       1A    -20.659175     2A    -20.652910     3A    -20.652757
       4A    -20.650330     5A    -20.650212     6A    -20.648220
       7A    -20.648141     8A    -20.597918     9A    -15.903581
      10A    -15.901749    11A    -15.900847    12A    -11.454482
      13A    -11.386457    14A    -11.385170    15A    -11.381019
      16A    -11.380520    17A    -11.363834    18A    -11.363419
      19A     -1.643497    20A     -1.636948    21A     -1.633979
      22A     -1.507794    23A     -1.437037    24A     -1.436691
      25A     -1.434509    26A     -1.407389    27A     -1.284496
      28A     -1.195805    29A     -1.179979    30A     -1.067681
      31A     -1.043669    32A     -1.019878    33A     -0.926790
      34A     -0.883527    35A     -0.869914    36A     -0.838482
      37A     -0.802220    38A     -0.792837    39A     -0.789848
      40A     -0.777708    41A     -0.768348    42A     -0.764386
      43A     -0.762777    44A     -0.755904    45A     -0.746119
      46A     -0.742021    47A     -0.714114    48A     -0.694839
      49A     -0.666396    50A     -0.631954    51A     -0.627470
      52A     -0.601114    53A     -0.557335    54A     -0.550546
      55A     -0.544811    56A     -0.542153    57A     -0.539036
      58A     -0.534509    59A     -0.523243    60A     -0.510251
      61A     -0.494413    62A     -0.492578    63A     -0.487297
      64A     -0.445840    65A     -0.440955

  @DF-RHF Final Energy: -1029.03834925798196

   => Energetics <=

    Nuclear Repulsion Energy =           1345.0942779945080474
    One-Electron Energy =               -4081.6055944227709915
    Two-Electron Energy =                1707.4729671702809810
    Total Energy =                      -1029.0383492579819631
  Basis Set: (AUG-CC-PVTZ AUX)
    Blend: AUG-CC-PVTZ-RI
    Molecular point group: c1

    Geometry (in Angstrom), charge = 0, multiplicity = 1:

       Center              X                  Y                   Z               Mass
    ------------   -----------------  -----------------  -----------------  -----------------
         O           -2.918660304872    -0.479907473106     1.017261571021    15.994914619570
         O           -2.973917304872     0.513024526894    -1.040043428979    15.994914619570
         O           -0.318766304872    -3.432764473106     0.467583571021    15.994914619570
         O           -0.264769304872     3.445151526894    -0.476728428979    15.994914619570
         O           -1.906991304872    -2.483633473106    -0.748650428979    15.994914619570
         O           -1.846504304872     2.519054526894     0.767922571021    15.994914619570
         O            3.953957695128    -1.140635473106    -0.020592428979    15.994914619570
         O            3.976163695128     1.067447526894     0.046402571021    15.994914619570
         N           -0.849717304872    -2.465518473106    -0.099129428979    14.003074004430
         N           -0.802500304872     2.486530526894     0.097766571021    14.003074004430
         N            3.401176695128    -0.030861473106     0.010263571021    14.003074004430
         C           -0.870061304872     0.012706526894    -0.008417428979    12.000000000000
         C           -0.140054304872    -1.178630473106    -0.020265428979    12.000000000000
         C           -0.115095304872     1.188468526894     0.008582571021    12.000000000000
         C            2.024804195128    -0.016585573106     0.003614571021    12.000000000000
         C            1.248360695128    -1.228181473106    -0.000163428979    12.000000000000
         C            1.273089695128     1.211171526894     0.005199571021    12.000000000000
         C           -2.372338304872     0.052432526894    -0.092394428979    12.000000000000
         H            1.777727695128    -2.174252473106     0.007239571021     1.007825032230
         H            1.820996695128     2.146745526894     0.005843571021     1.007825032230
         H           -3.891595304872    -0.451160473106     0.890911571021     1.007825032230

  Basis Set: AUG-CC-PVTZ
    Blend: AUG-CC-PVTZ
  Basis Set: (AUG-CC-PVTZ AUX)
    Blend: AUG-CC-PVTZ-JKFIT
	 Reference Energy          =   -1029.0383492579819631 [Eh]
	 Singles Energy            =      -0.0000000000000000 [Eh]
	 Same-Spin Energy          =      -1.0500073127059570 [Eh]
	 Opposite-Spin Energy      =      -2.9503374935172264 [Eh]
	 Correlation Energy        =      -4.0003448062231834 [Eh]
	 Total Energy              =   -1033.0386940642051741 [Eh]

	 ================> DF-SCS-MP2 Energies <==================
	-----------------------------------------------------------
	 SCS Same-Spin Scale       =       0.3333333333333333 [-]
	 SCS Opposite-Spin Scale   =       1.2000000000000000 [-]
	 SCS Same-Spin Energy      =      -0.3500024375686523 [Eh]
	 SCS Opposite-Spin Energy  =      -3.5404049922206715 [Eh]
	 SCS Correlation Energy    =      -3.8904074297893239 [Eh]
	 SCS Total Energy          =   -1032.9287566877712834 [Eh]
	-----------------------------------------------------------

  Dipole Moment: [D]
     X:    -0.1272      Y:    -0.6183      Z:     1.1890     Total:     1.3462

*** Psi4 exiting successfully. Buy a developer a beer!
