                               Psi4 1.4a3.dev225

  ==> Input File <==

--------------------------------------------------------------------------
#psi4
#
memory 32 gb

molecule  {
0 1
  O       -2.9128620    -0.4781290     1.0138340
  O       -2.9681190     0.5148030    -1.0434710
  O       -0.3129680    -3.4309860     0.4641560
  O       -0.2589710     3.4469300    -0.4801560
  O       -1.9011930    -2.4818550    -0.7520780
  O       -1.8407060     2.5208330     0.7644950
  O        3.9597560    -1.1388570    -0.0240200
  O        3.9819620     1.0692260     0.0429750
  N       -0.8439190    -2.4637400    -0.1025570
  N       -0.7967020     2.4883090     0.0943390
  N        3.4069750    -0.0290830     0.0068360
  C       -0.8642630     0.0144850    -0.0118450
  C       -0.1342560    -1.1768520    -0.0236930
  C       -0.1092970     1.1902470     0.0051550
  C        1.9306090    -0.0137700    -0.0002960
  C        1.2541590    -1.2264030    -0.0035910
  C        1.2788880     1.2129500     0.0017720
  C       -2.2853959     0.1332784    -0.2606370
  H        1.7835260    -2.1724740     0.0038120
  H        1.8267950     2.1485240     0.0024160
  H       -3.8857970    -0.4493820     0.8874840
units angstrom
no_reorient  #important for SAPT in psi4, default
symmetry c1  #important for SAPT in psi4, default
}

set PROPERTIES_ORIGIN ["COM"]
properties('MP2/aug-cc-pvtz', properties = ['dipole'])
--------------------------------------------------------------------------

    Molecular point group: c1
  Charge       = 0
  Multiplicity = 1
  Basis Set: AUG-CC-PVTZ
    Blend: AUG-CC-PVTZ
  Basis Set: (AUG-CC-PVTZ AUX)
    Blend: AUG-CC-PVTZ-JKFIT

    Orbital Energies [Eh]
    ---------------------

    Doubly Occupied:

       1A    -20.655516     2A    -20.654982     3A    -20.654375
       4A    -20.654316     5A    -20.652456     6A    -20.652021
       7A    -20.627323     8A    -20.595441     9A    -15.905666
      10A    -15.905245    11A    -15.902754    12A    -11.445248
      13A    -11.393993    14A    -11.391695    15A    -11.386063
      16A    -11.381833    17A    -11.360070    18A    -11.359757
      19A     -1.639461    20A     -1.638408    21A     -1.635787
      22A     -1.545751    23A     -1.439489    24A     -1.438340
      25A     -1.436097    26A     -1.353427    27A     -1.296931
      28A     -1.192979    29A     -1.185894    30A     -1.068896
      31A     -1.039758    32A     -1.032328    33A     -0.918751
      34A     -0.887982    35A     -0.868074    36A     -0.835588
      37A     -0.808143    38A     -0.793297    39A     -0.791646
      40A     -0.771380    41A     -0.768911    42A     -0.764817
      43A     -0.760810    44A     -0.757084    45A     -0.747292
      46A     -0.736469    47A     -0.720898    48A     -0.694697
      49A     -0.668337    50A     -0.649491    51A     -0.631743
      52A     -0.608272    53A     -0.558230    54A     -0.551912
      55A     -0.545133    56A     -0.541925    57A     -0.539172
      58A     -0.536057    59A     -0.521628    60A     -0.497115
      61A     -0.495189    62A     -0.493999    63A     -0.487552
      64A     -0.454435    65A     -0.450482

  @DF-RHF Final Energy: -1029.00835030454709

   => Energetics <=

    Nuclear Repulsion Energy =           1346.8238373532078640
    One-Electron Energy =               -4084.9067527856254856
    Two-Electron Energy =                1709.0745651278703008
    Total Energy =                      -1029.0083503045470934
  Basis Set: (AUG-CC-PVTZ AUX)
    Blend: AUG-CC-PVTZ-RI
    Molecular point group: c1

    Geometry (in Angstrom), charge = 0, multiplicity = 1:

       Center              X                  Y                   Z               Mass
    ------------   -----------------  -----------------  -----------------  -----------------
         O           -2.917780149896    -0.483647877272     1.024980005414    15.994914619570
         O           -2.973037149896     0.509284122728    -1.032324994586    15.994914619570
         O           -0.317886149896    -3.436504877272     0.475302005414    15.994914619570
         O           -0.263889149896     3.441411122728    -0.469009994586    15.994914619570
         O           -1.906111149896    -2.487373877272    -0.740931994586    15.994914619570
         O           -1.845624149896     2.515314122728     0.775641005414    15.994914619570
         O            3.954837850104    -1.144375877272    -0.012873994586    15.994914619570
         O            3.977043850104     1.063707122728     0.054121005414    15.994914619570
         N           -0.848837149896    -2.469258877272    -0.091410994586    14.003074004430
         N           -0.801620149896     2.482790122728     0.105485005414    14.003074004430
         N            3.402056850104    -0.034601877272     0.017982005414    14.003074004430
         C           -0.869181149896     0.008966122728    -0.000698994586    12.000000000000
         C           -0.139174149896    -1.182370877272    -0.012546994586    12.000000000000
         C           -0.114215149896     1.184728122728     0.016301005414    12.000000000000
         C            1.925690850104    -0.019288877272     0.010850005414    12.000000000000
         C            1.249240850104    -1.231921877272     0.007555005414    12.000000000000
         C            1.273969850104     1.207431122728     0.012918005414    12.000000000000
         C           -2.290314049896     0.127759522728    -0.249490994586    12.000000000000
         H            1.778607850104    -2.177992877272     0.014958005414     1.007825032230
         H            1.821876850104     2.143005122728     0.013562005414     1.007825032230
         H           -3.890715149896    -0.454900877272     0.898630005414     1.007825032230

  Basis Set: AUG-CC-PVTZ
    Blend: AUG-CC-PVTZ
  Basis Set: (AUG-CC-PVTZ AUX)
    Blend: AUG-CC-PVTZ-JKFIT
	 Reference Energy          =   -1029.0083503045470934 [Eh]
	 Singles Energy            =      -0.0000000000000000 [Eh]
	 Same-Spin Energy          =      -1.0503082672175295 [Eh]
	 Opposite-Spin Energy      =      -2.9527383958570850 [Eh]
	 Correlation Energy        =      -4.0030466630746142 [Eh]
	 Total Energy              =   -1033.0113969676217494 [Eh]

	 ================> DF-SCS-MP2 Energies <==================
	-----------------------------------------------------------
	 SCS Same-Spin Scale       =       0.3333333333333333 [-]
	 SCS Opposite-Spin Scale   =       1.2000000000000000 [-]
	 SCS Same-Spin Energy      =      -0.3501027557391765 [Eh]
	 SCS Opposite-Spin Energy  =      -3.5432860750285018 [Eh]
	 SCS Correlation Energy    =      -3.8933888307676781 [Eh]
	 SCS Total Energy          =   -1032.9017391353147559 [Eh]
	-----------------------------------------------------------

  Dipole Moment: [D]
     X:     0.7688      Y:    -0.0043      Z:    -0.2111     Total:     0.7973

*** Psi4 exiting successfully. Buy a developer a beer!
