                               Psi4 1.4a3.dev225

  ==> Input File <==

--------------------------------------------------------------------------
#psi4
#
memory 32 gb

molecule  {
0 1
  O       -2.9128620    -0.4781290     1.0138340
  O       -2.9681190     0.5148030    -1.0434710
  O       -0.3129680    -3.4309860     0.4641560
  O       -0.2589710     3.4469300    -0.4801560
  O       -1.9011930    -2.4818550    -0.7520780
  O       -1.8407060     2.5208330     0.7644950
  O        3.9597560    -1.1388570    -0.0240200
  O        4.0010526     1.0590253     0.0427650
  N       -0.8439190    -2.4637400    -0.1025570
  N       -0.7967020     2.4883090     0.0943390
  N        3.4069750    -0.0290830     0.0068360
  C       -0.8642630     0.0144850    -0.0118450
  C       -0.1342560    -1.1768520    -0.0236930
  C       -0.1092970     1.1902470     0.0051550
  C        1.9306090    -0.0137700    -0.0002960
  C        1.2541590    -1.2264030    -0.0035910
  C        1.2788880     1.2129500     0.0017720
  C       -2.3665400     0.0542110    -0.0958220
  H        1.7835260    -2.1724740     0.0038120
  H        1.8267950     2.1485240     0.0024160
  H       -3.8857970    -0.4493820     0.8874840
units angstrom
no_reorient  #important for SAPT in psi4, default
symmetry c1  #important for SAPT in psi4, default
}

set PROPERTIES_ORIGIN ["COM"]
properties('MP2/aug-cc-pvtz', properties = ['dipole'])
--------------------------------------------------------------------------

    Molecular point group: c1
  Charge       = 0
  Multiplicity = 1
  Basis Set: AUG-CC-PVTZ
    Blend: AUG-CC-PVTZ
  Basis Set: (AUG-CC-PVTZ AUX)
    Blend: AUG-CC-PVTZ-JKFIT

    Orbital Energies [Eh]
    ---------------------

    Doubly Occupied:

       1A    -20.657952     2A    -20.653048     3A    -20.652842
       4A    -20.650478     5A    -20.650323     6A    -20.649822
       7A    -20.649144     8A    -20.596333     9A    -15.903116
      10A    -15.901399    11A    -15.900406    12A    -11.452905
      13A    -11.387083    14A    -11.385872    15A    -11.381132
      16A    -11.376418    17A    -11.356543    18A    -11.356307
      19A     -1.636950    20A     -1.634606    21A     -1.633958
      22A     -1.506480    23A     -1.437014    24A     -1.434542
      25A     -1.432484    26A     -1.406028    27A     -1.291047
      28A     -1.185190    29A     -1.181778    30A     -1.057002
      31A     -1.036354    32A     -1.028604    33A     -0.924382
      34A     -0.884211    35A     -0.871203    36A     -0.836864
      37A     -0.803157    38A     -0.790147    39A     -0.788570
      40A     -0.777823    41A     -0.766208    42A     -0.763504
      43A     -0.756635    44A     -0.753066    45A     -0.746025
      46A     -0.741740    47A     -0.716164    48A     -0.691960
      49A     -0.667979    50A     -0.646724    51A     -0.630233
      52A     -0.608862    53A     -0.555800    54A     -0.550204
      55A     -0.544080    56A     -0.539264    57A     -0.536681
      58A     -0.534290    59A     -0.522704    60A     -0.509551
      61A     -0.492683    62A     -0.492461    63A     -0.487212
      64A     -0.448237    65A     -0.446395

  @DF-RHF Final Energy: -1029.04946828334914

   => Energetics <=

    Nuclear Repulsion Energy =           1345.5417630817744339
    One-Electron Energy =               -4082.6061091921537809
    Two-Electron Energy =                1708.0148778270299772
    Total Energy =                      -1029.0494682833491424
  Basis Set: (AUG-CC-PVTZ AUX)
    Blend: AUG-CC-PVTZ-RI
    Molecular point group: c1

    Geometry (in Angstrom), charge = 0, multiplicity = 1:

       Center              X                  Y                   Z               Mass
    ------------   -----------------  -----------------  -----------------  -----------------
         O           -2.915179381598    -0.479321018596     1.017297194432    15.994914619570
         O           -2.970436381598     0.513610981404    -1.040007805568    15.994914619570
         O           -0.315285381598    -3.432178018596     0.467619194432    15.994914619570
         O           -0.261288381598     3.445737981404    -0.476692805568    15.994914619570
         O           -1.903510381598    -2.483047018596    -0.748614805568    15.994914619570
         O           -1.843023381598     2.519640981404     0.767958194432    15.994914619570
         O            3.957438618402    -1.140049018596    -0.020556805568    15.994914619570
         O            3.998735218402     1.057833281404     0.046228194432    15.994914619570
         N           -0.846236381598    -2.464932018596    -0.099093805568    14.003074004430
         N           -0.799019381598     2.487116981404     0.097802194432    14.003074004430
         N            3.404657618402    -0.030275018596     0.010299194432    14.003074004430
         C           -0.866580381598     0.013292981404    -0.008381805568    12.000000000000
         C           -0.136573381598    -1.178044018596    -0.020229805568    12.000000000000
         C           -0.111614381598     1.189054981404     0.008618194432    12.000000000000
         C            1.928291618402    -0.014962018596     0.003167194432    12.000000000000
         C            1.251841618402    -1.227595018596    -0.000127805568    12.000000000000
         C            1.276570618402     1.211757981404     0.005235194432    12.000000000000
         C           -2.368857381598     0.053018981404    -0.092358805568    12.000000000000
         H            1.781208618402    -2.173666018596     0.007275194432     1.007825032230
         H            1.824477618402     2.147331981404     0.005879194432     1.007825032230
         H           -3.888114381598    -0.450574018596     0.890947194432     1.007825032230

  Basis Set: AUG-CC-PVTZ
    Blend: AUG-CC-PVTZ
  Basis Set: (AUG-CC-PVTZ AUX)
    Blend: AUG-CC-PVTZ-JKFIT
	 Reference Energy          =   -1029.0494682833491424 [Eh]
	 Singles Energy            =      -0.0000000000000000 [Eh]
	 Same-Spin Energy          =      -1.0499116318078929 [Eh]
	 Opposite-Spin Energy      =      -2.9502380632278826 [Eh]
	 Correlation Energy        =      -4.0001496950357751 [Eh]
	 Total Energy              =   -1033.0496179783849584 [Eh]

	 ================> DF-SCS-MP2 Energies <==================
	-----------------------------------------------------------
	 SCS Same-Spin Scale       =       0.3333333333333333 [-]
	 SCS Opposite-Spin Scale   =       1.2000000000000000 [-]
	 SCS Same-Spin Energy      =      -0.3499705439359643 [Eh]
	 SCS Opposite-Spin Energy  =      -3.5402856758734589 [Eh]
	 SCS Correlation Energy    =      -3.8902562198094230 [Eh]
	 SCS Total Energy          =   -1032.9397245031584589 [Eh]
	-----------------------------------------------------------

  Dipole Moment: [D]
     X:    -0.1992      Y:    -0.6089      Z:     1.1906     Total:     1.3520

*** Psi4 exiting successfully. Buy a developer a beer!
