                               Psi4 1.4a3.dev225

  ==> Input File <==

--------------------------------------------------------------------------
#psi4
#
memory 32 gb

molecule  {
0 1
  O       -2.9128620    -0.4781290     1.0138340
  O       -2.9681190     0.5148030    -1.0434710
  O       -0.3129680    -3.4309860     0.4641560
  O       -0.2589710     3.4469300    -0.4801560
  O       -1.9011930    -2.4818550    -0.7520780
  O       -1.8407060     2.5208330     0.7644950
  O        3.9597560    -1.1388570    -0.0240200
  O        3.9819620     1.0692260     0.0429750
  N       -0.8524798    -2.4481445    -0.1116945
  N       -0.7967020     2.4883090     0.0943390
  N        3.4069750    -0.0290830     0.0068360
  C       -0.8642630     0.0144850    -0.0118450
  C       -0.1342560    -1.1768520    -0.0236930
  C       -0.1092970     1.1902470     0.0051550
  C        1.9306090    -0.0137700    -0.0002960
  C        1.2541590    -1.2264030    -0.0035910
  C        1.2788880     1.2129500     0.0017720
  C       -2.3665400     0.0542110    -0.0958220
  H        1.7835260    -2.1724740     0.0038120
  H        1.8267950     2.1485240     0.0024160
  H       -3.8857970    -0.4493820     0.8874840
units angstrom
no_reorient  #important for SAPT in psi4, default
symmetry c1  #important for SAPT in psi4, default
}

set PROPERTIES_ORIGIN ["COM"]
properties('MP2/aug-cc-pvtz', properties = ['dipole'])
--------------------------------------------------------------------------

    Molecular point group: c1
  Charge       = 0
  Multiplicity = 1
  Basis Set: AUG-CC-PVTZ
    Blend: AUG-CC-PVTZ
  Basis Set: (AUG-CC-PVTZ AUX)
    Blend: AUG-CC-PVTZ-JKFIT

    Orbital Energies [Eh]
    ---------------------

    Doubly Occupied:

       1A    -20.658966     2A    -20.658767     3A    -20.650827
       4A    -20.650761     5A    -20.650529     6A    -20.650371
       7A    -20.645545     8A    -20.597122     9A    -15.902235
      10A    -15.902151    11A    -15.900433    12A    -11.453551
      13A    -11.386732    14A    -11.385741    15A    -11.380567
      16A    -11.376359    17A    -11.356579    18A    -11.356249
      19A     -1.635270    20A     -1.634864    21A     -1.633996
      22A     -1.507227    23A     -1.434965    24A     -1.434590
      25A     -1.431443    26A     -1.406811    27A     -1.291238
      28A     -1.185866    29A     -1.182334    30A     -1.057136
      31A     -1.037399    32A     -1.029353    33A     -0.924960
      34A     -0.883837    35A     -0.871440    36A     -0.837252
      37A     -0.803249    38A     -0.790134    39A     -0.788432
      40A     -0.778278    41A     -0.765436    42A     -0.762907
      43A     -0.757414    44A     -0.753714    45A     -0.746168
      46A     -0.741662    47A     -0.715153    48A     -0.691853
      49A     -0.668631    50A     -0.646750    51A     -0.630722
      52A     -0.608561    53A     -0.556450    54A     -0.548346
      55A     -0.544919    56A     -0.540232    57A     -0.536739
      58A     -0.533666    59A     -0.523315    60A     -0.510236
      61A     -0.494093    62A     -0.490864    63A     -0.487379
      64A     -0.448256    65A     -0.446144

  @DF-RHF Final Energy: -1029.04783092391017

   => Energetics <=

    Nuclear Repulsion Energy =           1346.0234029403836757
    One-Electron Energy =               -4083.5561224741663864
    Two-Electron Energy =                1708.4848886098725416
    Total Energy =                      -1029.0478309239101691
  Basis Set: (AUG-CC-PVTZ AUX)
    Blend: AUG-CC-PVTZ-RI
    Molecular point group: c1

    Geometry (in Angstrom), charge = 0, multiplicity = 1:

       Center              X                  Y                   Z               Mass
    ------------   -----------------  -----------------  -----------------  -----------------
         O           -2.913524738614    -0.480805672770     1.017782011663    15.994914619570
         O           -2.968781738614     0.512126327230    -1.039522988337    15.994914619570
         O           -0.313630738614    -3.433662672770     0.468104011663    15.994914619570
         O           -0.259633738614     3.444253327230    -0.476207988337    15.994914619570
         O           -1.901855738614    -2.484531672770    -0.748129988337    15.994914619570
         O           -1.841368738614     2.518156327230     0.768443011663    15.994914619570
         O            3.959093261386    -1.141533672770    -0.020071988337    15.994914619570
         O            3.981299261386     1.066549327230     0.046923011663    15.994914619570
         N           -0.853142538614    -2.450821172770    -0.107746488337    14.003074004430
         N           -0.797364738614     2.485632327230     0.098287011663    14.003074004430
         N            3.406312261386    -0.031759672770     0.010784011663    14.003074004430
         C           -0.864925738614     0.011808327230    -0.007896988337    12.000000000000
         C           -0.134918738614    -1.179528672770    -0.019744988337    12.000000000000
         C           -0.109959738614     1.187570327230     0.009103011663    12.000000000000
         C            1.929946261386    -0.016446672770     0.003652011663    12.000000000000
         C            1.253496261386    -1.229079672770     0.000357011663    12.000000000000
         C            1.278225261386     1.210273327230     0.005720011663    12.000000000000
         C           -2.367202738614     0.051534327230    -0.091873988337    12.000000000000
         H            1.782863261386    -2.175150672770     0.007760011663     1.007825032230
         H            1.826132261386     2.145847327230     0.006364011663     1.007825032230
         H           -3.886459738614    -0.452058672770     0.891432011663     1.007825032230

  Basis Set: AUG-CC-PVTZ
    Blend: AUG-CC-PVTZ
  Basis Set: (AUG-CC-PVTZ AUX)
    Blend: AUG-CC-PVTZ-JKFIT
	 Reference Energy          =   -1029.0478309239101691 [Eh]
	 Singles Energy            =      -0.0000000000000000 [Eh]
	 Same-Spin Energy          =      -1.0501950137686691 [Eh]
	 Opposite-Spin Energy      =      -2.9508196505369804 [Eh]
	 Correlation Energy        =      -4.0010146643056492 [Eh]
	 Total Energy              =   -1033.0488455882157268 [Eh]

	 ================> DF-SCS-MP2 Energies <==================
	-----------------------------------------------------------
	 SCS Same-Spin Scale       =       0.3333333333333333 [-]
	 SCS Opposite-Spin Scale   =       1.2000000000000000 [-]
	 SCS Same-Spin Energy      =      -0.3500650045895564 [Eh]
	 SCS Opposite-Spin Energy  =      -3.5409835806443763 [Eh]
	 SCS Correlation Energy    =      -3.8910485852339325 [Eh]
	 SCS Total Energy          =   -1032.9388795091440443 [Eh]
	-----------------------------------------------------------

  Dipole Moment: [D]
     X:    -0.1587      Y:    -0.5391      Z:     1.1497     Total:     1.2797

*** Psi4 exiting successfully. Buy a developer a beer!
