                               Psi4 1.4a3.dev225

  ==> Input File <==

--------------------------------------------------------------------------
#psi4
#
memory 32 gb

molecule  {
0 1
  O       -2.9128620    -0.4781290     1.0138340
  O       -2.9681190     0.5148030    -1.0434710
  O       -0.3129680    -3.4309860     0.4641560
  O       -0.2589710     3.4469300    -0.4801560
  O       -1.9011930    -2.4818550    -0.7520780
  O       -1.8407060     2.5208330     0.7644950
  O        3.9597560    -1.1388570    -0.0240200
  O        3.9819620     1.0692260     0.0429750
  N       -0.8353582    -2.4793355    -0.0934195
  N       -0.7967020     2.4883090     0.0943390
  N        3.4069750    -0.0290830     0.0068360
  C       -0.8642630     0.0144850    -0.0118450
  C       -0.1342560    -1.1768520    -0.0236930
  C       -0.1092970     1.1902470     0.0051550
  C        1.9306090    -0.0137700    -0.0002960
  C        1.2541590    -1.2264030    -0.0035910
  C        1.2788880     1.2129500     0.0017720
  C       -2.3665400     0.0542110    -0.0958220
  H        1.7835260    -2.1724740     0.0038120
  H        1.8267950     2.1485240     0.0024160
  H       -3.8857970    -0.4493820     0.8874840
units angstrom
no_reorient  #important for SAPT in psi4, default
symmetry c1  #important for SAPT in psi4, default
}

set PROPERTIES_ORIGIN ["COM"]
properties('MP2/aug-cc-pvtz', properties = ['dipole'])
--------------------------------------------------------------------------

    Molecular point group: c1
  Charge       = 0
  Multiplicity = 1
  Basis Set: AUG-CC-PVTZ
    Blend: AUG-CC-PVTZ
  Basis Set: (AUG-CC-PVTZ AUX)
    Blend: AUG-CC-PVTZ-JKFIT

    Orbital Energies [Eh]
    ---------------------

    Doubly Occupied:

       1A    -20.660024     2A    -20.656650     3A    -20.650556
       4A    -20.650482     5A    -20.649865     6A    -20.649718
       7A    -20.646187     8A    -20.595002     9A    -15.903310
      10A    -15.901895    11A    -15.899801    12A    -11.451689
      13A    -11.386586    14A    -11.385152    15A    -11.379971
      16A    -11.375582    17A    -11.355428    18A    -11.355141
      19A     -1.641432    20A     -1.634700    21A     -1.633370
      22A     -1.505231    23A     -1.439691    24A     -1.434688
      25A     -1.433917    26A     -1.404730    27A     -1.289790
      28A     -1.183489    29A     -1.179990    30A     -1.056055
      31A     -1.034567    32A     -1.026735    33A     -0.923575
      34A     -0.884149    35A     -0.870994    36A     -0.837502
      37A     -0.802689    38A     -0.790524    39A     -0.788256
      40A     -0.776793    41A     -0.767372    42A     -0.763242
      43A     -0.757379    44A     -0.753687    45A     -0.745775
      46A     -0.741319    47A     -0.716885    48A     -0.691184
      49A     -0.666778    50A     -0.645903    51A     -0.629139
      52A     -0.608414    53A     -0.554943    54A     -0.551091
      55A     -0.543390    56A     -0.540310    57A     -0.535208
      58A     -0.534566    59A     -0.521459    60A     -0.508298
      61A     -0.493910    62A     -0.493413    63A     -0.486528
      64A     -0.447092    65A     -0.445868

  @DF-RHF Final Energy: -1029.05000758584083

   => Energetics <=

    Nuclear Repulsion Energy =           1345.6281105494329040
    One-Electron Energy =               -4082.8181122476025848
    Two-Electron Energy =                1708.1399941123290773
    Total Energy =                      -1029.0500075858408309
  Basis Set: (AUG-CC-PVTZ AUX)
    Blend: AUG-CC-PVTZ-RI
    Molecular point group: c1

    Geometry (in Angstrom), charge = 0, multiplicity = 1:

       Center              X                  Y                   Z               Mass
    ------------   -----------------  -----------------  -----------------  -----------------
         O           -2.914457666560    -0.479106126257     1.016786236840    15.994914619570
         O           -2.969714666560     0.513825873743    -1.040518763160    15.994914619570
         O           -0.314563666560    -3.431963126257     0.467108236840    15.994914619570
         O           -0.260566666560     3.445952873743    -0.477203763160    15.994914619570
         O           -1.902788666560    -2.482832126257    -0.749125763160    15.994914619570
         O           -1.842301666560     2.519855873743     0.767447236840    15.994914619570
         O            3.958160333440    -1.139834126257    -0.021067763160    15.994914619570
         O            3.980366333440     1.068248873743     0.045927236840    15.994914619570
         N           -0.836953866560    -2.480312626257    -0.090467263160    14.003074004430
         N           -0.798297666560     2.487331873743     0.097291236840    14.003074004430
         N            3.405379333440    -0.030060126257     0.009788236840    14.003074004430
         C           -0.865858666560     0.013507873743    -0.008892763160    12.000000000000
         C           -0.135851666560    -1.177829126257    -0.020740763160    12.000000000000
         C           -0.110892666560     1.189269873743     0.008107236840    12.000000000000
         C            1.929013333440    -0.014747126257     0.002656236840    12.000000000000
         C            1.252563333440    -1.227380126257    -0.000638763160    12.000000000000
         C            1.277292333440     1.211972873743     0.004724236840    12.000000000000
         C           -2.368135666560     0.053233873743    -0.092869763160    12.000000000000
         H            1.781930333440    -2.173451126257     0.006764236840     1.007825032230
         H            1.825199333440     2.147546873743     0.005368236840     1.007825032230
         H           -3.887392666560    -0.450359126257     0.890436236840     1.007825032230

  Basis Set: AUG-CC-PVTZ
    Blend: AUG-CC-PVTZ
  Basis Set: (AUG-CC-PVTZ AUX)
    Blend: AUG-CC-PVTZ-JKFIT
	 Reference Energy          =   -1029.0500075858408309 [Eh]
	 Singles Energy            =      -0.0000000000000000 [Eh]
	 Same-Spin Energy          =      -1.0496732205462835 [Eh]
	 Opposite-Spin Energy      =      -2.9495893934721171 [Eh]
	 Correlation Energy        =      -3.9992626140184004 [Eh]
	 Total Energy              =   -1033.0492701998591656 [Eh]

	 ================> DF-SCS-MP2 Energies <==================
	-----------------------------------------------------------
	 SCS Same-Spin Scale       =       0.3333333333333333 [-]
	 SCS Opposite-Spin Scale   =       1.2000000000000000 [-]
	 SCS Same-Spin Energy      =      -0.3498910735154278 [Eh]
	 SCS Opposite-Spin Energy  =      -3.5395072721665404 [Eh]
	 SCS Correlation Energy    =      -3.8893983456819683 [Eh]
	 SCS Total Energy          =   -1032.9394059315227423 [Eh]
	-----------------------------------------------------------

  Dipole Moment: [D]
     X:    -0.1110      Y:    -0.6980      Z:     1.2346     Total:     1.4225

*** Psi4 exiting successfully. Buy a developer a beer!
