                               Psi4 1.4a3.dev225

  ==> Input File <==

--------------------------------------------------------------------------
#psi4
#
memory 32 gb

molecule  {
0 1
  O       -2.9128620    -0.4781290     1.0138340
  O       -2.9681190     0.5148030    -1.0434710
  O       -0.3129680    -3.4309860     0.4641560
  O       -0.2589710     3.4469300    -0.4801560
  O       -1.9011930    -2.4818550    -0.7520780
  O       -1.8407060     2.5208330     0.7644950
  O        3.9597560    -1.1388570    -0.0240200
  O        3.9819620     1.0692260     0.0429750
  N       -0.8662839    -2.4511185    -0.1030766
  N       -0.7967020     2.4883090     0.0943390
  N        3.4069750    -0.0290830     0.0068360
  C       -0.8642630     0.0144850    -0.0118450
  C       -0.1342560    -1.1768520    -0.0236930
  C       -0.1092970     1.1902470     0.0051550
  C        1.9306090    -0.0137700    -0.0002960
  C        1.2541590    -1.2264030    -0.0035910
  C        1.2788880     1.2129500     0.0017720
  C       -2.3665400     0.0542110    -0.0958220
  H        1.7835260    -2.1724740     0.0038120
  H        1.8267950     2.1485240     0.0024160
  H       -3.8857970    -0.4493820     0.8874840
units angstrom
no_reorient  #important for SAPT in psi4, default
symmetry c1  #important for SAPT in psi4, default
}

set PROPERTIES_ORIGIN ["COM"]
properties('MP2/aug-cc-pvtz', properties = ['dipole'])
--------------------------------------------------------------------------

    Molecular point group: c1
  Charge       = 0
  Multiplicity = 1
  Basis Set: AUG-CC-PVTZ
    Blend: AUG-CC-PVTZ
  Basis Set: (AUG-CC-PVTZ AUX)
    Blend: AUG-CC-PVTZ-JKFIT

    Orbital Energies [Eh]
    ---------------------

    Doubly Occupied:

       1A    -20.660800     2A    -20.659053     3A    -20.650575
       4A    -20.650508     5A    -20.650314     6A    -20.650151
       7A    -20.644384     8A    -20.597283     9A    -15.902572
      10A    -15.901991    11A    -15.900187    12A    -11.453615
      13A    -11.386704    14A    -11.385367    15A    -11.380286
      16A    -11.375689    17A    -11.356158    18A    -11.355677
      19A     -1.638809    20A     -1.634732    21A     -1.633804
      22A     -1.507475    23A     -1.434811    24A     -1.434506
      25A     -1.434324    26A     -1.407012    27A     -1.290512
      28A     -1.184898    29A     -1.180945    30A     -1.055893
      31A     -1.036221    32A     -1.028772    33A     -0.924867
      34A     -0.883961    35A     -0.871269    36A     -0.837401
      37A     -0.802853    38A     -0.790616    39A     -0.788081
      40A     -0.778369    41A     -0.766052    42A     -0.763428
      43A     -0.757386    44A     -0.753756    45A     -0.746457
      46A     -0.742373    47A     -0.715656    48A     -0.691777
      49A     -0.668758    50A     -0.646471    51A     -0.630838
      52A     -0.608502    53A     -0.556242    54A     -0.548404
      55A     -0.544955    56A     -0.540198    57A     -0.536275
      58A     -0.533264    59A     -0.523262    60A     -0.510324
      61A     -0.493867    62A     -0.492001    63A     -0.487239
      64A     -0.447925    65A     -0.445760

  @DF-RHF Final Energy: -1029.04854988533953

   => Energetics <=

    Nuclear Repulsion Energy =           1345.9812637569002618
    One-Electron Energy =               -4083.4744047372137175
    Two-Electron Energy =                1708.4445910949739300
    Total Energy =                      -1029.0485498853395256
  Basis Set: (AUG-CC-PVTZ AUX)
    Blend: AUG-CC-PVTZ-RI
    Molecular point group: c1

    Geometry (in Angstrom), charge = 0, multiplicity = 1:

       Center              X                  Y                   Z               Mass
    ------------   -----------------  -----------------  -----------------  -----------------
         O           -2.912772575810    -0.480643624380     1.017312436404    15.994914619570
         O           -2.968029575810     0.512288375620    -1.039992563596    15.994914619570
         O           -0.312878575810    -3.433500624380     0.467634436404    15.994914619570
         O           -0.258881575810     3.444415375620    -0.476677563596    15.994914619570
         O           -1.901103575810    -2.484369624380    -0.748599563596    15.994914619570
         O           -1.840616575810     2.518318375620     0.767973436404    15.994914619570
         O            3.959845424190    -1.141371624380    -0.020541563596    15.994914619570
         O            3.982051424190     1.066711375620     0.046453436404    15.994914619570
         N           -0.866194475810    -2.453633124380    -0.099598163596    14.003074004430
         N           -0.796612575810     2.485794375620     0.097817436404    14.003074004430
         N            3.407064424190    -0.031597624380     0.010314436404    14.003074004430
         C           -0.864173575810     0.011970375620    -0.008366563596    12.000000000000
         C           -0.134166575810    -1.179366624380    -0.020214563596    12.000000000000
         C           -0.109207575810     1.187732375620     0.008633436404    12.000000000000
         C            1.930698424190    -0.016284624380     0.003182436404    12.000000000000
         C            1.254248424190    -1.228917624380    -0.000112563596    12.000000000000
         C            1.278977424190     1.210435375620     0.005250436404    12.000000000000
         C           -2.366450575810     0.051696375620    -0.092343563596    12.000000000000
         H            1.783615424190    -2.174988624380     0.007290436404     1.007825032230
         H            1.826884424190     2.146009375620     0.005894436404     1.007825032230
         H           -3.885707575810    -0.451896624380     0.890962436404     1.007825032230

  Basis Set: AUG-CC-PVTZ
    Blend: AUG-CC-PVTZ
  Basis Set: (AUG-CC-PVTZ AUX)
    Blend: AUG-CC-PVTZ-JKFIT
	 Reference Energy          =   -1029.0485498853395256 [Eh]
	 Singles Energy            =      -0.0000000000000000 [Eh]
	 Same-Spin Energy          =      -1.0499437013632571 [Eh]
	 Opposite-Spin Energy      =      -2.9502466845230750 [Eh]
	 Correlation Energy        =      -4.0001903858863326 [Eh]
	 Total Energy              =   -1033.0487402712258245 [Eh]

	 ================> DF-SCS-MP2 Energies <==================
	-----------------------------------------------------------
	 SCS Same-Spin Scale       =       0.3333333333333333 [-]
	 SCS Opposite-Spin Scale   =       1.2000000000000000 [-]
	 SCS Same-Spin Energy      =      -0.3499812337877524 [Eh]
	 SCS Opposite-Spin Energy  =      -3.5402960214276900 [Eh]
	 SCS Correlation Energy    =      -3.8902772552154423 [Eh]
	 SCS Total Energy          =   -1032.9388271405550768 [Eh]
	-----------------------------------------------------------

  Dipole Moment: [D]
     X:    -0.1977      Y:    -0.5723      Z:     1.1444     Total:     1.2947

*** Psi4 exiting successfully. Buy a developer a beer!
