                               Psi4 1.4a3.dev225

  ==> Input File <==

--------------------------------------------------------------------------
#psi4
#
memory 32 gb

molecule  {
0 1
  O       -2.9128620    -0.4781290     1.0138340
  O       -2.9681190     0.5148030    -1.0434710
  O       -0.3129680    -3.4309860     0.4641560
  O       -0.2589710     3.4469300    -0.4801560
  O       -1.9011930    -2.4818550    -0.7520780
  O       -1.8407060     2.5208330     0.7644950
  O        3.9597560    -1.1388570    -0.0240200
  O        3.9819620     1.0692260     0.0429750
  N       -0.8439190    -2.4637400    -0.1025570
  N       -0.7967020     2.4883090     0.0943390
  N        3.4069750    -0.0290830     0.0068360
  C       -0.8642630     0.0144850    -0.0118450
  C       -0.1342560    -1.1768520    -0.0236930
  C       -0.1092970     1.1902470     0.0051550
  C        1.9306090    -0.0137700    -0.0002960
  C        1.2541590    -1.2264030    -0.0035910
  C        1.3788743     1.2145852     0.0015283
  C       -2.3665400     0.0542110    -0.0958220
  H        1.7835260    -2.1724740     0.0038120
  H        1.8267950     2.1485240     0.0024160
  H       -3.8857970    -0.4493820     0.8874840
units angstrom
no_reorient  #important for SAPT in psi4, default
symmetry c1  #important for SAPT in psi4, default
}

set PROPERTIES_ORIGIN ["COM"]
properties('MP2/aug-cc-pvtz', properties = ['dipole'])
--------------------------------------------------------------------------

    Molecular point group: c1
  Charge       = 0
  Multiplicity = 1
  Basis Set: AUG-CC-PVTZ
    Blend: AUG-CC-PVTZ
  Basis Set: (AUG-CC-PVTZ AUX)
    Blend: AUG-CC-PVTZ-JKFIT

    Orbital Energies [Eh]
    ---------------------

    Doubly Occupied:

       1A    -20.657174     2A    -20.652789     3A    -20.652641
       4A    -20.650938     5A    -20.649749     6A    -20.649556
       7A    -20.649354     8A    -20.595140     9A    -15.902893
      10A    -15.900195    11A    -15.899815    12A    -11.451837
      13A    -11.393103    14A    -11.387330    15A    -11.378698
      16A    -11.374256    17A    -11.360087    18A    -11.357641
      19A     -1.636728    20A     -1.634842    21A     -1.633005
      22A     -1.505578    23A     -1.436787    24A     -1.434816
      25A     -1.433688    26A     -1.404985    27A     -1.287224
      28A     -1.191388    29A     -1.173105    30A     -1.053452
      31A     -1.035884    32A     -1.030148    33A     -0.923677
      34A     -0.884879    35A     -0.868981    36A     -0.837100
      37A     -0.802615    38A     -0.796487    39A     -0.785351
      40A     -0.776661    41A     -0.765902    42A     -0.763129
      43A     -0.757052    44A     -0.753134    45A     -0.746439
      46A     -0.741652    47A     -0.715336    48A     -0.683547
      49A     -0.673814    50A     -0.654451    51A     -0.627379
      52A     -0.605759    53A     -0.554974    54A     -0.549492
      55A     -0.544625    56A     -0.539857    57A     -0.535488
      58A     -0.532811    59A     -0.522088    60A     -0.508703
      61A     -0.493998    62A     -0.492325    63A     -0.486656
      64A     -0.455819    65A     -0.435416

  @DF-RHF Final Energy: -1029.03718484771616

   => Energetics <=

    Nuclear Repulsion Energy =           1344.6855513865070861
    One-Electron Energy =               -4080.9046269771170046
    Two-Electron Energy =                1707.1818907428937564
    Total Energy =                      -1029.0371848477161620
  Basis Set: (AUG-CC-PVTZ AUX)
    Blend: AUG-CC-PVTZ-RI
    Molecular point group: c1

    Geometry (in Angstrom), charge = 0, multiplicity = 1:

       Center              X                  Y                   Z               Mass
    ------------   -----------------  -----------------  -----------------  -----------------
         O           -2.918659968675    -0.480032253637     1.017295503593    15.994914619570
         O           -2.973916968675     0.512899746363    -1.040009496407    15.994914619570
         O           -0.318765968675    -3.432889253637     0.467617503593    15.994914619570
         O           -0.264768968675     3.445026746363    -0.476694496407    15.994914619570
         O           -1.906990968675    -2.483758253637    -0.748616496407    15.994914619570
         O           -1.846503968675     2.518929746363     0.767956503593    15.994914619570
         O            3.953958031325    -1.140760253637    -0.020558496407    15.994914619570
         O            3.976164031325     1.067322746363     0.046436503593    15.994914619570
         N           -0.849716968675    -2.465643253637    -0.099095496407    14.003074004430
         N           -0.802499968675     2.486405746363     0.097800503593    14.003074004430
         N            3.401177031325    -0.030986253637     0.010297503593    14.003074004430
         C           -0.870060968675     0.012581746363    -0.008383496407    12.000000000000
         C           -0.140053968675    -1.178755253637    -0.020231496407    12.000000000000
         C           -0.115094968675     1.188343746363     0.008616503593    12.000000000000
         C            1.924811031325    -0.015673253637     0.003165503593    12.000000000000
         C            1.248361031325    -1.228306253637    -0.000129496407    12.000000000000
         C            1.373076331325     1.212681946363     0.004989803593    12.000000000000
         C           -2.372337968675     0.052307746363    -0.092360496407    12.000000000000
         H            1.777728031325    -2.174377253637     0.007273503593     1.007825032230
         H            1.820997031325     2.146620746363     0.005877503593     1.007825032230
         H           -3.891594968675    -0.451285253637     0.890945503593     1.007825032230

  Basis Set: AUG-CC-PVTZ
    Blend: AUG-CC-PVTZ
  Basis Set: (AUG-CC-PVTZ AUX)
    Blend: AUG-CC-PVTZ-JKFIT
	 Reference Energy          =   -1029.0371848477161620 [Eh]
	 Singles Energy            =      -0.0000000000000000 [Eh]
	 Same-Spin Energy          =      -1.0498671429976050 [Eh]
	 Opposite-Spin Energy      =      -2.9510246049449780 [Eh]
	 Correlation Energy        =      -4.0008917479425827 [Eh]
	 Total Energy              =   -1033.0380765956588220 [Eh]

	 ================> DF-SCS-MP2 Energies <==================
	-----------------------------------------------------------
	 SCS Same-Spin Scale       =       0.3333333333333333 [-]
	 SCS Opposite-Spin Scale   =       1.2000000000000000 [-]
	 SCS Same-Spin Energy      =      -0.3499557143325350 [Eh]
	 SCS Opposite-Spin Energy  =      -3.5412295259339737 [Eh]
	 SCS Correlation Energy    =      -3.8911852402665086 [Eh]
	 SCS Total Energy          =   -1032.9283700879825574 [Eh]
	-----------------------------------------------------------

  Dipole Moment: [D]
     X:    -0.2122      Y:    -0.6007      Z:     1.1970     Total:     1.3560

*** Psi4 exiting successfully. Buy a developer a beer!
