                               Psi4 1.4a3.dev225

  ==> Input File <==

--------------------------------------------------------------------------
#psi4
#
memory 32 gb

molecule  {
0 1
  O       -2.9128620    -0.4781290     1.0138340
  O       -2.9681190     0.5148030    -1.0434710
  O       -0.3129680    -3.4309860     0.4641560
  O       -0.2589710     3.4469300    -0.4801560
  O       -1.9011930    -2.4818550    -0.7520780
  O       -1.8407060     2.5208330     0.7644950
  O        3.9597560    -1.1388570    -0.0240200
  O        3.9819620     1.0692260     0.0429750
  N       -0.8439190    -2.4637400    -0.1025570
  N       -0.7967020     2.4883090     0.0943390
  N        3.4069750    -0.0290830     0.0068360
  C       -0.8642630     0.0144850    -0.0118450
  C       -0.1342560    -1.1768520    -0.0236930
  C       -0.1092970     1.1902470     0.0051550
  C        1.9306090    -0.0137700    -0.0002960
  C        1.2541590    -1.2264030    -0.0035910
  C        1.2788880     1.2129500     0.0017720
  C       -2.3584256     0.0621177    -0.1123035
  H        1.7835260    -2.1724740     0.0038120
  H        1.8267950     2.1485240     0.0024160
  H       -3.8857970    -0.4493820     0.8874840
units angstrom
no_reorient  #important for SAPT in psi4, default
symmetry c1  #important for SAPT in psi4, default
}

set PROPERTIES_ORIGIN ["COM"]
properties('MP2/aug-cc-pvtz', properties = ['dipole'])
--------------------------------------------------------------------------

    Molecular point group: c1
  Charge       = 0
  Multiplicity = 1
  Basis Set: AUG-CC-PVTZ
    Blend: AUG-CC-PVTZ
  Basis Set: (AUG-CC-PVTZ AUX)
    Blend: AUG-CC-PVTZ-JKFIT

    Orbital Energies [Eh]
    ---------------------

    Doubly Occupied:

       1A    -20.652722     2A    -20.652568     3A    -20.651781
       4A    -20.651047     5A    -20.650982     6A    -20.650681
       7A    -20.650570     8A    -20.599212     9A    -15.902834
      10A    -15.902412    11A    -15.900622    12A    -11.451510
      13A    -11.387374    14A    -11.386033    15A    -11.380834
      16A    -11.376219    17A    -11.356370    18A    -11.356062
      19A     -1.636620    20A     -1.635175    21A     -1.634242
      22A     -1.501616    23A     -1.436696    24A     -1.435156
      25A     -1.434688    26A     -1.407590    27A     -1.291171
      28A     -1.185183    29A     -1.181872    30A     -1.057707
      31A     -1.036207    32A     -1.028605    33A     -0.922331
      34A     -0.884228    35A     -0.870527    36A     -0.836775
      37A     -0.803429    38A     -0.790127    39A     -0.788773
      40A     -0.775453    41A     -0.765536    42A     -0.763501
      43A     -0.757639    44A     -0.753856    45A     -0.745682
      46A     -0.740562    47A     -0.716324    48A     -0.691635
      49A     -0.664649    50A     -0.646183    51A     -0.632275
      52A     -0.608190    53A     -0.555672    54A     -0.550110
      55A     -0.544081    56A     -0.540517    57A     -0.536533
      58A     -0.534836    59A     -0.525237    60A     -0.510289
      61A     -0.494299    62A     -0.492053    63A     -0.487858
      64A     -0.448526    65A     -0.446523

  @DF-RHF Final Energy: -1029.04916234832649

   => Energetics <=

    Nuclear Repulsion Energy =           1345.9082625085150084
    One-Electron Energy =               -4083.3417102356561372
    Two-Electron Energy =                1708.3842853788148659
    Total Energy =                      -1029.0491623483264902
  Basis Set: (AUG-CC-PVTZ AUX)
    Blend: AUG-CC-PVTZ-RI
    Molecular point group: c1

    Geometry (in Angstrom), charge = 0, multiplicity = 1:

       Center              X                  Y                   Z               Mass
    ------------   -----------------  -----------------  -----------------  -----------------
         O           -2.914370096851    -0.480325095421     1.018053712368    15.994914619570
         O           -2.969627096851     0.512606904579    -1.039251287632    15.994914619570
         O           -0.314476096851    -3.433182095421     0.468375712368    15.994914619570
         O           -0.260479096851     3.444733904579    -0.475936287632    15.994914619570
         O           -1.902701096851    -2.484051095421    -0.747858287632    15.994914619570
         O           -1.842214096851     2.518636904579     0.768714712368    15.994914619570
         O            3.958247903149    -1.141053095421    -0.019800287632    15.994914619570
         O            3.980453903149     1.067029904579     0.047194712368    15.994914619570
         N           -0.845427096851    -2.465936095421    -0.098337287632    14.003074004430
         N           -0.798210096851     2.486112904579     0.098558712368    14.003074004430
         N            3.405466903149    -0.031279095421     0.011055712368    14.003074004430
         C           -0.865771096851     0.012288904579    -0.007625287632    12.000000000000
         C           -0.135764096851    -1.179048095421    -0.019473287632    12.000000000000
         C           -0.110805096851     1.188050904579     0.009374712368    12.000000000000
         C            1.929100903149    -0.015966095421     0.003923712368    12.000000000000
         C            1.252650903149    -1.228599095421     0.000628712368    12.000000000000
         C            1.277379903149     1.210753904579     0.005991712368    12.000000000000
         C           -2.359933696851     0.059921604579    -0.108083787632    12.000000000000
         H            1.782017903149    -2.174670095421     0.008031712368     1.007825032230
         H            1.825286903149     2.146327904579     0.006635712368     1.007825032230
         H           -3.887305096851    -0.451578095421     0.891703712368     1.007825032230

  Basis Set: AUG-CC-PVTZ
    Blend: AUG-CC-PVTZ
  Basis Set: (AUG-CC-PVTZ AUX)
    Blend: AUG-CC-PVTZ-JKFIT
	 Reference Energy          =   -1029.0491623483264902 [Eh]
	 Singles Energy            =      -0.0000000000000000 [Eh]
	 Same-Spin Energy          =      -1.0499111274040378 [Eh]
	 Opposite-Spin Energy      =      -2.9503849254480561 [Eh]
	 Correlation Energy        =      -4.0002960528520939 [Eh]
	 Total Energy              =   -1033.0494584011785264 [Eh]

	 ================> DF-SCS-MP2 Energies <==================
	-----------------------------------------------------------
	 SCS Same-Spin Scale       =       0.3333333333333333 [-]
	 SCS Opposite-Spin Scale   =       1.2000000000000000 [-]
	 SCS Same-Spin Energy      =      -0.3499703758013459 [Eh]
	 SCS Opposite-Spin Energy  =      -3.5404619105376671 [Eh]
	 SCS Correlation Energy    =      -3.8904322863390131 [Eh]
	 SCS Total Energy          =   -1032.9395946346655819 [Eh]
	-----------------------------------------------------------

  Dipole Moment: [D]
     X:    -0.0501      Y:    -0.5596      Z:     1.0562     Total:     1.1963

*** Psi4 exiting successfully. Buy a developer a beer!
