                               Psi4 1.4a3.dev225

  ==> Input File <==

--------------------------------------------------------------------------
#psi4
#
memory 32 gb

molecule  {
0 1
  O       -2.9128620    -0.4781290     1.0138340
  O       -2.9681190     0.5148030    -1.0434710
  O       -0.3129680    -3.4309860     0.4641560
  O       -0.2589710     3.4469300    -0.4801560
  O       -1.9011930    -2.4818550    -0.7520780
  O       -1.8407060     2.5208330     0.7644950
  O        3.9597560    -1.1388570    -0.0240200
  O        3.9819620     1.0692260     0.0429750
  N       -0.8884258    -2.4381089    -0.1035721
  N       -0.7967020     2.4883090     0.0943390
  N        3.4069750    -0.0290830     0.0068360
  C       -0.8642630     0.0144850    -0.0118450
  C       -0.1342560    -1.1768520    -0.0236930
  C       -0.1092970     1.1902470     0.0051550
  C        1.9306090    -0.0137700    -0.0002960
  C        1.2541590    -1.2264030    -0.0035910
  C        1.2788880     1.2129500     0.0017720
  C       -2.3665400     0.0542110    -0.0958220
  H        1.7835260    -2.1724740     0.0038120
  H        1.8267950     2.1485240     0.0024160
  H       -3.8857970    -0.4493820     0.8874840
units angstrom
no_reorient  #important for SAPT in psi4, default
symmetry c1  #important for SAPT in psi4, default
}

set PROPERTIES_ORIGIN ["COM"]
properties('MP2/aug-cc-pvtz', properties = ['dipole'])
--------------------------------------------------------------------------

    Molecular point group: c1
  Charge       = 0
  Multiplicity = 1
  Basis Set: AUG-CC-PVTZ
    Blend: AUG-CC-PVTZ
  Basis Set: (AUG-CC-PVTZ AUX)
    Blend: AUG-CC-PVTZ-JKFIT

    Orbital Energies [Eh]
    ---------------------

    Doubly Occupied:

       1A    -20.668897     2A    -20.660404     3A    -20.650458
       4A    -20.650427     5A    -20.650396     6A    -20.650253
       7A    -20.636001     8A    -20.598513     9A    -15.901931
      10A    -15.901916    11A    -15.900250    12A    -11.454608
      13A    -11.386748    14A    -11.385276    15A    -11.380296
      16A    -11.375399    17A    -11.356322    18A    -11.355667
      19A     -1.645067    20A     -1.634634    21A     -1.633909
      22A     -1.508749    23A     -1.434642    24A     -1.434454
      25A     -1.428778    26A     -1.408259    27A     -1.290449
      28A     -1.185375    29A     -1.180498    30A     -1.055246
      31A     -1.036698    32A     -1.029279    33A     -0.925487
      34A     -0.884459    35A     -0.871433    36A     -0.837942
      37A     -0.802965    38A     -0.791901    39A     -0.787862
      40A     -0.779349    41A     -0.766554    42A     -0.763681
      43A     -0.757510    44A     -0.753983    45A     -0.747118
      46A     -0.743578    47A     -0.715462    48A     -0.692119
      49A     -0.669792    50A     -0.646667    51A     -0.631780
      52A     -0.608620    53A     -0.557078    54A     -0.546918
      55A     -0.545175    56A     -0.539950    57A     -0.536239
      58A     -0.531035    59A     -0.523769    60A     -0.511362
      61A     -0.493729    62A     -0.491065    63A     -0.487505
      64A     -0.448113    65A     -0.445440

  @DF-RHF Final Energy: -1029.04610334865583

   => Energetics <=

    Nuclear Repulsion Energy =           1346.1592824550637033
    One-Electron Energy =               -4083.7998952466969058
    Two-Electron Energy =                1708.5945094429775963
    Total Energy =                      -1029.0461033486558335
  Basis Set: (AUG-CC-PVTZ AUX)
    Blend: AUG-CC-PVTZ-RI
    Molecular point group: c1

    Geometry (in Angstrom), charge = 0, multiplicity = 1:

       Center              X                  Y                   Z               Mass
    ------------   -----------------  -----------------  -----------------  -----------------
         O           -2.911566099938    -0.481352496180     1.017339435388    15.994914619570
         O           -2.966823099938     0.511579503820    -1.039965564612    15.994914619570
         O           -0.311672099938    -3.434209496180     0.467661435388    15.994914619570
         O           -0.257675099938     3.443706503820    -0.476650564612    15.994914619570
         O           -1.899897099938    -2.485078496180    -0.748572564612    15.994914619570
         O           -1.839410099938     2.517609503820     0.768000435388    15.994914619570
         O            3.961051900062    -1.142080496180    -0.020514564612    15.994914619570
         O            3.983257900062     1.066002503820     0.046480435388    15.994914619570
         N           -0.887129899938    -2.441332396180    -0.100066664612    14.003074004430
         N           -0.795406099938     2.485085503820     0.097844435388    14.003074004430
         N            3.408270900062    -0.032306496180     0.010341435388    14.003074004430
         C           -0.862967099938     0.011261503820    -0.008339564612    12.000000000000
         C           -0.132960099938    -1.180075496180    -0.020187564612    12.000000000000
         C           -0.108001099938     1.187023503820     0.008660435388    12.000000000000
         C            1.931904900062    -0.016993496180     0.003209435388    12.000000000000
         C            1.255454900062    -1.229626496180    -0.000085564612    12.000000000000
         C            1.280183900062     1.209726503820     0.005277435388    12.000000000000
         C           -2.365244099938     0.050987503820    -0.092316564612    12.000000000000
         H            1.784821900062    -2.175697496180     0.007317435388     1.007825032230
         H            1.828090900062     2.145300503820     0.005921435388     1.007825032230
         H           -3.884501099938    -0.452605496180     0.890989435388     1.007825032230

  Basis Set: AUG-CC-PVTZ
    Blend: AUG-CC-PVTZ
  Basis Set: (AUG-CC-PVTZ AUX)
    Blend: AUG-CC-PVTZ-JKFIT
	 Reference Energy          =   -1029.0461033486558335 [Eh]
	 Singles Energy            =      -0.0000000000000000 [Eh]
	 Same-Spin Energy          =      -1.0497794422987545 [Eh]
	 Opposite-Spin Energy      =      -2.9499336265541758 [Eh]
	 Correlation Energy        =      -3.9997130688529303 [Eh]
	 Total Energy              =   -1033.0458164175088314 [Eh]

	 ================> DF-SCS-MP2 Energies <==================
	-----------------------------------------------------------
	 SCS Same-Spin Scale       =       0.3333333333333333 [-]
	 SCS Opposite-Spin Scale   =       1.2000000000000000 [-]
	 SCS Same-Spin Energy      =      -0.3499264807662515 [Eh]
	 SCS Opposite-Spin Energy  =      -3.5399203518650109 [Eh]
	 SCS Correlation Energy    =      -3.8898468326312625 [Eh]
	 SCS Total Energy          =   -1032.9359501812871258 [Eh]
	-----------------------------------------------------------

  Dipole Moment: [D]
     X:    -0.2583      Y:    -0.5169      Z:     1.0957     Total:     1.2387

*** Psi4 exiting successfully. Buy a developer a beer!
