                               Psi4 1.4a3.dev225

  ==> Input File <==

--------------------------------------------------------------------------
#psi4
#
memory 32 gb

molecule  {
0 1
  O       -2.9128620    -0.4781290     1.0138340
  O       -2.9681190     0.5148030    -1.0434710
  O       -0.3129680    -3.4309860     0.4641560
  O       -0.2589710     3.4469300    -0.4801560
  O       -1.9011930    -2.4818550    -0.7520780
  O       -1.8407060     2.5208330     0.7644950
  O        4.0358521    -1.0976225    -0.0223911
  O        3.9819620     1.0692260     0.0429750
  N       -0.8439190    -2.4637400    -0.1025570
  N       -0.7967020     2.4883090     0.0943390
  N        3.4069750    -0.0290830     0.0068360
  C       -0.8642630     0.0144850    -0.0118450
  C       -0.1342560    -1.1768520    -0.0236930
  C       -0.1092970     1.1902470     0.0051550
  C        1.9306090    -0.0137700    -0.0002960
  C        1.2541590    -1.2264030    -0.0035910
  C        1.2788880     1.2129500     0.0017720
  C       -2.3665400     0.0542110    -0.0958220
  H        1.7835260    -2.1724740     0.0038120
  H        1.8267950     2.1485240     0.0024160
  H       -3.8857970    -0.4493820     0.8874840
units angstrom
no_reorient  #important for SAPT in psi4, default
symmetry c1  #important for SAPT in psi4, default
}

set PROPERTIES_ORIGIN ["COM"]
properties('MP2/aug-cc-pvtz', properties = ['dipole'])
--------------------------------------------------------------------------

    Molecular point group: c1
  Charge       = 0
  Multiplicity = 1
  Basis Set: AUG-CC-PVTZ
    Blend: AUG-CC-PVTZ
  Basis Set: (AUG-CC-PVTZ AUX)
    Blend: AUG-CC-PVTZ-JKFIT

    Orbital Energies [Eh]
    ---------------------

    Doubly Occupied:

       1A    -20.658652     2A    -20.653875     3A    -20.653664
       4A    -20.651195     5A    -20.651029     6A    -20.647009
       7A    -20.644682     8A    -20.597120     9A    -15.903958
      10A    -15.901174    11A    -15.899329    12A    -11.453723
      13A    -11.388303    14A    -11.387011    15A    -11.383691
      16A    -11.377681    17A    -11.358378    18A    -11.357775
      19A     -1.637775    20A     -1.634734    21A     -1.633973
      22A     -1.507211    23A     -1.437831    24A     -1.435231
      25A     -1.425372    26A     -1.406770    27A     -1.292542
      28A     -1.187298    29A     -1.182939    30A     -1.058226
      31A     -1.037718    32A     -1.029891    33A     -0.924774
      34A     -0.885028    35A     -0.871530    36A     -0.835772
      37A     -0.803699    38A     -0.790939    39A     -0.788881
      40A     -0.778767    41A     -0.766874    42A     -0.764211
      43A     -0.754418    44A     -0.751190    45A     -0.746660
      46A     -0.742474    47A     -0.716501    48A     -0.693316
      49A     -0.668809    50A     -0.647877    51A     -0.631105
      52A     -0.610016    53A     -0.557016    54A     -0.550987
      55A     -0.544336    56A     -0.538289    57A     -0.537350
      58A     -0.531018    59A     -0.523425    60A     -0.510377
      61A     -0.493310    62A     -0.488453    63A     -0.487770
      64A     -0.449397    65A     -0.447767

  @DF-RHF Final Energy: -1029.04825374484153

   => Energetics <=

    Nuclear Repulsion Energy =           1344.7589759860420600
    One-Electron Energy =               -4080.9982688707459602
    Two-Electron Energy =                1707.1910391398623688
    Total Energy =                      -1029.0482537448415314
  Basis Set: (AUG-CC-PVTZ AUX)
    Blend: AUG-CC-PVTZ-RI
    Molecular point group: c1

    Geometry (in Angstrom), charge = 0, multiplicity = 1:

       Center              X                  Y                   Z               Mass
    ------------   -----------------  -----------------  -----------------  -----------------
         O           -2.918727344396    -0.482522291739     1.017182743216    15.994914619570
         O           -2.973984344396     0.510409708261    -1.040122256784    15.994914619570
         O           -0.318833344396    -3.435379291739     0.467504743216    15.994914619570
         O           -0.264836344396     3.442536708261    -0.476807256784    15.994914619570
         O           -1.907058344396    -2.486248291739    -0.748729256784    15.994914619570
         O           -1.846571344396     2.516439708261     0.767843743216    15.994914619570
         O            4.029986755604    -1.102015791739    -0.019042356784    15.994914619570
         O            3.976096655604     1.064832708261     0.046323743216    15.994914619570
         N           -0.849784344396    -2.468133291739    -0.099208256784    14.003074004430
         N           -0.802567344396     2.483915708261     0.097687743216    14.003074004430
         N            3.401109655604    -0.033476291739     0.010184743216    14.003074004430
         C           -0.870128344396     0.010091708261    -0.008496256784    12.000000000000
         C           -0.140121344396    -1.181245291739    -0.020344256784    12.000000000000
         C           -0.115162344396     1.185853708261     0.008503743216    12.000000000000
         C            1.924743655604    -0.018163291739     0.003052743216    12.000000000000
         C            1.248293655604    -1.230796291739    -0.000242256784    12.000000000000
         C            1.273022655604     1.208556708261     0.005120743216    12.000000000000
         C           -2.372405344396     0.049817708261    -0.092473256784    12.000000000000
         H            1.777660655604    -2.176867291739     0.007160743216     1.007825032230
         H            1.820929655604     2.144130708261     0.005764743216     1.007825032230
         H           -3.891662344396    -0.453775291739     0.890832743216     1.007825032230

  Basis Set: AUG-CC-PVTZ
    Blend: AUG-CC-PVTZ
  Basis Set: (AUG-CC-PVTZ AUX)
    Blend: AUG-CC-PVTZ-JKFIT
	 Reference Energy          =   -1029.0482537448415314 [Eh]
	 Singles Energy            =      -0.0000000000000000 [Eh]
	 Same-Spin Energy          =      -1.0497329289058619 [Eh]
	 Opposite-Spin Energy      =      -2.9500924362740193 [Eh]
	 Correlation Energy        =      -3.9998253651798814 [Eh]
	 Total Energy              =   -1033.0480791100214901 [Eh]

	 ================> DF-SCS-MP2 Energies <==================
	-----------------------------------------------------------
	 SCS Same-Spin Scale       =       0.3333333333333333 [-]
	 SCS Opposite-Spin Scale   =       1.2000000000000000 [-]
	 SCS Same-Spin Energy      =      -0.3499109763019539 [Eh]
	 SCS Opposite-Spin Energy  =      -3.5401109235288231 [Eh]
	 SCS Correlation Energy    =      -3.8900218998307770 [Eh]
	 SCS Total Energy          =   -1032.9382756446723306 [Eh]
	-----------------------------------------------------------

  Dipole Moment: [D]
     X:    -0.3817      Y:    -0.6511      Z:     1.1871     Total:     1.4068

*** Psi4 exiting successfully. Buy a developer a beer!
