                               Psi4 1.4a3.dev225

  ==> Input File <==

--------------------------------------------------------------------------
#psi4
#
memory 32 gb

molecule  {
0 1
  O       -2.9128620    -0.4781290     1.0138340
  O       -2.9681190     0.5148030    -1.0434710
  O       -0.3129680    -3.4309860     0.4641560
  O       -0.2589710     3.4469300    -0.4801560
  O       -1.9011930    -2.4818550    -0.7520780
  O       -1.8407060     2.5208330     0.7644950
  O        3.9597560    -1.1388570    -0.0240200
  O        3.9819620     1.0692260     0.0429750
  N       -0.8439190    -2.4637400    -0.1025570
  N       -0.7967020     2.4883090     0.0943390
  N        3.3980607    -0.0111864     0.0073336
  C       -0.8642630     0.0144850    -0.0118450
  C       -0.1342560    -1.1768520    -0.0236930
  C       -0.1092970     1.1902470     0.0051550
  C        1.9306090    -0.0137700    -0.0002960
  C        1.2541590    -1.2264030    -0.0035910
  C        1.2788880     1.2129500     0.0017720
  C       -2.3665400     0.0542110    -0.0958220
  H        1.7835260    -2.1724740     0.0038120
  H        1.8267950     2.1485240     0.0024160
  H       -3.8857970    -0.4493820     0.8874840
units angstrom
no_reorient  #important for SAPT in psi4, default
symmetry c1  #important for SAPT in psi4, default
}

set PROPERTIES_ORIGIN ["COM"]
properties('MP2/aug-cc-pvtz', properties = ['dipole'])
--------------------------------------------------------------------------

    Molecular point group: c1
  Charge       = 0
  Multiplicity = 1
  Basis Set: AUG-CC-PVTZ
    Blend: AUG-CC-PVTZ
  Basis Set: (AUG-CC-PVTZ AUX)
    Blend: AUG-CC-PVTZ-JKFIT

    Orbital Energies [Eh]
    ---------------------

    Doubly Occupied:

       1A    -20.657997     2A    -20.656934     3A    -20.652942
       4A    -20.652716     5A    -20.650556     6A    -20.650415
       7A    -20.643418     8A    -20.596398     9A    -15.903022
      10A    -15.901419    11A    -15.900465    12A    -11.452971
      13A    -11.386999    14A    -11.385791    15A    -11.380335
      16A    -11.376596    17A    -11.356651    18A    -11.356190
      19A     -1.636833    20A     -1.634102    21A     -1.633058
      22A     -1.506530    23A     -1.436897    24A     -1.434632
      25A     -1.429483    26A     -1.406083    27A     -1.291203
      28A     -1.186482    29A     -1.181718    30A     -1.057630
      31A     -1.037714    32A     -1.028521    33A     -0.924590
      34A     -0.884265    35A     -0.871252    36A     -0.837064
      37A     -0.803364    38A     -0.790593    39A     -0.788163
      40A     -0.777790    41A     -0.766071    42A     -0.763541
      43A     -0.756112    44A     -0.752452    45A     -0.745926
      46A     -0.741764    47A     -0.715972    48A     -0.691717
      49A     -0.667932    50A     -0.646728    51A     -0.630248
      52A     -0.608610    53A     -0.556015    54A     -0.550204
      55A     -0.543856    56A     -0.539977    57A     -0.537097
      58A     -0.533454    59A     -0.522739    60A     -0.509594
      61A     -0.492475    62A     -0.492325    63A     -0.487327
      64A     -0.448283    65A     -0.446149

  @DF-RHF Final Energy: -1029.04789835605902

   => Energetics <=

    Nuclear Repulsion Energy =           1345.9262444177988982
    One-Electron Energy =               -4083.3755830832451466
    Two-Electron Energy =                1708.4014403093872261
    Total Energy =                      -1029.0478983560590223
  Basis Set: (AUG-CC-PVTZ AUX)
    Blend: AUG-CC-PVTZ-RI
    Molecular point group: c1

    Geometry (in Angstrom), charge = 0, multiplicity = 1:

       Center              X                  Y                   Z               Mass
    ------------   -----------------  -----------------  -----------------  -----------------
         O           -2.913505476978    -0.480931055940     1.017257010842    15.994914619570
         O           -2.968762476978     0.512000944060    -1.040047989158    15.994914619570
         O           -0.313611476978    -3.433788055940     0.467579010842    15.994914619570
         O           -0.259614476978     3.444127944060    -0.476732989158    15.994914619570
         O           -1.901836476978    -2.484657055940    -0.748654989158    15.994914619570
         O           -1.841349476978     2.518030944060     0.767918010842    15.994914619570
         O            3.959112523022    -1.141659055940    -0.020596989158    15.994914619570
         O            3.981318523022     1.066423944060     0.046398010842    15.994914619570
         N           -0.844562476978    -2.466542055940    -0.099133989158    14.003074004430
         N           -0.797345476978     2.485506944060     0.097762010842    14.003074004430
         N            3.397417223022    -0.013988455940     0.010756610842    14.003074004430
         C           -0.864906476978     0.011682944060    -0.008421989158    12.000000000000
         C           -0.134899476978    -1.179654055940    -0.020269989158    12.000000000000
         C           -0.109940476978     1.187444944060     0.008578010842    12.000000000000
         C            1.929965523022    -0.016572055940     0.003127010842    12.000000000000
         C            1.253515523022    -1.229205055940    -0.000167989158    12.000000000000
         C            1.278244523022     1.210147944060     0.005195010842    12.000000000000
         C           -2.367183476978     0.051408944060    -0.092398989158    12.000000000000
         H            1.782882523022    -2.175276055940     0.007235010842     1.007825032230
         H            1.826151523022     2.145721944060     0.005839010842     1.007825032230
         H           -3.886440476978    -0.452184055940     0.890907010842     1.007825032230

  Basis Set: AUG-CC-PVTZ
    Blend: AUG-CC-PVTZ
  Basis Set: (AUG-CC-PVTZ AUX)
    Blend: AUG-CC-PVTZ-JKFIT
	 Reference Energy          =   -1029.0478983560590223 [Eh]
	 Singles Energy            =      -0.0000000000000000 [Eh]
	 Same-Spin Energy          =      -1.0501694702966005 [Eh]
	 Opposite-Spin Energy      =      -2.9507759849871240 [Eh]
	 Correlation Energy        =      -4.0009454552837243 [Eh]
	 Total Energy              =   -1033.0488438113427492 [Eh]

	 ================> DF-SCS-MP2 Energies <==================
	-----------------------------------------------------------
	 SCS Same-Spin Scale       =       0.3333333333333333 [-]
	 SCS Opposite-Spin Scale   =       1.2000000000000000 [-]
	 SCS Same-Spin Energy      =      -0.3500564900988668 [Eh]
	 SCS Opposite-Spin Energy  =      -3.5409311819845488 [Eh]
	 SCS Correlation Energy    =      -3.8909876720834156 [Eh]
	 SCS Total Energy          =   -1032.9388860281424058 [Eh]
	-----------------------------------------------------------

  Dipole Moment: [D]
     X:    -0.1959      Y:    -0.5501      Z:     1.1931     Total:     1.3284

*** Psi4 exiting successfully. Buy a developer a beer!
