                               Psi4 1.4a3.dev225

  ==> Input File <==

--------------------------------------------------------------------------
#psi4
#
memory 32 gb

molecule  {
0 1
  O       -2.9128620    -0.4781290     1.0138340
  O       -2.9681190     0.5148030    -1.0434710
  O       -0.3129680    -3.4309860     0.4641560
  O       -0.2589710     3.4469300    -0.4801560
  O       -1.9011930    -2.4818550    -0.7520780
  O       -1.8407060     2.5208330     0.7644950
  O        3.9597560    -1.1388570    -0.0240200
  O        3.9819620     1.0692260     0.0429750
  N       -0.8439190    -2.4637400    -0.1025570
  N       -0.7967020     2.4883090     0.0943390
  N        3.4069750    -0.0290830     0.0068360
  C       -0.8642630     0.0144850    -0.0118450
  C       -0.1101458    -1.1331311    -0.0210137
  C       -0.1092970     1.1902470     0.0051550
  C        1.9306090    -0.0137700    -0.0002960
  C        1.2541590    -1.2264030    -0.0035910
  C        1.2788880     1.2129500     0.0017720
  C       -2.3665400     0.0542110    -0.0958220
  H        1.7835260    -2.1724740     0.0038120
  H        1.8267950     2.1485240     0.0024160
  H       -3.8857970    -0.4493820     0.8874840
units angstrom
no_reorient  #important for SAPT in psi4, default
symmetry c1  #important for SAPT in psi4, default
}

set PROPERTIES_ORIGIN ["COM"]
properties('MP2/aug-cc-pvtz', properties = ['dipole'])
--------------------------------------------------------------------------

    Molecular point group: c1
  Charge       = 0
  Multiplicity = 1
  Basis Set: AUG-CC-PVTZ
    Blend: AUG-CC-PVTZ
  Basis Set: (AUG-CC-PVTZ AUX)
    Blend: AUG-CC-PVTZ-JKFIT

    Orbital Energies [Eh]
    ---------------------

    Doubly Occupied:

       1A    -20.658063     2A    -20.651873     3A    -20.651566
       4A    -20.651015     5A    -20.650948     6A    -20.650337
       7A    -20.650238     8A    -20.596758     9A    -15.902038
      10A    -15.900309    11A    -15.900017    12A    -11.454008
      13A    -11.386471    14A    -11.386096    15A    -11.380938
      16A    -11.372990    17A    -11.354209    18A    -11.353220
      19A     -1.635096    20A     -1.633844    21A     -1.631469
      22A     -1.506663    23A     -1.435085    24A     -1.434444
      25A     -1.434116    26A     -1.406320    27A     -1.295064
      28A     -1.185526    29A     -1.178170    30A     -1.056988
      31A     -1.033369    32A     -1.023087    33A     -0.926813
      34A     -0.883814    35A     -0.872169    36A     -0.836903
      37A     -0.802974    38A     -0.788678    39A     -0.786398
      40A     -0.776423    41A     -0.764534    42A     -0.761634
      43A     -0.757326    44A     -0.753307    45A     -0.745653
      46A     -0.740182    47A     -0.718339    48A     -0.695435
      49A     -0.667849    50A     -0.648375    51A     -0.631549
      52A     -0.612828    53A     -0.554367    54A     -0.548984
      55A     -0.543458    56A     -0.540578    57A     -0.535173
      58A     -0.532136    59A     -0.521327    60A     -0.510046
      61A     -0.494221    62A     -0.491036    63A     -0.487059
      64A     -0.450645    65A     -0.447244

  @DF-RHF Final Energy: -1029.04642127305101

   => Energetics <=

    Nuclear Repulsion Energy =           1346.0726076613095756
    One-Electron Energy =               -4083.7024760406147834
    Two-Electron Energy =                1708.5834471062541979
    Total Energy =                      -1029.0464212730510098
  Basis Set: (AUG-CC-PVTZ AUX)
    Blend: AUG-CC-PVTZ-RI
    Molecular point group: c1

    Geometry (in Angstrom), charge = 0, multiplicity = 1:

       Center              X                  Y                   Z               Mass
    ------------   -----------------  -----------------  -----------------  -----------------
         O           -2.915117005663    -0.481997405752     1.017159016862    15.994914619570
         O           -2.970374005663     0.510934594248    -1.040145983138    15.994914619570
         O           -0.315223005663    -3.434854405752     0.467481016862    15.994914619570
         O           -0.261226005663     3.443061594248    -0.476830983138    15.994914619570
         O           -1.903448005663    -2.485723405752    -0.748752983138    15.994914619570
         O           -1.842961005663     2.516964594248     0.767820016862    15.994914619570
         O            3.957500994337    -1.142725405752    -0.020694983138    15.994914619570
         O            3.979706994337     1.065357594248     0.046300016862    15.994914619570
         N           -0.846174005663    -2.467608405752    -0.099231983138    14.003074004430
         N           -0.798957005663     2.484440594248     0.097664016862    14.003074004430
         N            3.404719994337    -0.032951405752     0.010161016862    14.003074004430
         C           -0.866518005663     0.010616594248    -0.008519983138    12.000000000000
         C           -0.112400805663    -1.136999505752    -0.017688683138    12.000000000000
         C           -0.111552005663     1.186378594248     0.008480016862    12.000000000000
         C            1.928353994337    -0.017638405752     0.003029016862    12.000000000000
         C            1.251903994337    -1.230271405752    -0.000265983138    12.000000000000
         C            1.276632994337     1.209081594248     0.005097016862    12.000000000000
         C           -2.368795005663     0.050342594248    -0.092496983138    12.000000000000
         H            1.781270994337    -2.176342405752     0.007137016862     1.007825032230
         H            1.824539994337     2.144655594248     0.005741016862     1.007825032230
         H           -3.888052005663    -0.453250405752     0.890809016862     1.007825032230

  Basis Set: AUG-CC-PVTZ
    Blend: AUG-CC-PVTZ
  Basis Set: (AUG-CC-PVTZ AUX)
    Blend: AUG-CC-PVTZ-JKFIT
	 Reference Energy          =   -1029.0464212730510098 [Eh]
	 Singles Energy            =      -0.0000000000000000 [Eh]
	 Same-Spin Energy          =      -1.0502332446308009 [Eh]
	 Opposite-Spin Energy      =      -2.9508181830142797 [Eh]
	 Correlation Energy        =      -4.0010514276450806 [Eh]
	 Total Energy              =   -1033.0474727006960620 [Eh]

	 ================> DF-SCS-MP2 Energies <==================
	-----------------------------------------------------------
	 SCS Same-Spin Scale       =       0.3333333333333333 [-]
	 SCS Opposite-Spin Scale   =       1.2000000000000000 [-]
	 SCS Same-Spin Energy      =      -0.3500777482102669 [Eh]
	 SCS Opposite-Spin Energy  =      -3.5409818196171354 [Eh]
	 SCS Correlation Energy    =      -3.8910595678274023 [Eh]
	 SCS Total Energy          =   -1032.9374808408783792 [Eh]
	-----------------------------------------------------------

  Dipole Moment: [D]
     X:    -0.1369      Y:    -0.5912      Z:     1.1911     Total:     1.3368

*** Psi4 exiting successfully. Buy a developer a beer!
