                               Psi4 1.4a3.dev225

  ==> Input File <==

--------------------------------------------------------------------------
#psi4
#
memory 32 gb

molecule  {
0 1
  O       -2.9128620    -0.4781290     1.0138340
  O       -2.9681190     0.5148030    -1.0434710
  O       -0.3129680    -3.4309860     0.4641560
  O       -0.2589710     3.4469300    -0.4801560
  O       -1.9011930    -2.4818550    -0.7520780
  O       -1.8407060     2.5208330     0.7644950
  O        3.9597560    -1.1388570    -0.0240200
  O        3.9819620     1.0692260     0.0429750
  N       -0.8439190    -2.4637400    -0.1025570
  N       -0.7967020     2.4883090     0.0943390
  N        3.4069750    -0.0290830     0.0068360
  C       -0.8642630     0.0144850    -0.0118450
  C       -0.1342560    -1.1768520    -0.0236930
  C       -0.1186396     1.2078892     0.0063671
  C        1.9306090    -0.0137700    -0.0002960
  C        1.2541590    -1.2264030    -0.0035910
  C        1.2788880     1.2129500     0.0017720
  C       -2.3665400     0.0542110    -0.0958220
  H        1.7835260    -2.1724740     0.0038120
  H        1.8267950     2.1485240     0.0024160
  H       -3.8857970    -0.4493820     0.8874840
units angstrom
no_reorient  #important for SAPT in psi4, default
symmetry c1  #important for SAPT in psi4, default
}

set PROPERTIES_ORIGIN ["COM"]
properties('MP2/aug-cc-pvtz', properties = ['dipole'])
--------------------------------------------------------------------------

    Molecular point group: c1
  Charge       = 0
  Multiplicity = 1
  Basis Set: AUG-CC-PVTZ
    Blend: AUG-CC-PVTZ
  Basis Set: (AUG-CC-PVTZ AUX)
    Blend: AUG-CC-PVTZ-JKFIT

    Orbital Energies [Eh]
    ---------------------

    Doubly Occupied:

       1A    -20.657513     2A    -20.652788     3A    -20.652563
       4A    -20.650609     5A    -20.650558     6A    -20.650376
       7A    -20.650250     8A    -20.595846     9A    -15.902942
      10A    -15.902133    11A    -15.900713    12A    -11.452152
      13A    -11.386524    14A    -11.385656    15A    -11.380105
      16A    -11.377292    17A    -11.356964    18A    -11.356675
      19A     -1.636739    20A     -1.635771    21A     -1.634753
      22A     -1.506040    23A     -1.436774    24A     -1.435158
      25A     -1.434739    26A     -1.405589    27A     -1.288946
      28A     -1.184579    29A     -1.182692    30A     -1.057275
      31A     -1.037077    32A     -1.029212    33A     -0.923280
      34A     -0.883762    35A     -0.870953    36A     -0.837282
      37A     -0.803381    38A     -0.790236    39A     -0.789990
      40A     -0.776963    41A     -0.766326    42A     -0.764115
      43A     -0.757414    44A     -0.753704    45A     -0.746653
      46A     -0.741528    47A     -0.715392    48A     -0.689931
      49A     -0.667577    50A     -0.645393    51A     -0.628824
      52A     -0.606830    53A     -0.555697    54A     -0.550165
      55A     -0.544760    56A     -0.540259    57A     -0.536456
      58A     -0.535688    59A     -0.522695    60A     -0.508945
      61A     -0.493961    62A     -0.492304    63A     -0.487313
      64A     -0.447446    65A     -0.444662

  @DF-RHF Final Energy: -1029.04908186377088

   => Energetics <=

    Nuclear Repulsion Energy =           1345.7302424239092034
    One-Electron Energy =               -4082.9848695466307618
    Two-Electron Energy =                1708.2055452589506785
    Total Energy =                      -1029.0490818637708799
  Basis Set: (AUG-CC-PVTZ AUX)
    Blend: AUG-CC-PVTZ-RI
    Molecular point group: c1

    Geometry (in Angstrom), charge = 0, multiplicity = 1:

       Center              X                  Y                   Z               Mass
    ------------   -----------------  -----------------  -----------------  -----------------
         O           -2.913554958681    -0.480779685423     1.017227526384    15.994914619570
         O           -2.968811958681     0.512152314577    -1.040077473616    15.994914619570
         O           -0.313660958681    -3.433636685423     0.467549526384    15.994914619570
         O           -0.259663958681     3.444279314577    -0.476762473616    15.994914619570
         O           -1.901885958681    -2.484505685423    -0.748684473616    15.994914619570
         O           -1.841398958681     2.518182314577     0.767888526384    15.994914619570
         O            3.959063041319    -1.141507685423    -0.020626473616    15.994914619570
         O            3.981269041319     1.066575314577     0.046368526384    15.994914619570
         N           -0.844611958681    -2.466390685423    -0.099163473616    14.003074004430
         N           -0.797394958681     2.485658314577     0.097732526384    14.003074004430
         N            3.406282041319    -0.031733685423     0.010229526384    14.003074004430
         C           -0.864955958681     0.011834314577    -0.008451473616    12.000000000000
         C           -0.134948958681    -1.179502685423    -0.020299473616    12.000000000000
         C           -0.119332558681     1.205238514577     0.009760626384    12.000000000000
         C            1.929916041319    -0.016420685423     0.003097526384    12.000000000000
         C            1.253466041319    -1.229053685423    -0.000197473616    12.000000000000
         C            1.278195041319     1.210299314577     0.005165526384    12.000000000000
         C           -2.367232958681     0.051560314577    -0.092428473616    12.000000000000
         H            1.782833041319    -2.175124685423     0.007205526384     1.007825032230
         H            1.826102041319     2.145873314577     0.005809526384     1.007825032230
         H           -3.886489958681    -0.452032685423     0.890877526384     1.007825032230

  Basis Set: AUG-CC-PVTZ
    Blend: AUG-CC-PVTZ
  Basis Set: (AUG-CC-PVTZ AUX)
    Blend: AUG-CC-PVTZ-JKFIT
	 Reference Energy          =   -1029.0490818637708799 [Eh]
	 Singles Energy            =      -0.0000000000000000 [Eh]
	 Same-Spin Energy          =      -1.0499616612528337 [Eh]
	 Opposite-Spin Energy      =      -2.9502267188237794 [Eh]
	 Correlation Energy        =      -4.0001883800766134 [Eh]
	 Total Energy              =   -1033.0492702438475590 [Eh]

	 ================> DF-SCS-MP2 Energies <==================
	-----------------------------------------------------------
	 SCS Same-Spin Scale       =       0.3333333333333333 [-]
	 SCS Opposite-Spin Scale   =       1.2000000000000000 [-]
	 SCS Same-Spin Energy      =      -0.3499872204176112 [Eh]
	 SCS Opposite-Spin Energy  =      -3.5402720625885351 [Eh]
	 SCS Correlation Energy    =      -3.8902592830061464 [Eh]
	 SCS Total Energy          =   -1032.9393411467769965 [Eh]
	-----------------------------------------------------------

  Dipole Moment: [D]
     X:    -0.1361      Y:    -0.6078      Z:     1.1917     Total:     1.3447

*** Psi4 exiting successfully. Buy a developer a beer!
