                               Psi4 1.4a3.dev225

  ==> Input File <==

--------------------------------------------------------------------------
#psi4
#
memory 32 gb

molecule  {
0 1
  O       -2.9128620    -0.4781290     1.0138340
  O       -2.9681190     0.5148030    -1.0434710
  O       -0.3129680    -3.4309860     0.4641560
  O       -0.2589710     3.4469300    -0.4801560
  O       -1.9011930    -2.4818550    -0.7520780
  O       -1.8407060     2.5208330     0.7644950
  O        3.9597560    -1.1388570    -0.0240200
  O        3.9819620     1.0692260     0.0429750
  N       -0.8865173    -2.4644699    -0.1287267
  N       -0.7967020     2.4883090     0.0943390
  N        3.4069750    -0.0290830     0.0068360
  C       -0.8642630     0.0144850    -0.0118450
  C       -0.1342560    -1.1768520    -0.0236930
  C       -0.1092970     1.1902470     0.0051550
  C        1.9306090    -0.0137700    -0.0002960
  C        1.2541590    -1.2264030    -0.0035910
  C        1.2788880     1.2129500     0.0017720
  C       -2.3665400     0.0542110    -0.0958220
  H        1.7835260    -2.1724740     0.0038120
  H        1.8267950     2.1485240     0.0024160
  H       -3.8857970    -0.4493820     0.8874840
units angstrom
no_reorient  #important for SAPT in psi4, default
symmetry c1  #important for SAPT in psi4, default
}

set PROPERTIES_ORIGIN ["COM"]
properties('MP2/aug-cc-pvtz', properties = ['dipole'])
--------------------------------------------------------------------------

    Molecular point group: c1
  Charge       = 0
  Multiplicity = 1
  Basis Set: AUG-CC-PVTZ
    Blend: AUG-CC-PVTZ
  Basis Set: (AUG-CC-PVTZ AUX)
    Blend: AUG-CC-PVTZ-JKFIT

    Orbital Energies [Eh]
    ---------------------

    Doubly Occupied:

       1A    -20.670271     2A    -20.660137     3A    -20.649850
       4A    -20.649806     5A    -20.649743     6A    -20.649674
       7A    -20.636515     8A    -20.598072     9A    -15.903287
      10A    -15.901210    11A    -15.899679    12A    -11.454048
      13A    -11.386232    14A    -11.384548    15A    -11.379370
      16A    -11.374266    17A    -11.354676    18A    -11.354274
      19A     -1.654796    20A     -1.633982    21A     -1.633328
      22A     -1.508399    23A     -1.438976    24A     -1.434023
      25A     -1.433845    26A     -1.407883    27A     -1.288658
      28A     -1.183322    29A     -1.176649    30A     -1.053562
      31A     -1.033086    32A     -1.026281    33A     -0.924720
      34A     -0.885384    35A     -0.870796    36A     -0.838245
      37A     -0.802361    38A     -0.792858    39A     -0.787276
      40A     -0.779126    41A     -0.769708    42A     -0.763783
      43A     -0.757792    44A     -0.753923    45A     -0.747502
      46A     -0.744788    47A     -0.716872    48A     -0.691511
      49A     -0.669039    50A     -0.646138    51A     -0.631322
      52A     -0.608440    53A     -0.556771    54A     -0.547571
      55A     -0.544943    56A     -0.539674    57A     -0.535214
      58A     -0.530627    59A     -0.522619    60A     -0.510808
      61A     -0.494890    62A     -0.493011    63A     -0.487007
      64A     -0.447134    65A     -0.444368

  @DF-RHF Final Energy: -1029.04861384193873

   => Energetics <=

    Nuclear Repulsion Energy =           1345.8069210497289987
    One-Electron Energy =               -4083.1137326610441960
    Two-Electron Energy =                1708.2581977693766930
    Total Energy =                      -1029.0486138419387316
  Basis Set: (AUG-CC-PVTZ AUX)
    Blend: AUG-CC-PVTZ-RI
    Molecular point group: c1

    Geometry (in Angstrom), charge = 0, multiplicity = 1:

       Center              X                  Y                   Z               Mass
    ------------   -----------------  -----------------  -----------------  -----------------
         O           -2.911670090978    -0.479916128458     1.018710068350    15.994914619570
         O           -2.966927090978     0.513015871542    -1.038594931650    15.994914619570
         O           -0.311776090978    -3.432773128458     0.469032068350    15.994914619570
         O           -0.257779090978     3.445142871542    -0.475279931650    15.994914619570
         O           -1.900001090978    -2.483642128458    -0.747201931650    15.994914619570
         O           -1.839514090978     2.519045871542     0.769371068350    15.994914619570
         O            3.960947909022    -1.140644128458    -0.019143931650    15.994914619570
         O            3.983153909022     1.067438871542     0.047851068350    15.994914619570
         N           -0.885325390978    -2.466257028458    -0.123850631650    14.003074004430
         N           -0.795510090978     2.486521871542     0.099215068350    14.003074004430
         N            3.408166909022    -0.030870128458     0.011712068350    14.003074004430
         C           -0.863071090978     0.012697871542    -0.006968931650    12.000000000000
         C           -0.133064090978    -1.178639128458    -0.018816931650    12.000000000000
         C           -0.108105090978     1.188459871542     0.010031068350    12.000000000000
         C            1.931800909022    -0.015557128458     0.004580068350    12.000000000000
         C            1.255350909022    -1.228190128458     0.001285068350    12.000000000000
         C            1.280079909022     1.211162871542     0.006648068350    12.000000000000
         C           -2.365348090978     0.052423871542    -0.090945931650    12.000000000000
         H            1.784717909022    -2.174261128458     0.008688068350     1.007825032230
         H            1.827986909022     2.146736871542     0.007292068350     1.007825032230
         H           -3.884605090978    -0.451169128458     0.892360068350     1.007825032230

  Basis Set: AUG-CC-PVTZ
    Blend: AUG-CC-PVTZ
  Basis Set: (AUG-CC-PVTZ AUX)
    Blend: AUG-CC-PVTZ-JKFIT
	 Reference Energy          =   -1029.0486138419387316 [Eh]
	 Singles Energy            =      -0.0000000000000000 [Eh]
	 Same-Spin Energy          =      -1.0490691668250063 [Eh]
	 Opposite-Spin Energy      =      -2.9481934747170451 [Eh]
	 Correlation Energy        =      -3.9972626415420516 [Eh]
	 Total Energy              =   -1033.0458764834806971 [Eh]

	 ================> DF-SCS-MP2 Energies <==================
	-----------------------------------------------------------
	 SCS Same-Spin Scale       =       0.3333333333333333 [-]
	 SCS Opposite-Spin Scale   =       1.2000000000000000 [-]
	 SCS Same-Spin Energy      =      -0.3496897222750021 [Eh]
	 SCS Opposite-Spin Energy  =      -3.5378321696604540 [Eh]
	 SCS Correlation Energy    =      -3.8875218919354562 [Eh]
	 SCS Total Energy          =   -1032.9361357338741527 [Eh]
	-----------------------------------------------------------

  Dipole Moment: [D]
     X:    -0.3302      Y:    -0.6353      Z:     1.0620     Total:     1.2808

*** Psi4 exiting successfully. Buy a developer a beer!
