                               Psi4 1.4a3.dev225

  ==> Input File <==

--------------------------------------------------------------------------
#psi4
#
memory 32 gb

molecule  {
0 1
  O       -2.9128620    -0.4781290     1.0138340
  O       -2.9681190     0.5148030    -1.0434710
  O       -0.3129680    -3.4309860     0.4641560
  O       -0.2589710     3.4469300    -0.4801560
  O       -1.9011930    -2.4818550    -0.7520780
  O       -1.8407060     2.5208330     0.7644950
  O        3.9206743    -1.1574583    -0.0247786
  O        3.9819620     1.0692260     0.0429750
  N       -0.8439190    -2.4637400    -0.1025570
  N       -0.7967020     2.4883090     0.0943390
  N        3.4069750    -0.0290830     0.0068360
  C       -0.8642630     0.0144850    -0.0118450
  C       -0.1342560    -1.1768520    -0.0236930
  C       -0.1092970     1.1902470     0.0051550
  C        1.9306090    -0.0137700    -0.0002960
  C        1.2541590    -1.2264030    -0.0035910
  C        1.2788880     1.2129500     0.0017720
  C       -2.3665400     0.0542110    -0.0958220
  H        1.7835260    -2.1724740     0.0038120
  H        1.8267950     2.1485240     0.0024160
  H       -3.8857970    -0.4493820     0.8874840
units angstrom
no_reorient  #important for SAPT in psi4, default
symmetry c1  #important for SAPT in psi4, default
}

set PROPERTIES_ORIGIN ["COM"]
properties('MP2/aug-cc-pvtz', properties = ['dipole'])
--------------------------------------------------------------------------

    Molecular point group: c1
  Charge       = 0
  Multiplicity = 1
  Basis Set: AUG-CC-PVTZ
    Blend: AUG-CC-PVTZ
  Basis Set: (AUG-CC-PVTZ AUX)
    Blend: AUG-CC-PVTZ-JKFIT

    Orbital Energies [Eh]
    ---------------------

    Doubly Occupied:

       1A    -20.657218     2A    -20.653647     3A    -20.652274
       4A    -20.652231     5A    -20.652033     6A    -20.649678
       7A    -20.649532     8A    -20.595508     9A    -15.903374
      10A    -15.902270    11A    -15.899568    12A    -11.452047
      13A    -11.385825    14A    -11.384637    15A    -11.378550
      16A    -11.375089    17A    -11.354752    18A    -11.354597
      19A     -1.636161    20A     -1.635366    21A     -1.633185
      22A     -1.505713    23A     -1.439384    24A     -1.436209
      25A     -1.433758    26A     -1.405249    27A     -1.289479
      28A     -1.182974    29A     -1.180563    30A     -1.055757
      31A     -1.034930    32A     -1.027297    33A     -0.924070
      34A     -0.883298    35A     -0.871006    36A     -0.837944
      37A     -0.802487    38A     -0.789612    39A     -0.788002
      40A     -0.776789    41A     -0.765642    42A     -0.762753
      43A     -0.758903    44A     -0.754818    45A     -0.745316
      46A     -0.740953    47A     -0.715700    48A     -0.690560
      49A     -0.667112    50A     -0.645508    51A     -0.629302
      52A     -0.607652    53A     -0.554620    54A     -0.549400
      55A     -0.546023    56A     -0.541478    57A     -0.535443
      58A     -0.533864    59A     -0.521942    60A     -0.508696
      61A     -0.496758    62A     -0.491807    63A     -0.486503
      64A     -0.446845    65A     -0.445069

  @DF-RHF Final Energy: -1029.04871456209162

   => Energetics <=

    Nuclear Repulsion Energy =           1346.4026744609675461
    One-Electron Energy =               -4084.3733126861261553
    Two-Electron Energy =                1708.9219236630672185
    Total Energy =                      -1029.0487145620916181
  Basis Set: (AUG-CC-PVTZ AUX)
    Blend: AUG-CC-PVTZ-RI
    Molecular point group: c1

    Geometry (in Angstrom), charge = 0, multiplicity = 1:

       Center              X                  Y                   Z               Mass
    ------------   -----------------  -----------------  -----------------  -----------------
         O           -2.911558798386    -0.478798174024     1.017331338723    15.994914619570
         O           -2.966815798386     0.514133825976    -1.039973661277    15.994914619570
         O           -0.311664798386    -3.431655174024     0.467653338723    15.994914619570
         O           -0.257667798386     3.446260825976    -0.476658661277    15.994914619570
         O           -1.899889798386    -2.482524174024    -0.748580661277    15.994914619570
         O           -1.839402798386     2.520163825976     0.767992338723    15.994914619570
         O            3.921977501614    -1.158127474024    -0.021281261277    15.994914619570
         O            3.983265201614     1.068556825976     0.046472338723    15.994914619570
         N           -0.842615798386    -2.464409174024    -0.099059661277    14.003074004430
         N           -0.795398798386     2.487639825976     0.097836338723    14.003074004430
         N            3.408278201614    -0.029752174024     0.010333338723    14.003074004430
         C           -0.862959798386     0.013815825976    -0.008347661277    12.000000000000
         C           -0.132952798386    -1.177521174024    -0.020195661277    12.000000000000
         C           -0.107993798386     1.189577825976     0.008652338723    12.000000000000
         C            1.931912201614    -0.014439174024     0.003201338723    12.000000000000
         C            1.255462201614    -1.227072174024    -0.000093661277    12.000000000000
         C            1.280191201614     1.212280825976     0.005269338723    12.000000000000
         C           -2.365236798386     0.053541825976    -0.092324661277    12.000000000000
         H            1.784829201614    -2.173143174024     0.007309338723     1.007825032230
         H            1.828098201614     2.147854825976     0.005913338723     1.007825032230
         H           -3.884493798386    -0.450051174024     0.890981338723     1.007825032230

  Basis Set: AUG-CC-PVTZ
    Blend: AUG-CC-PVTZ
  Basis Set: (AUG-CC-PVTZ AUX)
    Blend: AUG-CC-PVTZ-JKFIT
	 Reference Energy          =   -1029.0487145620916181 [Eh]
	 Singles Energy            =      -0.0000000000000000 [Eh]
	 Same-Spin Energy          =      -1.0501387279011112 [Eh]
	 Opposite-Spin Energy      =      -2.9504878193474990 [Eh]
	 Correlation Energy        =      -4.0006265472486104 [Eh]
	 Total Energy              =   -1033.0493411093402756 [Eh]

	 ================> DF-SCS-MP2 Energies <==================
	-----------------------------------------------------------
	 SCS Same-Spin Scale       =       0.3333333333333333 [-]
	 SCS Opposite-Spin Scale   =       1.2000000000000000 [-]
	 SCS Same-Spin Energy      =      -0.3500462426337037 [Eh]
	 SCS Opposite-Spin Energy  =      -3.5405853832169987 [Eh]
	 SCS Correlation Energy    =      -3.8906316258507023 [Eh]
	 SCS Total Energy          =   -1032.9393461879424194 [Eh]
	-----------------------------------------------------------

  Dipole Moment: [D]
     X:    -0.0100      Y:    -0.6037      Z:     1.1920     Total:     1.3362

*** Psi4 exiting successfully. Buy a developer a beer!
