                               Psi4 1.4a3.dev225

  ==> Input File <==

--------------------------------------------------------------------------
#psi4
#
memory 32 gb

molecule  {
0 1
  O       -2.9342579    -0.4738072     1.0051245
  O       -2.9681190     0.5148030    -1.0434710
  O       -0.3129680    -3.4309860     0.4641560
  O       -0.2589710     3.4469300    -0.4801560
  O       -1.9011930    -2.4818550    -0.7520780
  O       -1.8407060     2.5208330     0.7644950
  O        3.9597560    -1.1388570    -0.0240200
  O        3.9819620     1.0692260     0.0429750
  N       -0.8439190    -2.4637400    -0.1025570
  N       -0.7967020     2.4883090     0.0943390
  N        3.4069750    -0.0290830     0.0068360
  C       -0.8642630     0.0144850    -0.0118450
  C       -0.1342560    -1.1768520    -0.0236930
  C       -0.1092970     1.1902470     0.0051550
  C        1.9306090    -0.0137700    -0.0002960
  C        1.2541590    -1.2264030    -0.0035910
  C        1.2788880     1.2129500     0.0017720
  C       -2.3665400     0.0542110    -0.0958220
  H        1.7835260    -2.1724740     0.0038120
  H        1.8267950     2.1485240     0.0024160
  H       -3.8857970    -0.4493820     0.8874840
units angstrom
no_reorient  #important for SAPT in psi4, default
symmetry c1  #important for SAPT in psi4, default
}

set PROPERTIES_ORIGIN ["COM"]
properties('MP2/aug-cc-pvtz', properties = ['dipole'])
--------------------------------------------------------------------------

    Molecular point group: c1
  Charge       = 0
  Multiplicity = 1
  Basis Set: AUG-CC-PVTZ
    Blend: AUG-CC-PVTZ
  Basis Set: (AUG-CC-PVTZ AUX)
    Blend: AUG-CC-PVTZ-JKFIT

    Orbital Energies [Eh]
    ---------------------

    Doubly Occupied:

       1A    -20.654377     2A    -20.653018     3A    -20.652897
       4A    -20.651020     5A    -20.650949     6A    -20.650403
       7A    -20.650266     8A    -20.595019     9A    -15.903121
      10A    -15.902385    11A    -15.900349    12A    -11.452495
      13A    -11.387249    14A    -11.386057    15A    -11.380779
      16A    -11.376900    17A    -11.356354    18A    -11.356060
      19A     -1.636961    20A     -1.635147    21A     -1.633904
      22A     -1.507977    23A     -1.437027    24A     -1.435127
      25A     -1.434468    26A     -1.405695    27A     -1.291025
      28A     -1.184950    29A     -1.181792    30A     -1.057398
      31A     -1.036203    32A     -1.028555    33A     -0.927061
      34A     -0.884203    35A     -0.872271    36A     -0.838084
      37A     -0.803378    38A     -0.790564    39A     -0.788654
      40A     -0.780326    41A     -0.766344    42A     -0.763463
      43A     -0.757641    44A     -0.753887    45A     -0.746255
      46A     -0.741149    47A     -0.716298    48A     -0.691462
      49A     -0.667532    50A     -0.646676    51A     -0.629804
      52A     -0.609063    53A     -0.555673    54A     -0.550142
      55A     -0.544438    56A     -0.540574    57A     -0.536485
      58A     -0.534617    59A     -0.521813    60A     -0.508956
      61A     -0.494278    62A     -0.492501    63A     -0.486992
      64A     -0.448182    65A     -0.446394

  @DF-RHF Final Energy: -1029.05062509705272

   => Energetics <=

    Nuclear Repulsion Energy =           1345.6072585924339364
    One-Electron Energy =               -4082.7135953551728562
    Two-Electron Energy =                1708.0557116656862036
    Total Energy =                      -1029.0506250970527162
  Basis Set: (AUG-CC-PVTZ AUX)
    Blend: AUG-CC-PVTZ-RI
    Molecular point group: c1

    Geometry (in Angstrom), charge = 0, multiplicity = 1:

       Center              X                  Y                   Z               Mass
    ------------   -----------------  -----------------  -----------------  -----------------
         O           -2.934055444112    -0.475903083833     1.009116694437    15.994914619570
         O           -2.967916544112     0.512707116167    -1.039478805563    15.994914619570
         O           -0.312765544112    -3.433081883833     0.468148194437    15.994914619570
         O           -0.258768544112     3.444834116167    -0.476163805563    15.994914619570
         O           -1.900990544112    -2.483950883833    -0.748085805563    15.994914619570
         O           -1.840503544112     2.518737116167     0.768487194437    15.994914619570
         O            3.959958455888    -1.140952883833    -0.020027805563    15.994914619570
         O            3.982164455888     1.067130116167     0.046967194437    15.994914619570
         N           -0.843716544112    -2.465835883833    -0.098564805563    14.003074004430
         N           -0.796499544112     2.486213116167     0.098331194437    14.003074004430
         N            3.407177455888    -0.031178883833     0.010828194437    14.003074004430
         C           -0.864060544112     0.012389116167    -0.007852805563    12.000000000000
         C           -0.134053544112    -1.178947883833    -0.019700805563    12.000000000000
         C           -0.109094544112     1.188151116167     0.009147194437    12.000000000000
         C            1.930811455888    -0.015865883833     0.003696194437    12.000000000000
         C            1.254361455888    -1.228498883833     0.000401194437    12.000000000000
         C            1.279090455888     1.210854116167     0.005764194437    12.000000000000
         C           -2.366337544112     0.052115116167    -0.091829805563    12.000000000000
         H            1.783728455888    -2.174569883833     0.007804194437     1.007825032230
         H            1.826997455888     2.146428116167     0.006408194437     1.007825032230
         H           -3.885594544112    -0.451477883833     0.891476194437     1.007825032230

  Basis Set: AUG-CC-PVTZ
    Blend: AUG-CC-PVTZ
  Basis Set: (AUG-CC-PVTZ AUX)
    Blend: AUG-CC-PVTZ-JKFIT
	 Reference Energy          =   -1029.0506250970527162 [Eh]
	 Singles Energy            =      -0.0000000000000000 [Eh]
	 Same-Spin Energy          =      -1.0495653114593004 [Eh]
	 Opposite-Spin Energy      =      -2.9494632603499857 [Eh]
	 Correlation Energy        =      -3.9990285718092862 [Eh]
	 Total Energy              =   -1033.0496536688619926 [Eh]

	 ================> DF-SCS-MP2 Energies <==================
	-----------------------------------------------------------
	 SCS Same-Spin Scale       =       0.3333333333333333 [-]
	 SCS Opposite-Spin Scale   =       1.2000000000000000 [-]
	 SCS Same-Spin Energy      =      -0.3498551038197668 [Eh]
	 SCS Opposite-Spin Energy  =      -3.5393559124199827 [Eh]
	 SCS Correlation Energy    =      -3.8892110162397495 [Eh]
	 SCS Total Energy          =   -1032.9398361132923583 [Eh]
	-----------------------------------------------------------

  Dipole Moment: [D]
     X:    -0.0743      Y:    -0.6176      Z:     1.1882     Total:     1.3412

*** Psi4 exiting successfully. Buy a developer a beer!
