                               Psi4 1.4a3.dev225

  ==> Input File <==

--------------------------------------------------------------------------
#psi4
#
memory 32 gb

molecule  {
0 1
  O       -2.9128620    -0.4781290     1.0138340
  O       -2.9681190     0.5148030    -1.0434710
  O       -0.3129680    -3.4309860     0.4641560
  O       -0.2589710     3.4469300    -0.4801560
  O       -1.9011930    -2.4818550    -0.7520780
  O       -1.8407060     2.5208330     0.7644950
  O        3.9597560    -1.1388570    -0.0240200
  O        3.9819620     1.0692260     0.0429750
  N       -0.8439190    -2.4637400    -0.1025570
  N       -0.7967020     2.4883090     0.0943390
  N        3.4069750    -0.0290830     0.0068360
  C       -0.9053908    -0.0117037    -0.0129725
  C       -0.1342560    -1.1768520    -0.0236930
  C       -0.1092970     1.1902470     0.0051550
  C        1.9306090    -0.0137700    -0.0002960
  C        1.2541590    -1.2264030    -0.0035910
  C        1.2788880     1.2129500     0.0017720
  C       -2.3665400     0.0542110    -0.0958220
  H        1.7835260    -2.1724740     0.0038120
  H        1.8267950     2.1485240     0.0024160
  H       -3.8857970    -0.4493820     0.8874840
units angstrom
no_reorient  #important for SAPT in psi4, default
symmetry c1  #important for SAPT in psi4, default
}

set PROPERTIES_ORIGIN ["COM"]
properties('MP2/aug-cc-pvtz', properties = ['dipole'])
--------------------------------------------------------------------------

    Molecular point group: c1
  Charge       = 0
  Multiplicity = 1
  Basis Set: AUG-CC-PVTZ
    Blend: AUG-CC-PVTZ
  Basis Set: (AUG-CC-PVTZ AUX)
    Blend: AUG-CC-PVTZ-JKFIT

    Orbital Energies [Eh]
    ---------------------

    Doubly Occupied:

       1A    -20.657495     2A    -20.652539     3A    -20.652261
       4A    -20.651293     5A    -20.650907     6A    -20.649406
       7A    -20.649314     8A    -20.596879     9A    -15.902444
      10A    -15.901776    11A    -15.899452    12A    -11.450817
      13A    -11.389908    14A    -11.388597    15A    -11.381275
      16A    -11.379832    17A    -11.356953    18A    -11.355469
      19A     -1.636556    20A     -1.635230    21A     -1.632996
      22A     -1.507719    23A     -1.436592    24A     -1.435214
      25A     -1.433590    26A     -1.406653    27A     -1.287640
      28A     -1.186172    29A     -1.178802    30A     -1.062001
      31A     -1.035107    32A     -1.028352    33A     -0.927993
      34A     -0.880538    35A     -0.871533    36A     -0.837252
      37A     -0.802528    38A     -0.789900    39A     -0.787132
      40A     -0.778382    41A     -0.765931    42A     -0.762679
      43A     -0.757423    44A     -0.753861    45A     -0.746210
      46A     -0.741847    47A     -0.715094    48A     -0.693090
      49A     -0.667965    50A     -0.644763    51A     -0.633506
      52A     -0.606159    53A     -0.555192    54A     -0.549592
      55A     -0.544337    56A     -0.540347    57A     -0.536073
      58A     -0.533649    59A     -0.522278    60A     -0.512134
      61A     -0.494346    62A     -0.492264    63A     -0.486571
      64A     -0.449151    65A     -0.441852

  @DF-RHF Final Energy: -1029.04478488453856

   => Energetics <=

    Nuclear Repulsion Energy =           1345.6835058027086234
    One-Electron Energy =               -4082.8749550191878370
    Two-Electron Energy =                1708.1466643319406558
    Total Energy =                      -1029.0447848845385579
  Basis Set: (AUG-CC-PVTZ AUX)
    Blend: AUG-CC-PVTZ-RI
    Molecular point group: c1

    Geometry (in Angstrom), charge = 0, multiplicity = 1:

       Center              X                  Y                   Z               Mass
    ------------   -----------------  -----------------  -----------------  -----------------
         O           -2.912070778710    -0.478733042838     1.017336771802    15.994914619570
         O           -2.967327778710     0.514198957162    -1.039968228198    15.994914619570
         O           -0.312176778710    -3.431590042838     0.467658771802    15.994914619570
         O           -0.258179778710     3.446325957162    -0.476653228198    15.994914619570
         O           -1.900401778710    -2.482459042838    -0.748575228198    15.994914619570
         O           -1.839914778710     2.520228957162     0.767997771802    15.994914619570
         O            3.960547221290    -1.139461042838    -0.020517228198    15.994914619570
         O            3.982753221290     1.068621957162     0.046477771802    15.994914619570
         N           -0.843127778710    -2.464344042838    -0.099054228198    14.003074004430
         N           -0.795910778710     2.487704957162     0.097841771802    14.003074004430
         N            3.407766221290    -0.029687042838     0.010338771802    14.003074004430
         C           -0.904599578710    -0.012307742838    -0.009469728198    12.000000000000
         C           -0.133464778710    -1.177456042838    -0.020190228198    12.000000000000
         C           -0.108505778710     1.189642957162     0.008657771802    12.000000000000
         C            1.931400221290    -0.014374042838     0.003206771802    12.000000000000
         C            1.254950221290    -1.227007042838    -0.000088228198    12.000000000000
         C            1.279679221290     1.212345957162     0.005274771802    12.000000000000
         C           -2.365748778710     0.053606957162    -0.092319228198    12.000000000000
         H            1.784317221290    -2.173078042838     0.007314771802     1.007825032230
         H            1.827586221290     2.147919957162     0.005918771802     1.007825032230
         H           -3.885005778710    -0.449986042838     0.890986771802     1.007825032230

  Basis Set: AUG-CC-PVTZ
    Blend: AUG-CC-PVTZ
  Basis Set: (AUG-CC-PVTZ AUX)
    Blend: AUG-CC-PVTZ-JKFIT
	 Reference Energy          =   -1029.0447848845385579 [Eh]
	 Singles Energy            =      -0.0000000000000000 [Eh]
	 Same-Spin Energy          =      -1.0505933362566471 [Eh]
	 Opposite-Spin Energy      =      -2.9513654293237432 [Eh]
	 Correlation Energy        =      -4.0019587655803903 [Eh]
	 Total Energy              =   -1033.0467436501189695 [Eh]

	 ================> DF-SCS-MP2 Energies <==================
	-----------------------------------------------------------
	 SCS Same-Spin Scale       =       0.3333333333333333 [-]
	 SCS Opposite-Spin Scale   =       1.2000000000000000 [-]
	 SCS Same-Spin Energy      =      -0.3501977787522157 [Eh]
	 SCS Opposite-Spin Energy  =      -3.5416385151884917 [Eh]
	 SCS Correlation Energy    =      -3.8918362939407074 [Eh]
	 SCS Total Energy          =   -1032.9366211784792995 [Eh]
	-----------------------------------------------------------

  Dipole Moment: [D]
     X:    -0.0775      Y:    -0.6029      Z:     1.1833     Total:     1.3303

*** Psi4 exiting successfully. Buy a developer a beer!
