                               Psi4 1.4a3.dev225

  ==> Input File <==

--------------------------------------------------------------------------
#psi4
#
memory 32 gb

molecule  {
0 1
  O       -2.9128620    -0.4781290     1.0138340
  O       -2.9681190     0.5148030    -1.0434710
  O       -0.3129680    -3.4309860     0.4641560
  O       -0.2589710     3.4469300    -0.4801560
  O       -1.9011930    -2.4818550    -0.7520780
  O       -1.8407060     2.5208330     0.7644950
  O        3.9597560    -1.1388570    -0.0240200
  O        3.9819620     1.0692260     0.0429750
  N       -0.8439190    -2.4637400    -0.1025570
  N       -0.7967020     2.4883090     0.0943390
  N        3.4069750    -0.0290830     0.0068360
  C       -0.8642630     0.0144850    -0.0118450
  C       -0.1135746    -1.1639319    -0.0234616
  C       -0.1092970     1.1902470     0.0051550
  C        1.9306090    -0.0137700    -0.0002960
  C        1.2541590    -1.2264030    -0.0035910
  C        1.2788880     1.2129500     0.0017720
  C       -2.3665400     0.0542110    -0.0958220
  H        1.7835260    -2.1724740     0.0038120
  H        1.8267950     2.1485240     0.0024160
  H       -3.8857970    -0.4493820     0.8874840
units angstrom
no_reorient  #important for SAPT in psi4, default
symmetry c1  #important for SAPT in psi4, default
}

set PROPERTIES_ORIGIN ["COM"]
properties('MP2/aug-cc-pvtz', properties = ['dipole'])
--------------------------------------------------------------------------

    Molecular point group: c1
  Charge       = 0
  Multiplicity = 1
  Basis Set: AUG-CC-PVTZ
    Blend: AUG-CC-PVTZ
  Basis Set: (AUG-CC-PVTZ AUX)
    Blend: AUG-CC-PVTZ-JKFIT

    Orbital Energies [Eh]
    ---------------------

    Doubly Occupied:

       1A    -20.657920     2A    -20.652374     3A    -20.652303
       4A    -20.650714     5A    -20.650558     6A    -20.650406
       7A    -20.650232     8A    -20.596482     9A    -15.901951
      10A    -15.901868    11A    -15.900140    12A    -11.453389
      13A    -11.386451    14A    -11.385843    15A    -11.380463
      16A    -11.375868    17A    -11.355051    18A    -11.353217
      19A     -1.634901    20A     -1.634402    21A     -1.633805
      22A     -1.506471    23A     -1.435724    24A     -1.434778
      25A     -1.434402    26A     -1.406093    27A     -1.292312
      28A     -1.184186    29A     -1.180463    30A     -1.056332
      31A     -1.034413    32A     -1.027361    33A     -0.924899
      34A     -0.883222    35A     -0.871992    36A     -0.837134
      37A     -0.802557    38A     -0.788973    39A     -0.788287
      40A     -0.777111    41A     -0.765148    42A     -0.762856
      43A     -0.757250    44A     -0.753411    45A     -0.745811
      46A     -0.741110    47A     -0.716823    48A     -0.693543
      49A     -0.667863    50A     -0.646637    51A     -0.630888
      52A     -0.610296    53A     -0.554880    54A     -0.549610
      55A     -0.543880    56A     -0.540411    57A     -0.535478
      58A     -0.533765    59A     -0.522077    60A     -0.509901
      61A     -0.493995    62A     -0.491800    63A     -0.487081
      64A     -0.448740    65A     -0.446764

  @DF-RHF Final Energy: -1029.04857894060979

   => Energetics <=

    Nuclear Repulsion Energy =           1345.8515137024244268
    One-Electron Energy =               -4083.2500513055283591
    Two-Electron Energy =                1708.3499586624943731
    Total Energy =                      -1029.0485789406097865
  Basis Set: (AUG-CC-PVTZ AUX)
    Blend: AUG-CC-PVTZ-RI
    Molecular point group: c1

    Geometry (in Angstrom), charge = 0, multiplicity = 1:

       Center              X                  Y                   Z               Mass
    ------------   -----------------  -----------------  -----------------  -----------------
         O           -2.914956901077    -0.480559191411     1.017273319246    15.994914619570
         O           -2.970213901077     0.512372808589    -1.040031680754    15.994914619570
         O           -0.315062901077    -3.433416191411     0.467595319246    15.994914619570
         O           -0.261065901077     3.444499808589    -0.476716680754    15.994914619570
         O           -1.903287901077    -2.484285191411    -0.748638680754    15.994914619570
         O           -1.842800901077     2.518402808589     0.767934319246    15.994914619570
         O            3.957661098923    -1.141287191411    -0.020580680754    15.994914619570
         O            3.979867098923     1.066795808589     0.046414319246    15.994914619570
         N           -0.846013901077    -2.466170191411    -0.099117680754    14.003074004430
         N           -0.798796901077     2.485878808589     0.097778319246    14.003074004430
         N            3.404880098923    -0.031513191411     0.010275319246    14.003074004430
         C           -0.866357901077     0.012054808589    -0.008405680754    12.000000000000
         C           -0.115669501077    -1.166362091411    -0.020022280754    12.000000000000
         C           -0.111391901077     1.187816808589     0.008594319246    12.000000000000
         C            1.928514098923    -0.016200191411     0.003143319246    12.000000000000
         C            1.252064098923    -1.228833191411    -0.000151680754    12.000000000000
         C            1.276793098923     1.210519808589     0.005211319246    12.000000000000
         C           -2.368634901077     0.051780808589    -0.092382680754    12.000000000000
         H            1.781431098923    -2.174904191411     0.007251319246     1.007825032230
         H            1.824700098923     2.146093808589     0.005855319246     1.007825032230
         H           -3.887891901077    -0.451812191411     0.890923319246     1.007825032230

  Basis Set: AUG-CC-PVTZ
    Blend: AUG-CC-PVTZ
  Basis Set: (AUG-CC-PVTZ AUX)
    Blend: AUG-CC-PVTZ-JKFIT
	 Reference Energy          =   -1029.0485789406097865 [Eh]
	 Singles Energy            =      -0.0000000000000000 [Eh]
	 Same-Spin Energy          =      -1.0500701917376070 [Eh]
	 Opposite-Spin Energy      =      -2.9504948523500474 [Eh]
	 Correlation Energy        =      -4.0005650440876543 [Eh]
	 Total Energy              =   -1033.0491439846973662 [Eh]

	 ================> DF-SCS-MP2 Energies <==================
	-----------------------------------------------------------
	 SCS Same-Spin Scale       =       0.3333333333333333 [-]
	 SCS Opposite-Spin Scale   =       1.2000000000000000 [-]
	 SCS Same-Spin Energy      =      -0.3500233972458690 [Eh]
	 SCS Opposite-Spin Energy  =      -3.5405938228200569 [Eh]
	 SCS Correlation Energy    =      -3.8906172200659257 [Eh]
	 SCS Total Energy          =   -1032.9391961606756922 [Eh]
	-----------------------------------------------------------

  Dipole Moment: [D]
     X:    -0.1300      Y:    -0.6117      Z:     1.1869     Total:     1.3416

*** Psi4 exiting successfully. Buy a developer a beer!
