                               Psi4 1.4a3.dev225

  ==> Input File <==

--------------------------------------------------------------------------
#psi4
#
memory 32 gb

molecule  {
0 1
  O       -2.9128620    -0.4781290     1.0138340
  O       -2.9681190     0.5148030    -1.0434710
  O       -0.3129680    -3.4309860     0.4641560
  O       -0.2589710     3.4469300    -0.4801560
  O       -1.9011930    -2.4818550    -0.7520780
  O       -1.8407060     2.5208330     0.7644950
  O        3.9597560    -1.1388570    -0.0240200
  O        3.9819620     1.0692260     0.0429750
  N       -0.8439190    -2.4637400    -0.1025570
  N       -0.7967020     2.4883090     0.0943390
  N        3.4069750    -0.0290830     0.0068360
  C       -0.8642630     0.0144850    -0.0118450
  C       -0.1342560    -1.1768520    -0.0236930
  C       -0.1092970     1.1902470     0.0051550
  C        1.9306090    -0.0137700    -0.0002960
  C        1.0543072    -1.2192705    -0.0064845
  C        1.2788880     1.2129500     0.0017720
  C       -2.3665400     0.0542110    -0.0958220
  H        1.7835260    -2.1724740     0.0038120
  H        1.8267950     2.1485240     0.0024160
  H       -3.8857970    -0.4493820     0.8874840
units angstrom
no_reorient  #important for SAPT in psi4, default
symmetry c1  #important for SAPT in psi4, default
}

set PROPERTIES_ORIGIN ["COM"]
properties('MP2/aug-cc-pvtz', properties = ['dipole'])
--------------------------------------------------------------------------

    Molecular point group: c1
  Charge       = 0
  Multiplicity = 1
  Basis Set: AUG-CC-PVTZ
    Blend: AUG-CC-PVTZ
  Basis Set: (AUG-CC-PVTZ AUX)
    Blend: AUG-CC-PVTZ-JKFIT

    Orbital Energies [Eh]
    ---------------------

    Doubly Occupied:

       1A    -20.658876     2A    -20.653964     3A    -20.653585
       4A    -20.652034     5A    -20.650865     6A    -20.650012
       7A    -20.649777     8A    -20.596836     9A    -15.905736
      10A    -15.901609    11A    -15.900359    12A    -11.453227
      13A    -11.385407    14A    -11.384497    15A    -11.378063
      16A    -11.363259    17A    -11.352398    18A    -11.341116
      19A     -1.637877    20A     -1.634721    21A     -1.633971
      22A     -1.507280    23A     -1.437647    24A     -1.434737
      25A     -1.434508    26A     -1.406625    27A     -1.306668
      28A     -1.202955    29A     -1.170505    30A     -1.064769
      31A     -1.040890    32A     -1.022107    33A     -0.922349
      34A     -0.881548    35A     -0.875754    36A     -0.837807
      37A     -0.805303    38A     -0.801905    39A     -0.784496
      40A     -0.773585    41A     -0.767600    42A     -0.762818
      43A     -0.755936    44A     -0.752492    45A     -0.745361
      46A     -0.740378    47A     -0.720982    48A     -0.692644
      49A     -0.666548    50A     -0.632325    51A     -0.621930
      52A     -0.601259    53A     -0.555901    54A     -0.551356
      55A     -0.542229    56A     -0.541094    57A     -0.535875
      58A     -0.535034    59A     -0.521534    60A     -0.509409
      61A     -0.494471    62A     -0.492203    63A     -0.487170
      64A     -0.474595    65A     -0.432492

  @DF-RHF Final Energy: -1028.98465220791104

   => Energetics <=

    Nuclear Repulsion Energy =           1348.7276552626524335
    One-Electron Energy =               -4088.8580919091514261
    Two-Electron Energy =                1711.1457844385881799
    Total Energy =                      -1028.9846522079110400
  Basis Set: (AUG-CC-PVTZ AUX)
    Blend: AUG-CC-PVTZ-RI
    Molecular point group: c1

    Geometry (in Angstrom), charge = 0, multiplicity = 1:

       Center              X                  Y                   Z               Mass
    ------------   -----------------  -----------------  -----------------  -----------------
         O           -2.904659311055    -0.480288944882     1.017419233508    15.994914619570
         O           -2.959916311055     0.512643055118    -1.039885766492    15.994914619570
         O           -0.304765311055    -3.433145944882     0.467741233508    15.994914619570
         O           -0.250768311055     3.444770055118    -0.476570766492    15.994914619570
         O           -1.892990311055    -2.484014944882    -0.748492766492    15.994914619570
         O           -1.832503311055     2.518673055118     0.768080233508    15.994914619570
         O            3.967958688945    -1.141016944882    -0.020434766492    15.994914619570
         O            3.990164688945     1.067066055118     0.046560233508    15.994914619570
         N           -0.835716311055    -2.465899944882    -0.098971766492    14.003074004430
         N           -0.788499311055     2.486149055118     0.097924233508    14.003074004430
         N            3.415177688945    -0.031242944882     0.010421233508    14.003074004430
         C           -0.856060311055     0.012325055118    -0.008259766492    12.000000000000
         C           -0.126053311055    -1.179011944882    -0.020107766492    12.000000000000
         C           -0.101094311055     1.188087055118     0.008740233508    12.000000000000
         C            1.938811688945    -0.015929944882     0.003289233508    12.000000000000
         C            1.062509888945    -1.221430444882    -0.002899266492    12.000000000000
         C            1.287090688945     1.210790055118     0.005357233508    12.000000000000
         C           -2.358337311055     0.052051055118    -0.092236766492    12.000000000000
         H            1.791728688945    -2.174633944882     0.007397233508     1.007825032230
         H            1.834997688945     2.146364055118     0.006001233508     1.007825032230
         H           -3.877594311055    -0.451541944882     0.891069233508     1.007825032230

  Basis Set: AUG-CC-PVTZ
    Blend: AUG-CC-PVTZ
  Basis Set: (AUG-CC-PVTZ AUX)
    Blend: AUG-CC-PVTZ-JKFIT
	 Reference Energy          =   -1028.9846522079110400 [Eh]
	 Singles Energy            =      -0.0000000000000000 [Eh]
	 Same-Spin Energy          =      -1.0500842897656721 [Eh]
	 Opposite-Spin Energy      =      -2.9526817622294192 [Eh]
	 Correlation Energy        =      -4.0027660519950912 [Eh]
	 Total Energy              =   -1032.9874182599062351 [Eh]

	 ================> DF-SCS-MP2 Energies <==================
	-----------------------------------------------------------
	 SCS Same-Spin Scale       =       0.3333333333333333 [-]
	 SCS Opposite-Spin Scale   =       1.2000000000000000 [-]
	 SCS Same-Spin Energy      =      -0.3500280965885574 [Eh]
	 SCS Opposite-Spin Energy  =      -3.5432181146753030 [Eh]
	 SCS Correlation Energy    =      -3.8932462112638602 [Eh]
	 SCS Total Energy          =   -1032.8778984191749259 [Eh]
	-----------------------------------------------------------

  Dipole Moment: [D]
     X:     0.0544      Y:    -0.5805      Z:     1.2065     Total:     1.3400

*** Psi4 exiting successfully. Buy a developer a beer!
