                               Psi4 1.4a3.dev225

  ==> Input File <==

--------------------------------------------------------------------------
#psi4
#
memory 32 gb

molecule  {
0 1
  O       -2.9128620    -0.4781290     1.0138340
  O       -2.9681190     0.5148030    -1.0434710
  O       -0.3129680    -3.4309860     0.4641560
  O       -0.2589710     3.4469300    -0.4801560
  O       -1.9011930    -2.4818550    -0.7520780
  O       -1.8407060     2.5208330     0.7644950
  O        3.9790472    -1.1290478    -0.0236266
  O        3.9819620     1.0692260     0.0429750
  N       -0.8439190    -2.4637400    -0.1025570
  N       -0.7967020     2.4883090     0.0943390
  N        3.4069750    -0.0290830     0.0068360
  C       -0.8642630     0.0144850    -0.0118450
  C       -0.1342560    -1.1768520    -0.0236930
  C       -0.1092970     1.1902470     0.0051550
  C        1.9306090    -0.0137700    -0.0002960
  C        1.2541590    -1.2264030    -0.0035910
  C        1.2788880     1.2129500     0.0017720
  C       -2.3665400     0.0542110    -0.0958220
  H        1.7835260    -2.1724740     0.0038120
  H        1.8267950     2.1485240     0.0024160
  H       -3.8857970    -0.4493820     0.8874840
units angstrom
no_reorient  #important for SAPT in psi4, default
symmetry c1  #important for SAPT in psi4, default
}

set PROPERTIES_ORIGIN ["COM"]
properties('MP2/aug-cc-pvtz', properties = ['dipole'])
--------------------------------------------------------------------------

    Molecular point group: c1
  Charge       = 0
  Multiplicity = 1
  Basis Set: AUG-CC-PVTZ
    Blend: AUG-CC-PVTZ
  Basis Set: (AUG-CC-PVTZ AUX)
    Blend: AUG-CC-PVTZ-JKFIT

    Orbital Energies [Eh]
    ---------------------

    Doubly Occupied:

       1A    -20.657953     2A    -20.653068     3A    -20.652863
       4A    -20.650457     5A    -20.650302     6A    -20.649772
       7A    -20.649193     8A    -20.596335     9A    -15.903129
      10A    -15.901399    11A    -15.900393    12A    -11.452907
      13A    -11.387101    14A    -11.385854    15A    -11.381133
      16A    -11.376420    17A    -11.356616    18A    -11.356233
      19A     -1.636972    20A     -1.634606    21A     -1.633937
      22A     -1.506481    23A     -1.437038    24A     -1.434519
      25A     -1.432483    26A     -1.406029    27A     -1.291048
      28A     -1.185169    29A     -1.181800    30A     -1.057005
      31A     -1.036321    32A     -1.028636    33A     -0.924383
      34A     -0.884162    35A     -0.871256    36A     -0.836882
      37A     -0.803086    38A     -0.790283    39A     -0.788489
      40A     -0.777823    41A     -0.766234    42A     -0.763493
      43A     -0.756606    44A     -0.753036    45A     -0.746067
      46A     -0.741736    47A     -0.716155    48A     -0.691976
      49A     -0.667983    50A     -0.646721    51A     -0.630228
      52A     -0.608862    53A     -0.555821    54A     -0.550207
      55A     -0.544057    56A     -0.539264    57A     -0.536633
      58A     -0.534331    59A     -0.522703    60A     -0.509556
      61A     -0.492711    62A     -0.492468    63A     -0.487182
      64A     -0.448136    65A     -0.446494

  @DF-RHF Final Energy: -1029.04946800596144

   => Energetics <=

    Nuclear Repulsion Energy =           1345.5413776750883699
    One-Electron Energy =               -4082.6053000079109552
    Two-Electron Energy =                1708.0144543268611415
    Total Energy =                      -1029.0494680059614439
  Basis Set: (AUG-CC-PVTZ AUX)
    Blend: AUG-CC-PVTZ-RI
    Molecular point group: c1

    Geometry (in Angstrom), charge = 0, multiplicity = 1:

       Center              X                  Y                   Z               Mass
    ------------   -----------------  -----------------  -----------------  -----------------
         O           -2.915191866732    -0.480566413879     1.017259639446    15.994914619570
         O           -2.970448866732     0.512365586121    -1.040045360554    15.994914619570
         O           -0.315297866732    -3.433423413879     0.467581639446    15.994914619570
         O           -0.261300866732     3.444492586121    -0.476730360554    15.994914619570
         O           -1.903522866732    -2.484292413879    -0.748652360554    15.994914619570
         O           -1.843035866732     2.518395586121     0.767920639446    15.994914619570
         O            3.976717333268    -1.131485213879    -0.020200960554    15.994914619570
         O            3.979632133268     1.066788586121     0.046400639446    15.994914619570
         N           -0.846248866732    -2.466177413879    -0.099131360554    14.003074004430
         N           -0.799031866732     2.485871586121     0.097764639446    14.003074004430
         N            3.404645133268    -0.031520413879     0.010261639446    14.003074004430
         C           -0.866592866732     0.012047586121    -0.008419360554    12.000000000000
         C           -0.136585866732    -1.179289413879    -0.020267360554    12.000000000000
         C           -0.111626866732     1.187809586121     0.008580639446    12.000000000000
         C            1.928279133268    -0.016207413879     0.003129639446    12.000000000000
         C            1.251829133268    -1.228840413879    -0.000165360554    12.000000000000
         C            1.276558133268     1.210512586121     0.005197639446    12.000000000000
         C           -2.368869866732     0.051773586121    -0.092396360554    12.000000000000
         H            1.781196133268    -2.174911413879     0.007237639446     1.007825032230
         H            1.824465133268     2.146086586121     0.005841639446     1.007825032230
         H           -3.888126866732    -0.451819413879     0.890909639446     1.007825032230

  Basis Set: AUG-CC-PVTZ
    Blend: AUG-CC-PVTZ
  Basis Set: (AUG-CC-PVTZ AUX)
    Blend: AUG-CC-PVTZ-JKFIT
	 Reference Energy          =   -1029.0494680059614439 [Eh]
	 Singles Energy            =      -0.0000000000000000 [Eh]
	 Same-Spin Energy          =      -1.0499116561633959 [Eh]
	 Opposite-Spin Energy      =      -2.9502385665027608 [Eh]
	 Correlation Energy        =      -4.0001502226661572 [Eh]
	 Total Energy              =   -1033.0496182286276508 [Eh]

	 ================> DF-SCS-MP2 Energies <==================
	-----------------------------------------------------------
	 SCS Same-Spin Scale       =       0.3333333333333333 [-]
	 SCS Opposite-Spin Scale   =       1.2000000000000000 [-]
	 SCS Same-Spin Energy      =      -0.3499705520544653 [Eh]
	 SCS Opposite-Spin Energy  =      -3.5402862798033130 [Eh]
	 SCS Correlation Energy    =      -3.8902568318577782 [Eh]
	 SCS Total Energy          =   -1032.9397248378193126 [Eh]
	-----------------------------------------------------------

  Dipole Moment: [D]
     X:    -0.1995      Y:    -0.6256      Z:     1.1897     Total:     1.3588

*** Psi4 exiting successfully. Buy a developer a beer!
