                               Psi4 1.4a3.dev225

  ==> Input File <==

--------------------------------------------------------------------------
#psi4
#
memory 32 gb

molecule  {
0 1
  O       -2.9128620    -0.4781290     1.0138340
  O       -2.9681190     0.5148030    -1.0434710
  O       -0.3129680    -3.4309860     0.4641560
  O       -0.2589710     3.4469300    -0.4801560
  O       -1.9011930    -2.4818550    -0.7520780
  O       -1.8407060     2.5208330     0.7644950
  O        3.9597560    -1.1388570    -0.0240200
  O        3.9819620     1.0692260     0.0429750
  N       -0.7587224    -2.4622803    -0.0502177
  N       -0.7967020     2.4883090     0.0943390
  N        3.4069750    -0.0290830     0.0068360
  C       -0.8642630     0.0144850    -0.0118450
  C       -0.1342560    -1.1768520    -0.0236930
  C       -0.1092970     1.1902470     0.0051550
  C        1.9306090    -0.0137700    -0.0002960
  C        1.2541590    -1.2264030    -0.0035910
  C        1.2788880     1.2129500     0.0017720
  C       -2.3665400     0.0542110    -0.0958220
  H        1.7835260    -2.1724740     0.0038120
  H        1.8267950     2.1485240     0.0024160
  H       -3.8857970    -0.4493820     0.8874840
units angstrom
no_reorient  #important for SAPT in psi4, default
symmetry c1  #important for SAPT in psi4, default
}

set PROPERTIES_ORIGIN ["COM"]
properties('MP2/aug-cc-pvtz', properties = ['dipole'])
--------------------------------------------------------------------------

    Molecular point group: c1
  Charge       = 0
  Multiplicity = 1
  Basis Set: AUG-CC-PVTZ
    Blend: AUG-CC-PVTZ
  Basis Set: (AUG-CC-PVTZ AUX)
    Blend: AUG-CC-PVTZ-JKFIT

    Orbital Energies [Eh]
    ---------------------

    Doubly Occupied:

       1A    -20.683975     2A    -20.653070     3A    -20.652283
       4A    -20.652202     5A    -20.650839     6A    -20.650730
       7A    -20.617508     8A    -20.592225     9A    -15.903562
      10A    -15.900925    11A    -15.897615    12A    -11.449848
      13A    -11.387139    14A    -11.386833    15A    -11.381764
      16A    -11.379300    17A    -11.358418    18A    -11.358256
      19A     -1.652061    20A     -1.636421    21A     -1.634371
      22A     -1.502015    23A     -1.436417    24A     -1.434842
      25A     -1.401740    26A     -1.395927    27A     -1.293293
      28A     -1.192313    29A     -1.185096    30A     -1.064429
      31A     -1.040020    32A     -1.030437    33A     -0.923470
      34A     -0.885892    35A     -0.872894    36A     -0.839878
      37A     -0.806274    38A     -0.793828    39A     -0.790612
      40A     -0.776265    41A     -0.766264    42A     -0.762364
      43A     -0.758078    44A     -0.754702    45A     -0.743874
      46A     -0.738542    47A     -0.715592    48A     -0.692038
      49A     -0.665138    50A     -0.647206    51A     -0.627414
      52A     -0.609418    53A     -0.557071    54A     -0.547509
      55A     -0.543984    56A     -0.538782    57A     -0.536789
      58A     -0.528358    59A     -0.515403    60A     -0.505885
      61A     -0.495626    62A     -0.486760    63A     -0.482289
      64A     -0.448279    65A     -0.447500

  @DF-RHF Final Energy: -1029.03255507625158

   => Energetics <=

    Nuclear Repulsion Energy =           1346.0389382477658273
    One-Electron Energy =               -4083.6232815463577026
    Two-Electron Energy =                1708.5517882223405195
    Total Energy =                      -1029.0325550762515832
  Basis Set: (AUG-CC-PVTZ AUX)
    Blend: AUG-CC-PVTZ-RI
    Molecular point group: c1

    Geometry (in Angstrom), charge = 0, multiplicity = 1:

       Center              X                  Y                   Z               Mass
    ------------   -----------------  -----------------  -----------------  -----------------
         O           -2.918633425806    -0.480035436176     1.014432241503    15.994914619570
         O           -2.973890425806     0.512896563824    -1.042872758497    15.994914619570
         O           -0.318739425806    -3.432892436176     0.464754241503    15.994914619570
         O           -0.264742425806     3.445023563824    -0.479557758497    15.994914619570
         O           -1.906964425806    -2.483761436176    -0.751479758497    15.994914619570
         O           -1.846477425806     2.518926563824     0.765093241503    15.994914619570
         O            3.953984574194    -1.140763436176    -0.023421758497    15.994914619570
         O            3.976190574194     1.067319563824     0.043573241503    15.994914619570
         N           -0.764493825806    -2.464186736176    -0.049619458497    14.003074004430
         N           -0.802473425806     2.486402563824     0.094937241503    14.003074004430
         N            3.401203574194    -0.030989436176     0.007434241503    14.003074004430
         C           -0.870034425806     0.012578563824    -0.011246758497    12.000000000000
         C           -0.140027425806    -1.178758436176    -0.023094758497    12.000000000000
         C           -0.115068425806     1.188340563824     0.005753241503    12.000000000000
         C            1.924837574194    -0.015676436176     0.000302241503    12.000000000000
         C            1.248387574194    -1.228309436176    -0.002992758497    12.000000000000
         C            1.273116574194     1.211043563824     0.002370241503    12.000000000000
         C           -2.372311425806     0.052304563824    -0.095223758497    12.000000000000
         H            1.777754574194    -2.174380436176     0.004410241503     1.007825032230
         H            1.821023574194     2.146617563824     0.003014241503     1.007825032230
         H           -3.891568425806    -0.451288436176     0.888082241503     1.007825032230

  Basis Set: AUG-CC-PVTZ
    Blend: AUG-CC-PVTZ
  Basis Set: (AUG-CC-PVTZ AUX)
    Blend: AUG-CC-PVTZ-JKFIT
	 Reference Energy          =   -1029.0325550762515832 [Eh]
	 Singles Energy            =      -0.0000000000000000 [Eh]
	 Same-Spin Energy          =      -1.0499430501739901 [Eh]
	 Opposite-Spin Energy      =      -2.9505626245148644 [Eh]
	 Correlation Energy        =      -4.0005056746888545 [Eh]
	 Total Energy              =   -1033.0330607509404217 [Eh]

	 ================> DF-SCS-MP2 Energies <==================
	-----------------------------------------------------------
	 SCS Same-Spin Scale       =       0.3333333333333333 [-]
	 SCS Opposite-Spin Scale   =       1.2000000000000000 [-]
	 SCS Same-Spin Energy      =      -0.3499810167246634 [Eh]
	 SCS Opposite-Spin Energy  =      -3.5406751494178370 [Eh]
	 SCS Correlation Energy    =      -3.8906561661425005 [Eh]
	 SCS Total Energy          =   -1032.9232112423940180 [Eh]
	-----------------------------------------------------------

  Dipole Moment: [D]
     X:     0.2511      Y:    -0.5232      Z:     1.4361     Total:     1.5489

*** Psi4 exiting successfully. Buy a developer a beer!
