                               Psi4 1.4a3.dev225

  ==> Input File <==

--------------------------------------------------------------------------
#psi4
#
memory 32 gb

molecule  {
0 1
  O       -2.9128620    -0.4781290     1.0138340
  O       -2.9681190     0.5148030    -1.0434710
  O       -0.3129680    -3.4309860     0.4641560
  O       -0.2589710     3.4469300    -0.4801560
  O       -1.9011930    -2.4818550    -0.7520780
  O       -1.8407060     2.5208330     0.7644950
  O        3.9597560    -1.1388570    -0.0240200
  O        3.9819620     1.0692260     0.0429750
  N       -0.8439190    -2.4637400    -0.1025570
  N       -0.7967020     2.4883090     0.0943390
  N        3.3624034     0.0603999     0.0093240
  C       -0.8642630     0.0144850    -0.0118450
  C       -0.1342560    -1.1768520    -0.0236930
  C       -0.1092970     1.1902470     0.0051550
  C        1.9306090    -0.0137700    -0.0002960
  C        1.2541590    -1.2264030    -0.0035910
  C        1.2788880     1.2129500     0.0017720
  C       -2.3665400     0.0542110    -0.0958220
  H        1.7835260    -2.1724740     0.0038120
  H        1.8267950     2.1485240     0.0024160
  H       -3.8857970    -0.4493820     0.8874840
units angstrom
no_reorient  #important for SAPT in psi4, default
symmetry c1  #important for SAPT in psi4, default
}

set PROPERTIES_ORIGIN ["COM"]
properties('MP2/aug-cc-pvtz', properties = ['dipole'])
--------------------------------------------------------------------------

    Molecular point group: c1
  Charge       = 0
  Multiplicity = 1
  Basis Set: AUG-CC-PVTZ
    Blend: AUG-CC-PVTZ
  Basis Set: (AUG-CC-PVTZ AUX)
    Blend: AUG-CC-PVTZ-JKFIT

    Orbital Energies [Eh]
    ---------------------

    Doubly Occupied:

       1A    -20.680604     2A    -20.659159     3A    -20.653551
       4A    -20.653234     5A    -20.651907     6A    -20.651804
       7A    -20.614966     8A    -20.597761     9A    -15.903734
      10A    -15.901748    11A    -15.896299    12A    -11.454385
      13A    -11.388237    14A    -11.386995    15A    -11.380216
      16A    -11.379141    17A    -11.359340    18A    -11.358041
      19A     -1.649221    20A     -1.637406    21A     -1.635451
      22A     -1.507759    23A     -1.437432    24A     -1.436020
      25A     -1.407346    26A     -1.392703    27A     -1.293341
      28A     -1.194544    29A     -1.182878    30A     -1.062765
      31A     -1.043951    32A     -1.029316    33A     -0.926184
      34A     -0.885891    35A     -0.873039    36A     -0.840560
      37A     -0.805742    38A     -0.794084    39A     -0.788806
      40A     -0.780006    41A     -0.767021    42A     -0.764688
      43A     -0.756511    44A     -0.751806    45A     -0.745757
      46A     -0.742853    47A     -0.715852    48A     -0.693320
      49A     -0.669023    50A     -0.648892    51A     -0.631702
      52A     -0.609820    53A     -0.556651    54A     -0.551066
      55A     -0.544920    56A     -0.539192    57A     -0.537297
      58A     -0.523930    59A     -0.516906    60A     -0.510789
      61A     -0.492802    62A     -0.488746    63A     -0.483949
      64A     -0.450318    65A     -0.445868

  @DF-RHF Final Energy: -1029.03255191833341

   => Energetics <=

    Nuclear Repulsion Energy =           1346.4513734128993292
    One-Electron Energy =               -4084.3373492061846264
    Two-Electron Energy =                1708.8534238749516589
    Total Energy =                      -1029.0325519183334109
  Basis Set: (AUG-CC-PVTZ AUX)
    Blend: AUG-CC-PVTZ-RI
    Molecular point group: c1

    Geometry (in Angstrom), charge = 0, multiplicity = 1:

       Center              X                  Y                   Z               Mass
    ------------   -----------------  -----------------  -----------------  -----------------
         O           -2.911562569092    -0.484831676200     1.017148557206    15.994914619570
         O           -2.966819569092     0.508100323800    -1.040156442794    15.994914619570
         O           -0.311668569092    -3.437688676200     0.467470557206    15.994914619570
         O           -0.257671569092     3.440227323800    -0.476841442794    15.994914619570
         O           -1.899893569092    -2.488557676200    -0.748763442794    15.994914619570
         O           -1.839406569092     2.514130323800     0.767809557206    15.994914619570
         O            3.961055430908    -1.145559676200    -0.020705442794    15.994914619570
         O            3.983261430908     1.062523323800     0.046289557206    15.994914619570
         N           -0.842619569092    -2.470442676200    -0.099242442794    14.003074004430
         N           -0.795402569092     2.481606323800     0.097653557206    14.003074004430
         N            3.363702830908     0.053697223800     0.012638557206    14.003074004430
         C           -0.862963569092     0.007782323800    -0.008530442794    12.000000000000
         C           -0.132956569092    -1.183554676200    -0.020378442794    12.000000000000
         C           -0.107997569092     1.183544323800     0.008469557206    12.000000000000
         C            1.931908430908    -0.020472676200     0.003018557206    12.000000000000
         C            1.255458430908    -1.233105676200    -0.000276442794    12.000000000000
         C            1.280187430908     1.206247323800     0.005086557206    12.000000000000
         C           -2.365240569092     0.047508323800    -0.092507442794    12.000000000000
         H            1.784825430908    -2.179176676200     0.007126557206     1.007825032230
         H            1.828094430908     2.141821323800     0.005730557206     1.007825032230
         H           -3.884497569092    -0.456084676200     0.890798557206     1.007825032230

  Basis Set: AUG-CC-PVTZ
    Blend: AUG-CC-PVTZ
  Basis Set: (AUG-CC-PVTZ AUX)
    Blend: AUG-CC-PVTZ-JKFIT
	 Reference Energy          =   -1029.0325519183334109 [Eh]
	 Singles Energy            =      -0.0000000000000000 [Eh]
	 Same-Spin Energy          =      -1.0499174744747410 [Eh]
	 Opposite-Spin Energy      =      -2.9505941820622850 [Eh]
	 Correlation Energy        =      -4.0005116565370260 [Eh]
	 Total Energy              =   -1033.0330635748705390 [Eh]

	 ================> DF-SCS-MP2 Energies <==================
	-----------------------------------------------------------
	 SCS Same-Spin Scale       =       0.3333333333333333 [-]
	 SCS Opposite-Spin Scale   =       1.2000000000000000 [-]
	 SCS Same-Spin Energy      =      -0.3499724914915803 [Eh]
	 SCS Opposite-Spin Energy  =      -3.5407130184747420 [Eh]
	 SCS Correlation Energy    =      -3.8906855099663225 [Eh]
	 SCS Total Energy          =   -1032.9232374282996716 [Eh]
	-----------------------------------------------------------

  Dipole Moment: [D]
     X:    -0.4808      Y:    -0.2517      Z:     1.2046     Total:     1.3213

*** Psi4 exiting successfully. Buy a developer a beer!
