                               Psi4 1.4a3.dev225

  ==> Input File <==

--------------------------------------------------------------------------
#psi4
#
memory 32 gb

molecule  {
0 1
  O       -2.9128620    -0.4781290     1.0138340
  O       -2.9681190     0.5148030    -1.0434710
  O       -0.3129680    -3.4309860     0.4641560
  O       -0.2589710     3.4469300    -0.4801560
  O       -1.9011930    -2.4818550    -0.7520780
  O       -1.8407060     2.5208330     0.7644950
  O        3.9597560    -1.1388570    -0.0240200
  O        3.9819620     1.0692260     0.0429750
  N       -0.8013207    -2.4630101    -0.0763873
  N       -0.7967020     2.4883090     0.0943390
  N        3.4069750    -0.0290830     0.0068360
  C       -0.8642630     0.0144850    -0.0118450
  C       -0.1342560    -1.1768520    -0.0236930
  C       -0.1092970     1.1902470     0.0051550
  C        1.9306090    -0.0137700    -0.0002960
  C        1.2541590    -1.2264030    -0.0035910
  C        1.2788880     1.2129500     0.0017720
  C       -2.3665400     0.0542110    -0.0958220
  H        1.7835260    -2.1724740     0.0038120
  H        1.8267950     2.1485240     0.0024160
  H       -3.8857970    -0.4493820     0.8874840
units angstrom
no_reorient  #important for SAPT in psi4, default
symmetry c1  #important for SAPT in psi4, default
}

set PROPERTIES_ORIGIN ["COM"]
properties('MP2/aug-cc-pvtz', properties = ['dipole'])
--------------------------------------------------------------------------

    Molecular point group: c1
  Charge       = 0
  Multiplicity = 1
  Basis Set: AUG-CC-PVTZ
    Blend: AUG-CC-PVTZ
  Basis Set: (AUG-CC-PVTZ AUX)
    Blend: AUG-CC-PVTZ-JKFIT

    Orbital Energies [Eh]
    ---------------------

    Doubly Occupied:

       1A    -20.668816     2A    -20.655333     3A    -20.651519
       4A    -20.651442     5A    -20.650523     6A    -20.650393
       7A    -20.634843     8A    -20.594094     9A    -15.902850
      10A    -15.900980    11A    -15.900529    12A    -11.451205
      13A    -11.386827    14A    -11.386305    15A    -11.381066
      16A    -11.377651    17A    -11.357196    18A    -11.357070
      19A     -1.637844    20A     -1.635648    21A     -1.634038
      22A     -1.504097    23A     -1.435648    24A     -1.434557
      25A     -1.420369    26A     -1.403699    27A     -1.292163
      28A     -1.187527    29A     -1.184201    30A     -1.060293
      31A     -1.038266    32A     -1.029480    33A     -0.923841
      34A     -0.884283    35A     -0.871773    36A     -0.837912
      37A     -0.804207    38A     -0.790790    39A     -0.789454
      40A     -0.776632    41A     -0.765416    42A     -0.762016
      43A     -0.757728    44A     -0.753937    45A     -0.744425
      46A     -0.739532    47A     -0.715442    48A     -0.691640
      49A     -0.666317    50A     -0.646721    51A     -0.628604
      52A     -0.608736    53A     -0.557113    54A     -0.548809
      55A     -0.543499    56A     -0.539241    57A     -0.536888
      58A     -0.533915    59A     -0.520235    60A     -0.507602
      61A     -0.494841    62A     -0.488080    63A     -0.486674
      64A     -0.447913    65A     -0.447285

  @DF-RHF Final Energy: -1029.04372705608625

   => Energetics <=

    Nuclear Repulsion Energy =           1345.9016476248530125
    One-Electron Energy =               -4083.3548085118509334
    Two-Electron Energy =                1708.4094338309116665
    Total Energy =                      -1029.0437270560862544
  Basis Set: (AUG-CC-PVTZ AUX)
    Blend: AUG-CC-PVTZ-RI
    Molecular point group: c1

    Geometry (in Angstrom), charge = 0, multiplicity = 1:

       Center              X                  Y                   Z               Mass
    ------------   -----------------  -----------------  -----------------  -----------------
         O           -2.916312314197    -0.479995670569     1.015858180153    15.994914619570
         O           -2.971569314197     0.512936329431    -1.041446819847    15.994914619570
         O           -0.316418314197    -3.432852670569     0.466180180153    15.994914619570
         O           -0.262421314197     3.445063329431    -0.478131819847    15.994914619570
         O           -1.904643314197    -2.483721670569    -0.750053819847    15.994914619570
         O           -1.844156314197     2.518966329431     0.766519180153    15.994914619570
         O            3.956305685803    -1.140723670569    -0.021995819847    15.994914619570
         O            3.978511685803     1.067359329431     0.044999180153    15.994914619570
         N           -0.804771014197    -2.464876770569    -0.074363119847    14.003074004430
         N           -0.800152314197     2.486442329431     0.096363180153    14.003074004430
         N            3.403524685803    -0.030949670569     0.008860180153    14.003074004430
         C           -0.867713314197     0.012618329431    -0.009820819847    12.000000000000
         C           -0.137706314197    -1.178718670569    -0.021668819847    12.000000000000
         C           -0.112747314197     1.188380329431     0.007179180153    12.000000000000
         C            1.927158685803    -0.015636670569     0.001728180153    12.000000000000
         C            1.250708685803    -1.228269670569    -0.001566819847    12.000000000000
         C            1.275437685803     1.211083329431     0.003796180153    12.000000000000
         C           -2.369990314197     0.052344329431    -0.093797819847    12.000000000000
         H            1.780075685803    -2.174340670569     0.005836180153     1.007825032230
         H            1.823344685803     2.146657329431     0.004440180153     1.007825032230
         H           -3.889247314197    -0.451248670569     0.889508180153     1.007825032230

  Basis Set: AUG-CC-PVTZ
    Blend: AUG-CC-PVTZ
  Basis Set: (AUG-CC-PVTZ AUX)
    Blend: AUG-CC-PVTZ-JKFIT
	 Reference Energy          =   -1029.0437270560862544 [Eh]
	 Singles Energy            =      -0.0000000000000000 [Eh]
	 Same-Spin Energy          =      -1.0502953502069277 [Eh]
	 Opposite-Spin Energy      =      -2.9511164157487904 [Eh]
	 Correlation Energy        =      -4.0014117659557176 [Eh]
	 Total Energy              =   -1033.0451388220419631 [Eh]

	 ================> DF-SCS-MP2 Energies <==================
	-----------------------------------------------------------
	 SCS Same-Spin Scale       =       0.3333333333333333 [-]
	 SCS Opposite-Spin Scale   =       1.2000000000000000 [-]
	 SCS Same-Spin Energy      =      -0.3500984500689759 [Eh]
	 SCS Opposite-Spin Energy  =      -3.5413396988985482 [Eh]
	 SCS Correlation Energy    =      -3.8914381489675240 [Eh]
	 SCS Total Energy          =   -1032.9351652050538632 [Eh]
	-----------------------------------------------------------

  Dipole Moment: [D]
     X:     0.0385      Y:    -0.5767      Z:     1.3024     Total:     1.4249

*** Psi4 exiting successfully. Buy a developer a beer!
