                               Psi4 1.4a3.dev225

  ==> Input File <==

--------------------------------------------------------------------------
#psi4
#
memory 32 gb

molecule  {
0 1
  O       -2.9128620    -0.4781290     1.0138340
  O       -2.9681190     0.5148030    -1.0434710
  O       -0.3129680    -3.4309860     0.4641560
  O       -0.2589710     3.4469300    -0.4801560
  O       -1.9011930    -2.4818550    -0.7520780
  O       -1.8407060     2.5208330     0.7644950
  O        3.9597560    -1.1388570    -0.0240200
  O        3.9819620     1.0692260     0.0429750
  N       -0.8439190    -2.4637400    -0.1025570
  N       -0.7967020     2.4883090     0.0943390
  N        3.4069750    -0.0290830     0.0068360
  C       -0.8642630     0.0144850    -0.0118450
  C       -0.1342560    -1.1768520    -0.0236930
  C       -0.1092970     1.1902470     0.0051550
  C        1.9306090    -0.0137700    -0.0002960
  C        1.2541590    -1.2264030    -0.0035910
  C        1.2788880     1.2129500     0.0017720
  C       -2.3868260     0.0344442    -0.0546183
  H        1.7835260    -2.1724740     0.0038120
  H        1.8267950     2.1485240     0.0024160
  H       -3.8857970    -0.4493820     0.8874840
units angstrom
no_reorient  #important for SAPT in psi4, default
symmetry c1  #important for SAPT in psi4, default
}

set PROPERTIES_ORIGIN ["COM"]
properties('MP2/aug-cc-pvtz', properties = ['dipole'])
--------------------------------------------------------------------------

    Molecular point group: c1
  Charge       = 0
  Multiplicity = 1
  Basis Set: AUG-CC-PVTZ
    Blend: AUG-CC-PVTZ
  Basis Set: (AUG-CC-PVTZ AUX)
    Blend: AUG-CC-PVTZ-JKFIT

    Orbital Energies [Eh]
    ---------------------

    Doubly Occupied:

       1A    -20.672548     2A    -20.652963     3A    -20.652647
       4A    -20.649809     5A    -20.649723     6A    -20.648988
       7A    -20.648744     8A    -20.587903     9A    -15.902873
      10A    -15.901204    11A    -15.898861    12A    -11.455483
      13A    -11.384972    14A    -11.384012    15A    -11.378863
      16A    -11.375595    17A    -11.355108    18A    -11.354799
      19A     -1.636914    20A     -1.633965    21A     -1.632318
      22A     -1.527830    23A     -1.437044    24A     -1.433964
      25A     -1.433062    26A     -1.393230    27A     -1.288928
      28A     -1.182738    29A     -1.180117    30A     -1.054002
      31A     -1.034992    32A     -1.027170    33A     -0.931440
      34A     -0.883015    35A     -0.872890    36A     -0.838464
      37A     -0.801464    38A     -0.790303    39A     -0.787403
      40A     -0.782517    41A     -0.767138    42A     -0.762315
      43A     -0.756786    44A     -0.753417    45A     -0.749082
      46A     -0.743339    47A     -0.715587    48A     -0.690650
      49A     -0.678785    50A     -0.646270    51A     -0.621388
      52A     -0.608976    53A     -0.554796    54A     -0.549542
      55A     -0.544244    56A     -0.539669    57A     -0.535446
      58A     -0.533327    59A     -0.514526    60A     -0.505045
      61A     -0.493277    62A     -0.492785    63A     -0.484212
      64A     -0.445965    65A     -0.444248

  @DF-RHF Final Energy: -1029.04552094610585

   => Energetics <=

    Nuclear Repulsion Energy =           1345.6219343201862557
    One-Electron Energy =               -4082.7955539566764855
    Two-Electron Energy =                1708.1280986903841494
    Total Energy =                      -1029.0455209461058530
  Basis Set: (AUG-CC-PVTZ AUX)
    Blend: AUG-CC-PVTZ-RI
    Molecular point group: c1

    Geometry (in Angstrom), charge = 0, multiplicity = 1:

       Center              X                  Y                   Z               Mass
    ------------   -----------------  -----------------  -----------------  -----------------
         O           -2.913043966927    -0.479032907408     1.015360156295    15.994914619570
         O           -2.968300966927     0.513899092592    -1.041944843705    15.994914619570
         O           -0.313149966927    -3.431889907408     0.465682156295    15.994914619570
         O           -0.259152966927     3.446026092592    -0.478629843705    15.994914619570
         O           -1.901374966927    -2.482758907408    -0.750551843705    15.994914619570
         O           -1.840887966927     2.519929092592     0.766021156295    15.994914619570
         O            3.959574033073    -1.139760907408    -0.022493843705    15.994914619570
         O            3.981780033073     1.068322092592     0.044501156295    15.994914619570
         N           -0.844100966927    -2.464643907408    -0.101030843705    14.003074004430
         N           -0.796883966927     2.487405092592     0.095865156295    14.003074004430
         N            3.406793033073    -0.029986907408     0.008362156295    14.003074004430
         C           -0.864444966927     0.013581092592    -0.010318843705    12.000000000000
         C           -0.134437966927    -1.177755907408    -0.022166843705    12.000000000000
         C           -0.109478966927     1.189343092592     0.006681156295    12.000000000000
         C            1.930427033073    -0.014673907408     0.001230156295    12.000000000000
         C            1.253977033073    -1.227306907408    -0.002064843705    12.000000000000
         C            1.278706033073     1.212046092592     0.003298156295    12.000000000000
         C           -2.387007966927     0.033540292592    -0.053092143705    12.000000000000
         H            1.783344033073    -2.173377907408     0.005338156295     1.007825032230
         H            1.826613033073     2.147620092592     0.003942156295     1.007825032230
         H           -3.885978966927    -0.450285907408     0.889010156295     1.007825032230

  Basis Set: AUG-CC-PVTZ
    Blend: AUG-CC-PVTZ
  Basis Set: (AUG-CC-PVTZ AUX)
    Blend: AUG-CC-PVTZ-JKFIT
	 Reference Energy          =   -1029.0455209461058530 [Eh]
	 Singles Energy            =      -0.0000000000000000 [Eh]
	 Same-Spin Energy          =      -1.0502258844170236 [Eh]
	 Opposite-Spin Energy      =      -2.9502344145458990 [Eh]
	 Correlation Energy        =      -4.0004602989629223 [Eh]
	 Total Energy              =   -1033.0459812450687878 [Eh]

	 ================> DF-SCS-MP2 Energies <==================
	-----------------------------------------------------------
	 SCS Same-Spin Scale       =       0.3333333333333333 [-]
	 SCS Opposite-Spin Scale   =       1.2000000000000000 [-]
	 SCS Same-Spin Energy      =      -0.3500752948056745 [Eh]
	 SCS Opposite-Spin Energy  =      -3.5402812974550786 [Eh]
	 SCS Correlation Energy    =      -3.8903565922607530 [Eh]
	 SCS Total Energy          =   -1032.9358775383666398 [Eh]
	-----------------------------------------------------------

  Dipole Moment: [D]
     X:    -0.3508      Y:    -0.7624      Z:     1.5237     Total:     1.7395

*** Psi4 exiting successfully. Buy a developer a beer!
