                               Psi4 1.4a3.dev225

  ==> Input File <==

--------------------------------------------------------------------------
#psi4
#
memory 32 gb

molecule  {
0 1
  O       -3.0385147    -0.4498135     0.9566035
  O       -2.9681190     0.5148030    -1.0434710
  O       -0.3129680    -3.4309860     0.4641560
  O       -0.2589710     3.4469300    -0.4801560
  O       -1.9011930    -2.4818550    -0.7520780
  O       -1.8407060     2.5208330     0.7644950
  O        3.9597560    -1.1388570    -0.0240200
  O        3.9819620     1.0692260     0.0429750
  N       -0.8439190    -2.4637400    -0.1025570
  N       -0.7967020     2.4883090     0.0943390
  N        3.4069750    -0.0290830     0.0068360
  C       -0.8642630     0.0144850    -0.0118450
  C       -0.1342560    -1.1768520    -0.0236930
  C       -0.1092970     1.1902470     0.0051550
  C        1.9306090    -0.0137700    -0.0002960
  C        1.2541590    -1.2264030    -0.0035910
  C        1.2788880     1.2129500     0.0017720
  C       -2.3665400     0.0542110    -0.0958220
  H        1.7835260    -2.1724740     0.0038120
  H        1.8267950     2.1485240     0.0024160
  H       -3.8857970    -0.4493820     0.8874840
units angstrom
no_reorient  #important for SAPT in psi4, default
symmetry c1  #important for SAPT in psi4, default
}

set PROPERTIES_ORIGIN ["COM"]
properties('MP2/aug-cc-pvtz', properties = ['dipole'])
--------------------------------------------------------------------------

    Molecular point group: c1
  Charge       = 0
  Multiplicity = 1
  Basis Set: AUG-CC-PVTZ
    Blend: AUG-CC-PVTZ
  Basis Set: (AUG-CC-PVTZ AUX)
    Blend: AUG-CC-PVTZ-JKFIT

    Orbital Energies [Eh]
    ---------------------

    Doubly Occupied:

       1A    -20.654475     2A    -20.654183     3A    -20.652640
       4A    -20.652563     5A    -20.651436     6A    -20.651368
       7A    -20.635719     8A    -20.589988     9A    -15.904533
      10A    -15.903963    11A    -15.901503    12A    -11.452940
      13A    -11.390069    14A    -11.389058    15A    -11.383279
      16A    -11.381702    17A    -11.358126    18A    -11.357901
      19A     -1.638314    20A     -1.636719    21A     -1.634963
      22A     -1.519569    23A     -1.438371    24A     -1.436675
      25A     -1.435564    26A     -1.406686    27A     -1.293460
      28A     -1.187462    29A     -1.183775    30A     -1.061766
      31A     -1.037951    32A     -1.030358    33A     -0.945727
      34A     -0.886034    35A     -0.878344    36A     -0.842884
      37A     -0.807137    38A     -0.797198    39A     -0.790619
      40A     -0.789778    41A     -0.767846    42A     -0.764499
      43A     -0.759087    44A     -0.755175    45A     -0.747220
      46A     -0.737113    47A     -0.717798    48A     -0.691487
      49A     -0.666861    50A     -0.648641    51A     -0.626412
      52A     -0.611335    53A     -0.556976    54A     -0.551190
      55A     -0.545454    56A     -0.541767    57A     -0.537863
      58A     -0.535785    59A     -0.518506    60A     -0.506667
      61A     -0.495649    62A     -0.493453    63A     -0.487083
      64A     -0.450377    65A     -0.448193

  @DF-RHF Final Energy: -1029.03467885431382

   => Energetics <=

    Nuclear Repulsion Energy =           1344.7325040101968625
    One-Electron Energy =               -4080.7198908858717914
    Two-Electron Energy =                1706.9527080213611043
    Total Energy =                      -1029.0346788543138246
  Basis Set: (AUG-CC-PVTZ AUX)
    Blend: AUG-CC-PVTZ-RI
    Molecular point group: c1

    Geometry (in Angstrom), charge = 0, multiplicity = 1:

       Center              X                  Y                   Z               Mass
    ------------   -----------------  -----------------  -----------------  -----------------
         O           -3.031823409738    -0.453402726668     0.963615590815    15.994914619570
         O           -2.961427709738     0.511213773332    -1.036458909185    15.994914619570
         O           -0.306276709738    -3.434575226668     0.471168090815    15.994914619570
         O           -0.252279709738     3.443340773332    -0.473143909185    15.994914619570
         O           -1.894501709738    -2.485444226668    -0.745065909185    15.994914619570
         O           -1.834014709738     2.517243773332     0.771507090815    15.994914619570
         O            3.966447290262    -1.142446226668    -0.017007909185    15.994914619570
         O            3.988653290262     1.065636773332     0.049987090815    15.994914619570
         N           -0.837227709738    -2.467329226668    -0.095544909185    14.003074004430
         N           -0.790010709738     2.484719773332     0.101351090815    14.003074004430
         N            3.413666290262    -0.032672226668     0.013848090815    14.003074004430
         C           -0.857571709738     0.010895773332    -0.004832909185    12.000000000000
         C           -0.127564709738    -1.180441226668    -0.016680909185    12.000000000000
         C           -0.102605709738     1.186657773332     0.012167090815    12.000000000000
         C            1.937300290262    -0.017359226668     0.006716090815    12.000000000000
         C            1.260850290262    -1.229992226668     0.003421090815    12.000000000000
         C            1.285579290262     1.209360773332     0.008784090815    12.000000000000
         C           -2.359848709738     0.050621773332    -0.088809909185    12.000000000000
         H            1.790217290262    -2.176063226668     0.010824090815     1.007825032230
         H            1.833486290262     2.144934773332     0.009428090815     1.007825032230
         H           -3.879105709738    -0.452971226668     0.894496090815     1.007825032230

  Basis Set: AUG-CC-PVTZ
    Blend: AUG-CC-PVTZ
  Basis Set: (AUG-CC-PVTZ AUX)
    Blend: AUG-CC-PVTZ-JKFIT
	 Reference Energy          =   -1029.0346788543138246 [Eh]
	 Singles Energy            =      -0.0000000000000000 [Eh]
	 Same-Spin Energy          =      -1.0478184036196536 [Eh]
	 Opposite-Spin Energy      =      -2.9460329050485248 [Eh]
	 Correlation Energy        =      -3.9938513086681784 [Eh]
	 Total Energy              =   -1033.0285301629819514 [Eh]

	 ================> DF-SCS-MP2 Energies <==================
	-----------------------------------------------------------
	 SCS Same-Spin Scale       =       0.3333333333333333 [-]
	 SCS Opposite-Spin Scale   =       1.2000000000000000 [-]
	 SCS Same-Spin Energy      =      -0.3492728012065512 [Eh]
	 SCS Opposite-Spin Energy  =      -3.5352394860582295 [Eh]
	 SCS Correlation Energy    =      -3.8845122872647808 [Eh]
	 SCS Total Energy          =   -1032.9191911415784944 [Eh]
	-----------------------------------------------------------

  Dipole Moment: [D]
     X:     0.2570      Y:    -0.6163      Z:     1.1750     Total:     1.3514

*** Psi4 exiting successfully. Buy a developer a beer!
