                               Psi4 1.4a3.dev225

  ==> Input File <==

--------------------------------------------------------------------------
#psi4
#
memory 32 gb

molecule  {
0 1
  O       -2.9128620    -0.4781290     1.0138340
  O       -2.9681190     0.5148030    -1.0434710
  O       -0.3129680    -3.4309860     0.4641560
  O       -0.2589710     3.4469300    -0.4801560
  O       -1.9011930    -2.4818550    -0.7520780
  O       -1.8407060     2.5208330     0.7644950
  O        3.9597560    -1.1388570    -0.0240200
  O        3.9819620     1.0692260     0.0429750
  N       -0.8867232    -2.3857626    -0.1482443
  N       -0.7967020     2.4883090     0.0943390
  N        3.4069750    -0.0290830     0.0068360
  C       -0.8642630     0.0144850    -0.0118450
  C       -0.1342560    -1.1768520    -0.0236930
  C       -0.1092970     1.1902470     0.0051550
  C        1.9306090    -0.0137700    -0.0002960
  C        1.2541590    -1.2264030    -0.0035910
  C        1.2788880     1.2129500     0.0017720
  C       -2.3665400     0.0542110    -0.0958220
  H        1.7835260    -2.1724740     0.0038120
  H        1.8267950     2.1485240     0.0024160
  H       -3.8857970    -0.4493820     0.8874840
units angstrom
no_reorient  #important for SAPT in psi4, default
symmetry c1  #important for SAPT in psi4, default
}

set PROPERTIES_ORIGIN ["COM"]
properties('MP2/aug-cc-pvtz', properties = ['dipole'])
--------------------------------------------------------------------------

    Molecular point group: c1
  Charge       = 0
  Multiplicity = 1
  Basis Set: AUG-CC-PVTZ
    Blend: AUG-CC-PVTZ
  Basis Set: (AUG-CC-PVTZ AUX)
    Blend: AUG-CC-PVTZ-JKFIT

    Orbital Energies [Eh]
    ---------------------

    Doubly Occupied:

       1A    -20.683340     2A    -20.662841     3A    -20.651734
       4A    -20.651557     5A    -20.651335     6A    -20.651280
       7A    -20.617079     8A    -20.601244     9A    -15.902873
      10A    -15.901554    11A    -15.896966    12A    -11.457108
      13A    -11.386749    14A    -11.386638    15A    -11.381688
      16A    -11.377629    17A    -11.358886    18A    -11.358408
      19A     -1.652129    20A     -1.635568    21A     -1.635184
      22A     -1.511243    23A     -1.435868    24A     -1.435398
      25A     -1.410844    26A     -1.394900    27A     -1.293349
      28A     -1.193329    29A     -1.183932    30A     -1.059437
      31A     -1.044655    32A     -1.031996    33A     -0.927662
      34A     -0.885703    35A     -0.873121    36A     -0.839649
      37A     -0.805719    38A     -0.794748    39A     -0.789048
      40A     -0.781827    41A     -0.766668    42A     -0.762801
      43A     -0.757995    44A     -0.754783    45A     -0.748093
      46A     -0.744289    47A     -0.713013    48A     -0.693531
      49A     -0.672089    50A     -0.648466    51A     -0.633937
      52A     -0.609638    53A     -0.557787    54A     -0.548251
      55A     -0.543424    56A     -0.539939    57A     -0.537482
      58A     -0.525538    59A     -0.520268    60A     -0.513924
      61A     -0.494396    62A     -0.488917    63A     -0.482661
      64A     -0.449868    65A     -0.445744

  @DF-RHF Final Energy: -1029.03239886837446

   => Energetics <=

    Nuclear Repulsion Energy =           1346.9422563597956923
    One-Electron Energy =               -4085.2538702689166712
    Two-Electron Energy =                1709.2792150407462941
    Total Energy =                      -1029.0323988683744574
  Basis Set: (AUG-CC-PVTZ AUX)
    Blend: AUG-CC-PVTZ-RI
    Molecular point group: c1

    Geometry (in Angstrom), charge = 0, multiplicity = 1:

       Center              X                  Y                   Z               Mass
    ------------   -----------------  -----------------  -----------------  -----------------
         O           -2.911658871824    -0.484204760346     1.019773550412    15.994914619570
         O           -2.966915871824     0.508727239654    -1.037531449588    15.994914619570
         O           -0.311764871824    -3.437061760346     0.470095550412    15.994914619570
         O           -0.257767871824     3.440854239654    -0.474216449588    15.994914619570
         O           -1.899989871824    -2.487930760346    -0.746138449588    15.994914619570
         O           -1.839502871824     2.514757239654     0.770434550412    15.994914619570
         O            3.960959128176    -1.144932760346    -0.018080449588    15.994914619570
         O            3.983165128176     1.063150239654     0.048914550412    15.994914619570
         N           -0.885520071824    -2.391838360346    -0.142304749588    14.003074004430
         N           -0.795498871824     2.482233239654     0.100278550412    14.003074004430
         N            3.408178128176    -0.035158760346     0.012775550412    14.003074004430
         C           -0.863059871824     0.008409239654    -0.005905449588    12.000000000000
         C           -0.133052871824    -1.182927760346    -0.017753449588    12.000000000000
         C           -0.108093871824     1.184171239654     0.011094550412    12.000000000000
         C            1.931812128176    -0.019845760346     0.005643550412    12.000000000000
         C            1.255362128176    -1.232478760346     0.002348550412    12.000000000000
         C            1.280091128176     1.206874239654     0.007711550412    12.000000000000
         C           -2.365336871824     0.048135239654    -0.089882449588    12.000000000000
         H            1.784729128176    -2.178549760346     0.009751550412     1.007825032230
         H            1.827998128176     2.142448239654     0.008355550412     1.007825032230
         H           -3.884593871824    -0.455457760346     0.893423550412     1.007825032230

  Basis Set: AUG-CC-PVTZ
    Blend: AUG-CC-PVTZ
  Basis Set: (AUG-CC-PVTZ AUX)
    Blend: AUG-CC-PVTZ-JKFIT
	 Reference Energy          =   -1029.0323988683744574 [Eh]
	 Singles Energy            =      -0.0000000000000000 [Eh]
	 Same-Spin Energy          =      -1.0500024806767931 [Eh]
	 Opposite-Spin Energy      =      -2.9506653444430815 [Eh]
	 Correlation Energy        =      -4.0006678251198746 [Eh]
	 Total Energy              =   -1033.0330666934942201 [Eh]

	 ================> DF-SCS-MP2 Energies <==================
	-----------------------------------------------------------
	 SCS Same-Spin Scale       =       0.3333333333333333 [-]
	 SCS Opposite-Spin Scale   =       1.2000000000000000 [-]
	 SCS Same-Spin Energy      =      -0.3500008268922644 [Eh]
	 SCS Opposite-Spin Energy  =      -3.5407984133316979 [Eh]
	 SCS Correlation Energy    =      -3.8907992402239624 [Eh]
	 SCS Total Energy          =   -1032.9231981085983989 [Eh]
	-----------------------------------------------------------

  Dipole Moment: [D]
     X:    -0.2458      Y:    -0.1759      Z:     0.9732     Total:     1.0190

*** Psi4 exiting successfully. Buy a developer a beer!
