                               Psi4 1.4a3.dev225

  ==> Input File <==

--------------------------------------------------------------------------
#psi4
#
memory 32 gb

molecule  {
0 1
  O       -2.9128620    -0.4781290     1.0138340
  O       -2.9681190     0.5148030    -1.0434710
  O       -0.3129680    -3.4309860     0.4641560
  O       -0.2589710     3.4469300    -0.4801560
  O       -1.9011930    -2.4818550    -0.7520780
  O       -1.8407060     2.5208330     0.7644950
  O        3.9597560    -1.1388570    -0.0240200
  O        3.9819620     1.0692260     0.0429750
  N       -0.8439190    -2.4637400    -0.1025570
  N       -0.7967020     2.4883090     0.0943390
  N        3.4069750    -0.0290830     0.0068360
  C       -0.7793903     0.0624779    -0.0096346
  C       -0.1342560    -1.1768520    -0.0236930
  C       -0.1092970     1.1902470     0.0051550
  C        1.9306090    -0.0137700    -0.0002960
  C        1.2541590    -1.2264030    -0.0035910
  C        1.2788880     1.2129500     0.0017720
  C       -2.3665400     0.0542110    -0.0958220
  H        1.7835260    -2.1724740     0.0038120
  H        1.8267950     2.1485240     0.0024160
  H       -3.8857970    -0.4493820     0.8874840
units angstrom
no_reorient  #important for SAPT in psi4, default
symmetry c1  #important for SAPT in psi4, default
}

set PROPERTIES_ORIGIN ["COM"]
properties('MP2/aug-cc-pvtz', properties = ['dipole'])
--------------------------------------------------------------------------

    Molecular point group: c1
  Charge       = 0
  Multiplicity = 1
  Basis Set: AUG-CC-PVTZ
    Blend: AUG-CC-PVTZ
  Basis Set: (AUG-CC-PVTZ AUX)
    Blend: AUG-CC-PVTZ-JKFIT

    Orbital Energies [Eh]
    ---------------------

    Doubly Occupied:

       1A    -20.658190     2A    -20.653190     3A    -20.653087
       4A    -20.651932     5A    -20.651632     6A    -20.650031
       7A    -20.649429     8A    -20.594787     9A    -15.904881
      10A    -15.901605    11A    -15.901301    12A    -11.455583
      13A    -11.383424    14A    -11.378211    15A    -11.375723
      16A    -11.367489    17A    -11.356200    18A    -11.354201
      19A     -1.636937    20A     -1.635185    21A     -1.633936
      22A     -1.503718    23A     -1.437054    24A     -1.435658
      25A     -1.433950    26A     -1.404154    27A     -1.298041
      28A     -1.188922    29A     -1.179514    30A     -1.050015
      31A     -1.036400    32A     -1.027484    33A     -0.917484
      34A     -0.891092    35A     -0.870227    36A     -0.837282
      37A     -0.807117    38A     -0.792707    39A     -0.789835
      40A     -0.771837    41A     -0.765849    42A     -0.763947
      43A     -0.757099    44A     -0.753109    45A     -0.744936
      46A     -0.740632    47A     -0.718102    48A     -0.687348
      49A     -0.667184    50A     -0.648491    51A     -0.620628
      52A     -0.613139    53A     -0.555976    54A     -0.550555
      55A     -0.544241    56A     -0.540739    57A     -0.536281
      58A     -0.535561    59A     -0.522560    60A     -0.501851
      61A     -0.493297    62A     -0.492179    63A     -0.487776
      64A     -0.456144    65A     -0.443696

  @DF-RHF Final Energy: -1029.04018018067086

   => Energetics <=

    Nuclear Repulsion Energy =           1346.2127113455237577
    One-Electron Energy =               -4083.9842556166117902
    Two-Electron Energy =                1708.7313640904169461
    Total Energy =                      -1029.0401801806708590
  Basis Set: (AUG-CC-PVTZ AUX)
    Blend: AUG-CC-PVTZ-RI
    Molecular point group: c1

    Geometry (in Angstrom), charge = 0, multiplicity = 1:

       Center              X                  Y                   Z               Mass
    ------------   -----------------  -----------------  -----------------  -----------------
         O           -2.917954253360    -0.482196882768     1.017180911706    15.994914619570
         O           -2.973211253360     0.510735117232    -1.040124088294    15.994914619570
         O           -0.318060253360    -3.435053882768     0.467502911706    15.994914619570
         O           -0.264063253360     3.442862117232    -0.476809088294    15.994914619570
         O           -1.906285253360    -2.485922882768    -0.748731088294    15.994914619570
         O           -1.845798253360     2.516765117232     0.767841911706    15.994914619570
         O            3.954663746640    -1.142924882768    -0.020673088294    15.994914619570
         O            3.976869746640     1.065158117232     0.046321911706    15.994914619570
         N           -0.849011253360    -2.467807882768    -0.099210088294    14.003074004430
         N           -0.801794253360     2.484241117232     0.097685911706    14.003074004430
         N            3.401882746640    -0.033150882768     0.010182911706    14.003074004430
         C           -0.784482553360     0.058410017232    -0.006287688294    12.000000000000
         C           -0.139348253360    -1.180919882768    -0.020346088294    12.000000000000
         C           -0.114389253360     1.186179117232     0.008501911706    12.000000000000
         C            1.925516746640    -0.017837882768     0.003050911706    12.000000000000
         C            1.249066746640    -1.230470882768    -0.000244088294    12.000000000000
         C            1.273795746640     1.208882117232     0.005118911706    12.000000000000
         C           -2.371632253360     0.050143117232    -0.092475088294    12.000000000000
         H            1.778433746640    -2.176541882768     0.007158911706     1.007825032230
         H            1.821702746640     2.144456117232     0.005762911706     1.007825032230
         H           -3.890889253360    -0.453449882768     0.890830911706     1.007825032230

  Basis Set: AUG-CC-PVTZ
    Blend: AUG-CC-PVTZ
  Basis Set: (AUG-CC-PVTZ AUX)
    Blend: AUG-CC-PVTZ-JKFIT
	 Reference Energy          =   -1029.0401801806708590 [Eh]
	 Singles Energy            =      -0.0000000000000000 [Eh]
	 Same-Spin Energy          =      -1.0493376884496324 [Eh]
	 Opposite-Spin Energy      =      -2.9495143233832630 [Eh]
	 Correlation Energy        =      -3.9988520118328954 [Eh]
	 Total Energy              =   -1033.0390321925037824 [Eh]

	 ================> DF-SCS-MP2 Energies <==================
	-----------------------------------------------------------
	 SCS Same-Spin Scale       =       0.3333333333333333 [-]
	 SCS Opposite-Spin Scale   =       1.2000000000000000 [-]
	 SCS Same-Spin Energy      =      -0.3497792294832108 [Eh]
	 SCS Opposite-Spin Energy  =      -3.5394171880599155 [Eh]
	 SCS Correlation Energy    =      -3.8891964175431264 [Eh]
	 SCS Total Energy          =   -1032.9293765982140485 [Eh]
	-----------------------------------------------------------

  Dipole Moment: [D]
     X:    -0.2665      Y:    -0.6469      Z:     1.2005     Total:     1.3895

*** Psi4 exiting successfully. Buy a developer a beer!
