                               Psi4 1.4a3.dev225

  ==> Input File <==

--------------------------------------------------------------------------
#psi4
#
memory 32 gb

molecule  {
0 1
  O       -2.9128620    -0.4781290     1.0138340
  O       -2.9681190     0.5148030    -1.0434710
  O       -0.3129680    -3.4309860     0.4641560
  O       -0.2589710     3.4469300    -0.4801560
  O       -1.9011930    -2.4818550    -0.7520780
  O       -1.8407060     2.5208330     0.7644950
  O        3.9597560    -1.1388570    -0.0240200
  O        3.9819620     1.0692260     0.0429750
  N       -0.8439190    -2.4637400    -0.1025570
  N       -0.8808272     2.4909298     0.1483398
  N        3.4069750    -0.0290830     0.0068360
  C       -0.8642630     0.0144850    -0.0118450
  C       -0.1342560    -1.1768520    -0.0236930
  C       -0.1092970     1.1902470     0.0051550
  C        1.9306090    -0.0137700    -0.0002960
  C        1.2541590    -1.2264030    -0.0035910
  C        1.2788880     1.2129500     0.0017720
  C       -2.3665400     0.0542110    -0.0958220
  H        1.7835260    -2.1724740     0.0038120
  H        1.8267950     2.1485240     0.0024160
  H       -3.8857970    -0.4493820     0.8874840
units angstrom
no_reorient  #important for SAPT in psi4, default
symmetry c1  #important for SAPT in psi4, default
}

set PROPERTIES_ORIGIN ["COM"]
properties('MP2/aug-cc-pvtz', properties = ['dipole'])
--------------------------------------------------------------------------

    Molecular point group: c1
  Charge       = 0
  Multiplicity = 1
  Basis Set: AUG-CC-PVTZ
    Blend: AUG-CC-PVTZ
  Basis Set: (AUG-CC-PVTZ AUX)
    Blend: AUG-CC-PVTZ-JKFIT

    Orbital Energies [Eh]
    ---------------------

    Doubly Occupied:

       1A    -20.685086     2A    -20.661541     3A    -20.652064
       4A    -20.651815     5A    -20.648912     6A    -20.648826
       7A    -20.617791     8A    -20.600580     9A    -15.901927
      10A    -15.900309    11A    -15.899636    12A    -11.455452
      13A    -11.384852    14A    -11.384023    15A    -11.378400
      16A    -11.372454    17A    -11.353135    18A    -11.352879
      19A     -1.688460    20A     -1.635927    21A     -1.633023
      22A     -1.510193    23A     -1.436080    24A     -1.433002
      25A     -1.424960    26A     -1.410150    27A     -1.286735
      28A     -1.182710    29A     -1.171727    30A     -1.051307
      31A     -1.031574    32A     -1.022366    33A     -0.924741
      34A     -0.888170    35A     -0.872334    36A     -0.840051
      37A     -0.804049    38A     -0.797370    39A     -0.788664
      40A     -0.777397    41A     -0.776021    42A     -0.765318
      43A     -0.760992    44A     -0.755164    45A     -0.752332
      46A     -0.745369    47A     -0.718375    48A     -0.691493
      49A     -0.670395    50A     -0.645969    51A     -0.632170
      52A     -0.608379    53A     -0.556205    54A     -0.546506
      55A     -0.544715    56A     -0.538354    57A     -0.535486
      58A     -0.525709    59A     -0.515289    60A     -0.512521
      61A     -0.492327    62A     -0.492018    63A     -0.490237
      64A     -0.446576    65A     -0.442128

  @DF-RHF Final Energy: -1029.03961392138353

   => Energetics <=

    Nuclear Repulsion Energy =           1345.8764892785475240
    One-Electron Energy =               -4083.1907713813811824
    Two-Electron Energy =                1708.2746681814501244
    Total Energy =                      -1029.0396139213835340
  Basis Set: (AUG-CC-PVTZ AUX)
    Blend: AUG-CC-PVTZ-RI
    Molecular point group: c1

    Geometry (in Angstrom), charge = 0, multiplicity = 1:

       Center              X                  Y                   Z               Mass
    ------------   -----------------  -----------------  -----------------  -----------------
         O           -2.909407358200    -0.480098702614     1.014341709089    15.994914619570
         O           -2.964664358200     0.512833297386    -1.042963290911    15.994914619570
         O           -0.309513358200    -3.432955702614     0.464663709089    15.994914619570
         O           -0.255516358200     3.444960297386    -0.479648290911    15.994914619570
         O           -1.897738358200    -2.483824702614    -0.751570290911    15.994914619570
         O           -1.837251358200     2.518863297386     0.765002709089    15.994914619570
         O            3.963210641800    -1.140826702614    -0.023512290911    15.994914619570
         O            3.985416641800     1.067256297386     0.043482709089    15.994914619570
         N           -0.840464358200    -2.465709702614    -0.102049290911    14.003074004430
         N           -0.877372558200     2.488960097386     0.148847509089    14.003074004430
         N            3.410429641800    -0.031052702614     0.007343709089    14.003074004430
         C           -0.860808358200     0.012515297386    -0.011337290911    12.000000000000
         C           -0.130801358200    -1.178821702614    -0.023185290911    12.000000000000
         C           -0.105842358200     1.188277297386     0.005662709089    12.000000000000
         C            1.934063641800    -0.015739702614     0.000211709089    12.000000000000
         C            1.257613641800    -1.228372702614    -0.003083290911    12.000000000000
         C            1.282342641800     1.210980297386     0.002279709089    12.000000000000
         C           -2.363085358200     0.052241297386    -0.095314290911    12.000000000000
         H            1.786980641800    -2.174443702614     0.004319709089     1.007825032230
         H            1.830249641800     2.146554297386     0.002923709089     1.007825032230
         H           -3.882342358200    -0.451351702614     0.887991709089     1.007825032230

  Basis Set: AUG-CC-PVTZ
    Blend: AUG-CC-PVTZ
  Basis Set: (AUG-CC-PVTZ AUX)
    Blend: AUG-CC-PVTZ-JKFIT
	 Reference Energy          =   -1029.0396139213835340 [Eh]
	 Singles Energy            =      -0.0000000000000000 [Eh]
	 Same-Spin Energy          =      -1.0476775176552964 [Eh]
	 Opposite-Spin Energy      =      -2.9449843402837272 [Eh]
	 Correlation Energy        =      -3.9926618579390238 [Eh]
	 Total Energy              =   -1033.0322757793226174 [Eh]

	 ================> DF-SCS-MP2 Energies <==================
	-----------------------------------------------------------
	 SCS Same-Spin Scale       =       0.3333333333333333 [-]
	 SCS Opposite-Spin Scale   =       1.2000000000000000 [-]
	 SCS Same-Spin Energy      =      -0.3492258392184321 [Eh]
	 SCS Opposite-Spin Energy  =      -3.5339812083404727 [Eh]
	 SCS Correlation Energy    =      -3.8832070475589049 [Eh]
	 SCS Total Energy          =   -1032.9228209689424602 [Eh]
	-----------------------------------------------------------

  Dipole Moment: [D]
     X:    -0.5739      Y:    -0.6145      Z:     1.5037     Total:     1.7228

*** Psi4 exiting successfully. Buy a developer a beer!
