                               Psi4 1.4a3.dev225

  ==> Input File <==

--------------------------------------------------------------------------
#psi4
#
memory 32 gb

molecule  {
0 1
  O       -2.9128620    -0.4781290     1.0138340
  O       -2.9681190     0.5148030    -1.0434710
  O       -0.3129680    -3.4309860     0.4641560
  O       -0.2589710     3.4469300    -0.4801560
  O       -1.9011930    -2.4818550    -0.7520780
  O       -1.8407060     2.5208330     0.7644950
  O        3.9597560    -1.1388570    -0.0240200
  O        3.9819620     1.0692260     0.0429750
  N       -0.8439190    -2.4637400    -0.1025570
  N       -0.7967020     2.4883090     0.0943390
  N        3.4069750    -0.0290830     0.0068360
  C       -0.8642630     0.0144850    -0.0118450
  C       -0.1342560    -1.1768520    -0.0236930
  C       -0.1201024     1.1734189     0.0049117
  C        1.9306090    -0.0137700    -0.0002960
  C        1.2541590    -1.2264030    -0.0035910
  C        1.2788880     1.2129500     0.0017720
  C       -2.3665400     0.0542110    -0.0958220
  H        1.7835260    -2.1724740     0.0038120
  H        1.8267950     2.1485240     0.0024160
  H       -3.8857970    -0.4493820     0.8874840
units angstrom
no_reorient  #important for SAPT in psi4, default
symmetry c1  #important for SAPT in psi4, default
}

set PROPERTIES_ORIGIN ["COM"]
properties('MP2/aug-cc-pvtz', properties = ['dipole'])
--------------------------------------------------------------------------

    Molecular point group: c1
  Charge       = 0
  Multiplicity = 1
  Basis Set: AUG-CC-PVTZ
    Blend: AUG-CC-PVTZ
  Basis Set: (AUG-CC-PVTZ AUX)
    Blend: AUG-CC-PVTZ-JKFIT

    Orbital Energies [Eh]
    ---------------------

    Doubly Occupied:

       1A    -20.657661     2A    -20.652533     3A    -20.652403
       4A    -20.650979     5A    -20.650812     6A    -20.650375
       7A    -20.649774     8A    -20.596003     9A    -15.902664
      10A    -15.902155    11A    -15.899878    12A    -11.452563
      13A    -11.386524    14A    -11.385486    15A    -11.380436
      16A    -11.373462    17A    -11.357273    18A    -11.355669
      19A     -1.636498    20A     -1.635011    21A     -1.632778
      22A     -1.506200    23A     -1.436569    24A     -1.435009
      25A     -1.433888    26A     -1.405732    27A     -1.291496
      28A     -1.185548    29A     -1.179797    30A     -1.056691
      31A     -1.035274    32A     -1.026410    33A     -0.925481
      34A     -0.885142    35A     -0.870344    36A     -0.837190
      37A     -0.803105    38A     -0.789961    39A     -0.786965
      40A     -0.777697    41A     -0.765855    42A     -0.762761
      43A     -0.757446    44A     -0.753668    45A     -0.745371
      46A     -0.741300    47A     -0.716450    48A     -0.691747
      49A     -0.667514    50A     -0.647651    51A     -0.630061
      52A     -0.609264    53A     -0.555282    54A     -0.549719
      55A     -0.544119    56A     -0.540451    57A     -0.536150
      58A     -0.533617    59A     -0.522236    60A     -0.509231
      61A     -0.494146    62A     -0.492160    63A     -0.486823
      64A     -0.449666    65A     -0.444903

  @DF-RHF Final Energy: -1029.04889877828873

   => Energetics <=

    Nuclear Repulsion Energy =           1345.9751010814579786
    One-Electron Energy =               -4083.4939413347156005
    Two-Electron Energy =                1708.4699414749688913
    Total Energy =                      -1029.0488987782887307
  Basis Set: (AUG-CC-PVTZ AUX)
    Blend: AUG-CC-PVTZ-RI
    Molecular point group: c1

    Geometry (in Angstrom), charge = 0, multiplicity = 1:

       Center              X                  Y                   Z               Mass
    ------------   -----------------  -----------------  -----------------  -----------------
         O           -2.913486654613    -0.479170127236     1.017295484916    15.994914619570
         O           -2.968743654613     0.513761872764    -1.040009515084    15.994914619570
         O           -0.313592654613    -3.432027127236     0.467617484916    15.994914619570
         O           -0.259595654613     3.445888872764    -0.476694515084    15.994914619570
         O           -1.901817654613    -2.482896127236    -0.748616515084    15.994914619570
         O           -1.841330654613     2.519791872764     0.767956484916    15.994914619570
         O            3.959131345387    -1.139898127236    -0.020558515084    15.994914619570
         O            3.981337345387     1.068184872764     0.046436484916    15.994914619570
         N           -0.844543654613    -2.464781127236    -0.099095515084    14.003074004430
         N           -0.797326654613     2.487267872764     0.097800484916    14.003074004430
         N            3.406350345387    -0.030124127236     0.010297484916    14.003074004430
         C           -0.864887654613     0.013443872764    -0.008383515084    12.000000000000
         C           -0.134880654613    -1.177893127236    -0.020231515084    12.000000000000
         C           -0.120727054613     1.172377772764     0.008373184916    12.000000000000
         C            1.929984345387    -0.014811127236     0.003165484916    12.000000000000
         C            1.253534345387    -1.227444127236    -0.000129515084    12.000000000000
         C            1.278263345387     1.211908872764     0.005233484916    12.000000000000
         C           -2.367164654613     0.053169872764    -0.092360515084    12.000000000000
         H            1.782901345387    -2.173515127236     0.007273484916     1.007825032230
         H            1.826170345387     2.147482872764     0.005877484916     1.007825032230
         H           -3.886421654613    -0.450423127236     0.890945484916     1.007825032230

  Basis Set: AUG-CC-PVTZ
    Blend: AUG-CC-PVTZ
  Basis Set: (AUG-CC-PVTZ AUX)
    Blend: AUG-CC-PVTZ-JKFIT
	 Reference Energy          =   -1029.0488987782887307 [Eh]
	 Singles Energy            =      -0.0000000000000000 [Eh]
	 Same-Spin Energy          =      -1.0499806398776068 [Eh]
	 Opposite-Spin Energy      =      -2.9503816331117272 [Eh]
	 Correlation Energy        =      -4.0003622729893342 [Eh]
	 Total Energy              =   -1033.0492610512781084 [Eh]

	 ================> DF-SCS-MP2 Energies <==================
	-----------------------------------------------------------
	 SCS Same-Spin Scale       =       0.3333333333333333 [-]
	 SCS Opposite-Spin Scale   =       1.2000000000000000 [-]
	 SCS Same-Spin Energy      =      -0.3499935466258689 [Eh]
	 SCS Opposite-Spin Energy  =      -3.5404579597340726 [Eh]
	 SCS Correlation Energy    =      -3.8904515063599416 [Eh]
	 SCS Total Energy          =   -1032.9393502846487536 [Eh]
	-----------------------------------------------------------

  Dipole Moment: [D]
     X:    -0.1483      Y:    -0.6286      Z:     1.1859     Total:     1.3503

*** Psi4 exiting successfully. Buy a developer a beer!
