                               Psi4 1.4a3.dev225

  ==> Input File <==

--------------------------------------------------------------------------
#psi4
#
memory 32 gb

molecule  {
0 1
  O       -2.9128620    -0.4781290     1.0138340
  O       -2.9681190     0.5148030    -1.0434710
  O       -0.3129680    -3.4309860     0.4641560
  O       -0.2589710     3.4469300    -0.4801560
  O       -1.9011930    -2.4818550    -0.7520780
  O       -1.8407060     2.5208330     0.7644950
  O        3.9597560    -1.1388570    -0.0240200
  O        3.9819620     1.0692260     0.0429750
  N       -0.8439190    -2.4637400    -0.1025570
  N       -0.7967020     2.4883090     0.0943390
  N        3.4069750    -0.0290830     0.0068360
  C       -0.8642630     0.0144850    -0.0118450
  C       -0.1246119    -1.1593636    -0.0226213
  C       -0.1092970     1.1902470     0.0051550
  C        1.9306090    -0.0137700    -0.0002960
  C        1.2541590    -1.2264030    -0.0035910
  C        1.2788880     1.2129500     0.0017720
  C       -2.3665400     0.0542110    -0.0958220
  H        1.7835260    -2.1724740     0.0038120
  H        1.8267950     2.1485240     0.0024160
  H       -3.8857970    -0.4493820     0.8874840
units angstrom
no_reorient  #important for SAPT in psi4, default
symmetry c1  #important for SAPT in psi4, default
}

set PROPERTIES_ORIGIN ["COM"]
properties('MP2/aug-cc-pvtz', properties = ['dipole'])
--------------------------------------------------------------------------

    Molecular point group: c1
  Charge       = 0
  Multiplicity = 1
  Basis Set: AUG-CC-PVTZ
    Blend: AUG-CC-PVTZ
  Basis Set: (AUG-CC-PVTZ AUX)
    Blend: AUG-CC-PVTZ-JKFIT

    Orbital Energies [Eh]
    ---------------------

    Doubly Occupied:

       1A    -20.657850     2A    -20.652531     3A    -20.652287
       4A    -20.650789     5A    -20.650738     6A    -20.650232
       7A    -20.650101     8A    -20.596331     9A    -15.902031
      10A    -15.902019    11A    -15.900056    12A    -11.453157
      13A    -11.386564    14A    -11.385667    15A    -11.380496
      16A    -11.374720    17A    -11.355056    18A    -11.354814
      19A     -1.635015    20A     -1.634566    21A     -1.633693
      22A     -1.506398    23A     -1.435833    24A     -1.434885
      25A     -1.434278    26A     -1.405984    27A     -1.292247
      28A     -1.184609    29A     -1.180112    30A     -1.056410
      31A     -1.034460    32A     -1.026879    33A     -0.925240
      34A     -0.883872    35A     -0.871579    36A     -0.837091
      37A     -0.802861    38A     -0.788665    39A     -0.788265
      40A     -0.777206    41A     -0.765184    42A     -0.762844
      43A     -0.757324    44A     -0.753494    45A     -0.745716
      46A     -0.741057    47A     -0.716888    48A     -0.693121
      49A     -0.667749    50A     -0.647155    51A     -0.630629
      52A     -0.610155    53A     -0.554919    54A     -0.549577
      55A     -0.543895    56A     -0.540447    57A     -0.535513
      58A     -0.533872    59A     -0.522133    60A     -0.509627
      61A     -0.494068    62A     -0.491860    63A     -0.486983
      64A     -0.448835    65A     -0.446544

  @DF-RHF Final Energy: -1029.04887424892354

   => Energetics <=

    Nuclear Repulsion Energy =           1345.9157124854277754
    One-Electron Energy =               -4083.3788183783735803
    Two-Electron Energy =                1708.4142316440222658
    Total Energy =                      -1029.0488742489235392
  Basis Set: (AUG-CC-PVTZ AUX)
    Blend: AUG-CC-PVTZ-RI
    Molecular point group: c1

    Geometry (in Angstrom), charge = 0, multiplicity = 1:

       Center              X                  Y                   Z               Mass
    ------------   -----------------  -----------------  -----------------  -----------------
         O           -2.914441524752    -0.480772503876     1.017234082229    15.994914619570
         O           -2.969698524752     0.512159496124    -1.040070917771    15.994914619570
         O           -0.314547524752    -3.433629503876     0.467556082229    15.994914619570
         O           -0.260550524752     3.444286496124    -0.476755917771    15.994914619570
         O           -1.902772524752    -2.484498503876    -0.748677917771    15.994914619570
         O           -1.842285524752     2.518189496124     0.767895082229    15.994914619570
         O            3.958176475248    -1.141500503876    -0.020619917771    15.994914619570
         O            3.980382475248     1.066582496124     0.046375082229    15.994914619570
         N           -0.845498524752    -2.466383503876    -0.099156917771    14.003074004430
         N           -0.798281524752     2.485665496124     0.097739082229    14.003074004430
         N            3.405395475248    -0.031726503876     0.010236082229    14.003074004430
         C           -0.865842524752     0.011841496124    -0.008444917771    12.000000000000
         C           -0.126191424752    -1.162007103876    -0.019221217771    12.000000000000
         C           -0.110876524752     1.187603496124     0.008555082229    12.000000000000
         C            1.929029475248    -0.016413503876     0.003104082229    12.000000000000
         C            1.252579475248    -1.229046503876    -0.000190917771    12.000000000000
         C            1.277308475248     1.210306496124     0.005172082229    12.000000000000
         C           -2.368119524752     0.051567496124    -0.092421917771    12.000000000000
         H            1.781946475248    -2.175117503876     0.007212082229     1.007825032230
         H            1.825215475248     2.145880496124     0.005816082229     1.007825032230
         H           -3.887376524752    -0.452025503876     0.890884082229     1.007825032230

  Basis Set: AUG-CC-PVTZ
    Blend: AUG-CC-PVTZ
  Basis Set: (AUG-CC-PVTZ AUX)
    Blend: AUG-CC-PVTZ-JKFIT
	 Reference Energy          =   -1029.0488742489235392 [Eh]
	 Singles Energy            =      -0.0000000000000000 [Eh]
	 Same-Spin Energy          =      -1.0500508050184161 [Eh]
	 Opposite-Spin Energy      =      -2.9504678295531606 [Eh]
	 Correlation Energy        =      -4.0005186345715771 [Eh]
	 Total Energy              =   -1033.0493928834951021 [Eh]

	 ================> DF-SCS-MP2 Energies <==================
	-----------------------------------------------------------
	 SCS Same-Spin Scale       =       0.3333333333333333 [-]
	 SCS Opposite-Spin Scale   =       1.2000000000000000 [-]
	 SCS Same-Spin Energy      =      -0.3500169350061387 [Eh]
	 SCS Opposite-Spin Energy  =      -3.5405613954637927 [Eh]
	 SCS Correlation Energy    =      -3.8905783304699315 [Eh]
	 SCS Total Energy          =   -1032.9394525793934463 [Eh]
	-----------------------------------------------------------

  Dipole Moment: [D]
     X:    -0.1376      Y:    -0.6084      Z:     1.1907     Total:     1.3442

*** Psi4 exiting successfully. Buy a developer a beer!
