                               Psi4 1.4a3.dev225

  ==> Input File <==

--------------------------------------------------------------------------
#psi4
#
memory 32 gb

molecule  {
0 1
  O       -2.9128620    -0.4781290     1.0138340
  O       -2.9681190     0.5148030    -1.0434710
  O       -0.3129680    -3.4309860     0.4641560
  O       -0.2589710     3.4469300    -0.4801560
  O       -1.9011930    -2.4818550    -0.7520780
  O       -1.8407060     2.5208330     0.7644950
  O        3.9597560    -1.1388570    -0.0240200
  O        3.9819620     1.0692260     0.0429750
  N       -0.8439190    -2.4637400    -0.1025570
  N       -0.7967020     2.4883090     0.0943390
  N        3.4069750    -0.0290830     0.0068360
  C       -0.8642630     0.0144850    -0.0118450
  C       -0.1583662    -1.2205729    -0.0263723
  C       -0.1092970     1.1902470     0.0051550
  C        1.9306090    -0.0137700    -0.0002960
  C        1.2541590    -1.2264030    -0.0035910
  C        1.2788880     1.2129500     0.0017720
  C       -2.3665400     0.0542110    -0.0958220
  H        1.7835260    -2.1724740     0.0038120
  H        1.8267950     2.1485240     0.0024160
  H       -3.8857970    -0.4493820     0.8874840
units angstrom
no_reorient  #important for SAPT in psi4, default
symmetry c1  #important for SAPT in psi4, default
}

set PROPERTIES_ORIGIN ["COM"]
properties('MP2/aug-cc-pvtz', properties = ['dipole'])
--------------------------------------------------------------------------

    Molecular point group: c1
  Charge       = 0
  Multiplicity = 1
  Basis Set: AUG-CC-PVTZ
    Blend: AUG-CC-PVTZ
  Basis Set: (AUG-CC-PVTZ AUX)
    Blend: AUG-CC-PVTZ-JKFIT

    Orbital Energies [Eh]
    ---------------------

    Doubly Occupied:

       1A    -20.657382     2A    -20.652783     3A    -20.652684
       4A    -20.650628     5A    -20.650475     6A    -20.650271
       7A    -20.650063     8A    -20.595467     9A    -15.903790
      10A    -15.902312    11A    -15.900437    12A    -11.451427
      13A    -11.387116    14A    -11.385195    15A    -11.379975
      16A    -11.379500    17A    -11.359392    18A    -11.357619
      19A     -1.641703    20A     -1.634822    21A     -1.633788
      22A     -1.505837    23A     -1.438647    24A     -1.434783
      25A     -1.434327    26A     -1.405293    27A     -1.286856
      28A     -1.188446    29A     -1.181922    30A     -1.059666
      31A     -1.038934    32A     -1.029136    33A     -0.922133
      34A     -0.883682    35A     -0.870147    36A     -0.837683
      37A     -0.803278    38A     -0.794149    39A     -0.788338
      40A     -0.777762    41A     -0.768685    42A     -0.763690
      43A     -0.757589    44A     -0.754100    45A     -0.746311
      46A     -0.742040    47A     -0.714201    48A     -0.687430
      49A     -0.667626    50A     -0.644240    51A     -0.627675
      52A     -0.604576    53A     -0.557038    54A     -0.550603
      55A     -0.545399    56A     -0.540033    57A     -0.538170
      58A     -0.534651    59A     -0.522862    60A     -0.508271
      61A     -0.493977    62A     -0.493096    63A     -0.487015
      64A     -0.446193    65A     -0.443598

  @DF-RHF Final Energy: -1029.04679096273367

   => Energetics <=

    Nuclear Repulsion Energy =           1345.6126413334218341
    One-Electron Energy =               -4082.7250272659152870
    Two-Electron Energy =                1708.0655949697597862
    Total Energy =                      -1029.0467909627336667
  Basis Set: (AUG-CC-PVTZ AUX)
    Blend: AUG-CC-PVTZ-RI
    Molecular point group: c1

    Geometry (in Angstrom), charge = 0, multiplicity = 1:

       Center              X                  Y                   Z               Mass
    ------------   -----------------  -----------------  -----------------  -----------------
         O           -2.912865399511    -0.477914393275     1.017409231641    15.994914619570
         O           -2.968122399511     0.515017606725    -1.039895768359    15.994914619570
         O           -0.312971399511    -3.430771393275     0.467731231641    15.994914619570
         O           -0.258974399511     3.447144606725    -0.476580768359    15.994914619570
         O           -1.901196399511    -2.481640393275    -0.748502768359    15.994914619570
         O           -1.840709399511     2.521047606725     0.768070231641    15.994914619570
         O            3.959752600489    -1.138642393275    -0.020444768359    15.994914619570
         O            3.981958600489     1.069440606725     0.046550231641    15.994914619570
         N           -0.843922399511    -2.463525393275    -0.098981768359    14.003074004430
         N           -0.796705399511     2.488523606725     0.097914231641    14.003074004430
         N            3.406971600489    -0.028868393275     0.010411231641    14.003074004430
         C           -0.864266399511     0.014699606725    -0.008269768359    12.000000000000
         C           -0.158369599511    -1.220358293275    -0.022797068359    12.000000000000
         C           -0.109300399511     1.190461606725     0.008730231641    12.000000000000
         C            1.930605600489    -0.013555393275     0.003279231641    12.000000000000
         C            1.254155600489    -1.226188393275    -0.000015768359    12.000000000000
         C            1.278884600489     1.213164606725     0.005347231641    12.000000000000
         C           -2.366543399511     0.054425606725    -0.092246768359    12.000000000000
         H            1.783522600489    -2.172259393275     0.007387231641     1.007825032230
         H            1.826791600489     2.148738606725     0.005991231641     1.007825032230
         H           -3.885800399511    -0.449167393275     0.891059231641     1.007825032230

  Basis Set: AUG-CC-PVTZ
    Blend: AUG-CC-PVTZ
  Basis Set: (AUG-CC-PVTZ AUX)
    Blend: AUG-CC-PVTZ-JKFIT
	 Reference Energy          =   -1029.0467909627336667 [Eh]
	 Singles Energy            =      -0.0000000000000000 [Eh]
	 Same-Spin Energy          =      -1.0500007405375920 [Eh]
	 Opposite-Spin Energy      =      -2.9501890904852974 [Eh]
	 Correlation Energy        =      -4.0001898310228894 [Eh]
	 Total Energy              =   -1033.0469807937565747 [Eh]

	 ================> DF-SCS-MP2 Energies <==================
	-----------------------------------------------------------
	 SCS Same-Spin Scale       =       0.3333333333333333 [-]
	 SCS Opposite-Spin Scale   =       1.2000000000000000 [-]
	 SCS Same-Spin Energy      =      -0.3500002468458639 [Eh]
	 SCS Opposite-Spin Energy  =      -3.5402269085823570 [Eh]
	 SCS Correlation Energy    =      -3.8902271554282208 [Eh]
	 SCS Total Energy          =   -1032.9370181181618591 [Eh]
	-----------------------------------------------------------

  Dipole Moment: [D]
     X:    -0.1329      Y:    -0.6354      Z:     1.1898     Total:     1.3554

*** Psi4 exiting successfully. Buy a developer a beer!
