                               Psi4 1.4a3.dev225

  ==> Input File <==

--------------------------------------------------------------------------
#psi4
#
memory 32 gb

molecule  {
0 1
  O       -2.9128620    -0.4781290     1.0138340
  O       -2.9681190     0.5148030    -1.0434710
  O       -0.3129680    -3.4309860     0.4641560
  O       -0.2589710     3.4469300    -0.4801560
  O       -1.9011930    -2.4818550    -0.7520780
  O       -1.8407060     2.5208330     0.7644950
  O        3.9597560    -1.1388570    -0.0240200
  O        3.9819620     1.0692260     0.0429750
  N       -0.8439190    -2.4637400    -0.1025570
  N       -0.7967020     2.4883090     0.0943390
  N        3.4069750    -0.0290830     0.0068360
  C       -0.8642630     0.0144850    -0.0118450
  C       -0.1342560    -1.1768520    -0.0236930
  C       -0.1092970     1.1902470     0.0051550
  C        1.9306090    -0.0137700    -0.0002960
  C        1.2639022    -1.2089368    -0.0035435
  C        1.2788880     1.2129500     0.0017720
  C       -2.3665400     0.0542110    -0.0958220
  H        1.7835260    -2.1724740     0.0038120
  H        1.8267950     2.1485240     0.0024160
  H       -3.8857970    -0.4493820     0.8874840
units angstrom
no_reorient  #important for SAPT in psi4, default
symmetry c1  #important for SAPT in psi4, default
}

set PROPERTIES_ORIGIN ["COM"]
properties('MP2/aug-cc-pvtz', properties = ['dipole'])
--------------------------------------------------------------------------

    Molecular point group: c1
  Charge       = 0
  Multiplicity = 1
  Basis Set: AUG-CC-PVTZ
    Blend: AUG-CC-PVTZ
  Basis Set: (AUG-CC-PVTZ AUX)
    Blend: AUG-CC-PVTZ-JKFIT

    Orbital Energies [Eh]
    ---------------------

    Doubly Occupied:

       1A    -20.657548     2A    -20.653013     3A    -20.652718
       4A    -20.651029     5A    -20.650761     6A    -20.650002
       7A    -20.649912     8A    -20.595879     9A    -15.903326
      10A    -15.902107    11A    -15.899986    12A    -11.452360
      13A    -11.387171    14A    -11.385119    15A    -11.378494
      16A    -11.375639    17A    -11.355900    18A    -11.355123
      19A     -1.636787    20A     -1.635066    21A     -1.633545
      22A     -1.506057    23A     -1.436874    24A     -1.435031
      25A     -1.434106    26A     -1.405605    27A     -1.291312
      28A     -1.186361    29A     -1.180210    30A     -1.055833
      31A     -1.036342    32A     -1.028564    33A     -0.924496
      34A     -0.884267    35A     -0.870734    36A     -0.837489
      37A     -0.803015    38A     -0.791504    39A     -0.787959
      40A     -0.776946    41A     -0.766077    42A     -0.763144
      43A     -0.757326    44A     -0.753619    45A     -0.745909
      46A     -0.741393    47A     -0.716127    48A     -0.689536
      49A     -0.667903    50A     -0.645459    51A     -0.629332
      52A     -0.609020    53A     -0.555560    54A     -0.549863
      55A     -0.544362    56A     -0.540479    57A     -0.536449
      58A     -0.534367    59A     -0.522388    60A     -0.509091
      61A     -0.494128    62A     -0.492399    63A     -0.486841
      64A     -0.449428    65A     -0.444995

  @DF-RHF Final Energy: -1029.04907093474753

   => Energetics <=

    Nuclear Repulsion Energy =           1345.9825153171225338
    One-Electron Energy =               -4083.5043964229816993
    Two-Electron Energy =                1708.4728101711118597
    Total Energy =                      -1029.0490709347475331
  Basis Set: (AUG-CC-PVTZ AUX)
    Blend: AUG-CC-PVTZ-RI
    Molecular point group: c1

    Geometry (in Angstrom), charge = 0, multiplicity = 1:

       Center              X                  Y                   Z               Mass
    ------------   -----------------  -----------------  -----------------  -----------------
         O           -2.914446152133    -0.480771467268     1.017281906284    15.994914619570
         O           -2.969703152133     0.512160532732    -1.040023093716    15.994914619570
         O           -0.314552152133    -3.433628467268     0.467603906284    15.994914619570
         O           -0.260555152133     3.444287532732    -0.476708093716    15.994914619570
         O           -1.902777152133    -2.484497467268    -0.748630093716    15.994914619570
         O           -1.842290152133     2.518190532732     0.767942906284    15.994914619570
         O            3.958171847867    -1.141499467268    -0.020572093716    15.994914619570
         O            3.980377847867     1.066583532732     0.046422906284    15.994914619570
         N           -0.845503152133    -2.466382467268    -0.099109093716    14.003074004430
         N           -0.798286152133     2.485666532732     0.097786906284    14.003074004430
         N            3.405390847867    -0.031725467268     0.010283906284    14.003074004430
         C           -0.865847152133     0.011842532732    -0.008397093716    12.000000000000
         C           -0.135840152133    -1.179494467268    -0.020245093716    12.000000000000
         C           -0.110881152133     1.187604532732     0.008602906284    12.000000000000
         C            1.929024847867    -0.016412467268     0.003151906284    12.000000000000
         C            1.262318047867    -1.211579267268    -0.000095593716    12.000000000000
         C            1.277303847867     1.210307532732     0.005219906284    12.000000000000
         C           -2.368124152133     0.051568532732    -0.092374093716    12.000000000000
         H            1.781941847867    -2.175116467268     0.007259906284     1.007825032230
         H            1.825210847867     2.145881532732     0.005863906284     1.007825032230
         H           -3.887381152133    -0.452024467268     0.890931906284     1.007825032230

  Basis Set: AUG-CC-PVTZ
    Blend: AUG-CC-PVTZ
  Basis Set: (AUG-CC-PVTZ AUX)
    Blend: AUG-CC-PVTZ-JKFIT
	 Reference Energy          =   -1029.0490709347475331 [Eh]
	 Singles Energy            =      -0.0000000000000000 [Eh]
	 Same-Spin Energy          =      -1.0499790817415044 [Eh]
	 Opposite-Spin Energy      =      -2.9502759916829615 [Eh]
	 Correlation Energy        =      -4.0002550734244657 [Eh]
	 Total Energy              =   -1033.0493260081721019 [Eh]

	 ================> DF-SCS-MP2 Energies <==================
	-----------------------------------------------------------
	 SCS Same-Spin Scale       =       0.3333333333333333 [-]
	 SCS Opposite-Spin Scale   =       1.2000000000000000 [-]
	 SCS Same-Spin Energy      =      -0.3499930272471681 [Eh]
	 SCS Opposite-Spin Energy  =      -3.5403311900195535 [Eh]
	 SCS Correlation Energy    =      -3.8903242172667216 [Eh]
	 SCS Total Energy          =   -1032.9393951520141854 [Eh]
	-----------------------------------------------------------

  Dipole Moment: [D]
     X:    -0.1434      Y:    -0.6359      Z:     1.1883     Total:     1.3554

*** Psi4 exiting successfully. Buy a developer a beer!
