                               Psi4 1.4a3.dev225

  ==> Input File <==

--------------------------------------------------------------------------
#psi4
#
memory 32 gb

molecule  {
0 1
  O       -2.9128620    -0.4781290     1.0138340
  O       -2.9681190     0.5148030    -1.0434710
  O       -0.3129680    -3.4309860     0.4641560
  O       -0.2589710     3.4469300    -0.4801560
  O       -1.9011930    -2.4818550    -0.7520780
  O       -1.8407060     2.5208330     0.7644950
  O        3.9402964    -1.1483281    -0.0244040
  O        3.9819620     1.0692260     0.0429750
  N       -0.8439190    -2.4637400    -0.1025570
  N       -0.7967020     2.4883090     0.0943390
  N        3.4069750    -0.0290830     0.0068360
  C       -0.8642630     0.0144850    -0.0118450
  C       -0.1342560    -1.1768520    -0.0236930
  C       -0.1092970     1.1902470     0.0051550
  C        1.9306090    -0.0137700    -0.0002960
  C        1.2541590    -1.2264030    -0.0035910
  C        1.2788880     1.2129500     0.0017720
  C       -2.3665400     0.0542110    -0.0958220
  H        1.7835260    -2.1724740     0.0038120
  H        1.8267950     2.1485240     0.0024160
  H       -3.8857970    -0.4493820     0.8874840
units angstrom
no_reorient  #important for SAPT in psi4, default
symmetry c1  #important for SAPT in psi4, default
}

set PROPERTIES_ORIGIN ["COM"]
properties('MP2/aug-cc-pvtz', properties = ['dipole'])
--------------------------------------------------------------------------

    Molecular point group: c1
  Charge       = 0
  Multiplicity = 1
  Basis Set: AUG-CC-PVTZ
    Blend: AUG-CC-PVTZ
  Basis Set: (AUG-CC-PVTZ AUX)
    Blend: AUG-CC-PVTZ-JKFIT

    Orbital Energies [Eh]
    ---------------------

    Doubly Occupied:

       1A    -20.657467     2A    -20.652513     3A    -20.652313
       4A    -20.652169     5A    -20.651468     6A    -20.649942
       7A    -20.649793     8A    -20.595789     9A    -15.902727
      10A    -15.902560    11A    -15.899848    12A    -11.452338
      13A    -11.386259    14A    -11.385049    15A    -11.379413
      16A    -11.375540    17A    -11.355384    18A    -11.355154
      19A     -1.636427    20A     -1.635090    21A     -1.633445
      22A     -1.505973    23A     -1.437124    24A     -1.436474
      25A     -1.434013    26A     -1.405513    27A     -1.290010
      28A     -1.183710    29A     -1.180990    30A     -1.056176
      31A     -1.035392    32A     -1.027753    33A     -0.924164
      34A     -0.883585    35A     -0.871087    36A     -0.837597
      37A     -0.802685    38A     -0.789837    39A     -0.788175
      40A     -0.777143    41A     -0.765830    42A     -0.763001
      43A     -0.758131    44A     -0.754237    45A     -0.745578
      46A     -0.741218    47A     -0.715861    48A     -0.691040
      49A     -0.667407    50A     -0.645918    51A     -0.629616
      52A     -0.608061    53A     -0.555018    54A     -0.549671
      55A     -0.544909    56A     -0.541132    57A     -0.535813
      58A     -0.534206    59A     -0.522200    60A     -0.508987
      61A     -0.495382    62A     -0.492062    63A     -0.486734
      64A     -0.447279    65A     -0.445561

  @DF-RHF Final Energy: -1029.04918743456278

   => Energetics <=

    Nuclear Repulsion Energy =           1346.1067496379685053
    One-Electron Energy =               -4083.7659903185258372
    Two-Electron Energy =                1708.6100532459947772
    Total Energy =                      -1029.0491874345627821
  Basis Set: (AUG-CC-PVTZ AUX)
    Blend: AUG-CC-PVTZ-RI
    Molecular point group: c1

    Geometry (in Angstrom), charge = 0, multiplicity = 1:

       Center              X                  Y                   Z               Mass
    ------------   -----------------  -----------------  -----------------  -----------------
         O           -2.912780057402    -0.479366428138     1.017308024010    15.994914619570
         O           -2.968037057402     0.513565571862    -1.039996975990    15.994914619570
         O           -0.312886057402    -3.432223428138     0.467630024010    15.994914619570
         O           -0.258889057402     3.445692571862    -0.476681975990    15.994914619570
         O           -1.901111057402    -2.483092428138    -0.748603975990    15.994914619570
         O           -1.840624057402     2.519595571862     0.767969024010    15.994914619570
         O            3.940378342598    -1.149565528138    -0.020929975990    15.994914619570
         O            3.982043942598     1.067988571862     0.046449024010    15.994914619570
         N           -0.843837057402    -2.464977428138    -0.099082975990    14.003074004430
         N           -0.796620057402     2.487071571862     0.097813024010    14.003074004430
         N            3.407056942598    -0.030320428138     0.010310024010    14.003074004430
         C           -0.864181057402     0.013247571862    -0.008370975990    12.000000000000
         C           -0.134174057402    -1.178089428138    -0.020218975990    12.000000000000
         C           -0.109215057402     1.189009571862     0.008629024010    12.000000000000
         C            1.930690942598    -0.015007428138     0.003178024010    12.000000000000
         C            1.254240942598    -1.227640428138    -0.000116975990    12.000000000000
         C            1.278969942598     1.211712571862     0.005246024010    12.000000000000
         C           -2.366458057402     0.052973571862    -0.092347975990    12.000000000000
         H            1.783607942598    -2.173711428138     0.007286024010     1.007825032230
         H            1.826876942598     2.147286571862     0.005890024010     1.007825032230
         H           -3.885715057402    -0.450619428138     0.890958024010     1.007825032230

  Basis Set: AUG-CC-PVTZ
    Blend: AUG-CC-PVTZ
  Basis Set: (AUG-CC-PVTZ AUX)
    Blend: AUG-CC-PVTZ-JKFIT
	 Reference Energy          =   -1029.0491874345627821 [Eh]
	 Singles Energy            =      -0.0000000000000000 [Eh]
	 Same-Spin Energy          =      -1.0500574788383306 [Eh]
	 Opposite-Spin Energy      =      -2.9503931065556452 [Eh]
	 Correlation Energy        =      -4.0004505853939758 [Eh]
	 Total Energy              =   -1033.0496380199567739 [Eh]

	 ================> DF-SCS-MP2 Energies <==================
	-----------------------------------------------------------
	 SCS Same-Spin Scale       =       0.3333333333333333 [-]
	 SCS Opposite-Spin Scale   =       1.2000000000000000 [-]
	 SCS Same-Spin Energy      =      -0.3500191596127769 [Eh]
	 SCS Opposite-Spin Energy  =      -3.5404717278667741 [Eh]
	 SCS Correlation Energy    =      -3.8904908874795510 [Eh]
	 SCS Total Energy          =   -1032.9396783220422549 [Eh]
	-----------------------------------------------------------

  Dipole Moment: [D]
     X:    -0.0739      Y:    -0.6106      Z:     1.1912     Total:     1.3407

*** Psi4 exiting successfully. Buy a developer a beer!
