                               Psi4 1.4a3.dev225

  ==> Input File <==

--------------------------------------------------------------------------
#psi4
#
memory 32 gb

molecule  {
0 1
  O       -2.9128620    -0.4781290     1.0138340
  O       -2.9681190     0.5148030    -1.0434710
  O       -0.3129680    -3.4309860     0.4641560
  O       -0.2589710     3.4469300    -0.4801560
  O       -1.9011930    -2.4818550    -0.7520780
  O       -1.8407060     2.5208330     0.7644950
  O        4.0727738    -1.0750395    -0.0215227
  O        3.9819620     1.0692260     0.0429750
  N       -0.8439190    -2.4637400    -0.1025570
  N       -0.7967020     2.4883090     0.0943390
  N        3.4069750    -0.0290830     0.0068360
  C       -0.8642630     0.0144850    -0.0118450
  C       -0.1342560    -1.1768520    -0.0236930
  C       -0.1092970     1.1902470     0.0051550
  C        1.9306090    -0.0137700    -0.0002960
  C        1.2541590    -1.2264030    -0.0035910
  C        1.2788880     1.2129500     0.0017720
  C       -2.3665400     0.0542110    -0.0958220
  H        1.7835260    -2.1724740     0.0038120
  H        1.8267950     2.1485240     0.0024160
  H       -3.8857970    -0.4493820     0.8874840
units angstrom
no_reorient  #important for SAPT in psi4, default
symmetry c1  #important for SAPT in psi4, default
}

set PROPERTIES_ORIGIN ["COM"]
properties('MP2/aug-cc-pvtz', properties = ['dipole'])
--------------------------------------------------------------------------

    Molecular point group: c1
  Charge       = 0
  Multiplicity = 1
  Basis Set: AUG-CC-PVTZ
    Blend: AUG-CC-PVTZ
  Basis Set: (AUG-CC-PVTZ AUX)
    Blend: AUG-CC-PVTZ-JKFIT

    Orbital Energies [Eh]
    ---------------------

    Doubly Occupied:

       1A    -20.659099     2A    -20.654395     3A    -20.654181
       4A    -20.651663     5A    -20.651489     6A    -20.645025
       7A    -20.641635     8A    -20.597621     9A    -15.904492
      10A    -15.901669    11A    -15.897898    12A    -11.454243
      13A    -11.389065    14A    -11.387748    15A    -11.385376
      16A    -11.378484    17A    -11.359497    18A    -11.358752
      19A     -1.638294    20A     -1.635185    21A     -1.633743
      22A     -1.507678    23A     -1.438343    24A     -1.435683
      25A     -1.420490    26A     -1.407243    27A     -1.293496
      28A     -1.188666    29A     -1.183657    30A     -1.059026
      31A     -1.038642    32A     -1.030686    33A     -0.925068
      34A     -0.885596    35A     -0.871729    36A     -0.835016
      37A     -0.804109    38A     -0.791363    39A     -0.789092
      40A     -0.779345    41A     -0.767309    42A     -0.764669
      43A     -0.753058    44A     -0.750065    45A     -0.746827
      46A     -0.742936    47A     -0.716650    48A     -0.694167
      49A     -0.669332    50A     -0.648615    51A     -0.631662
      52A     -0.610751    53A     -0.557810    54A     -0.551490
      55A     -0.544714    56A     -0.539179    57A     -0.537572
      58A     -0.526938    59A     -0.523879    60A     -0.510899
      61A     -0.493783    62A     -0.488254    63A     -0.485546
      64A     -0.450215    65A     -0.448531

  @DF-RHF Final Energy: -1029.04636494396118

   => Energetics <=

    Nuclear Repulsion Energy =           1344.2807985795045624
    One-Electron Energy =               -4080.0156673655314989
    Two-Electron Energy =                1706.6885038420655292
    Total Energy =                      -1029.0463649439611800
  Basis Set: (AUG-CC-PVTZ AUX)
    Blend: AUG-CC-PVTZ-RI
    Molecular point group: c1

    Geometry (in Angstrom), charge = 0, multiplicity = 1:

       Center              X                  Y                   Z               Mass
    ------------   -----------------  -----------------  -----------------  -----------------
         O           -2.921025312453    -0.483927834079     1.017128694907    15.994914619570
         O           -2.976282312453     0.509004165921    -1.040176305093    15.994914619570
         O           -0.321131312453    -3.436784834079     0.467450694907    15.994914619570
         O           -0.267134312453     3.441131165921    -0.476861305093    15.994914619570
         O           -1.909356312453    -2.487653834079    -0.748783305093    15.994914619570
         O           -1.848869312453     2.515034165921     0.767789694907    15.994914619570
         O            4.064610487547    -1.080838334079    -0.018228005093    15.994914619570
         O            3.973798687547     1.063427165921     0.046269694907    15.994914619570
         N           -0.852082312453    -2.469538834079    -0.099262305093    14.003074004430
         N           -0.804865312453     2.482510165921     0.097633694907    14.003074004430
         N            3.398811687547    -0.034881834079     0.010130694907    14.003074004430
         C           -0.872426312453     0.008686165921    -0.008550305093    12.000000000000
         C           -0.142419312453    -1.182650834079    -0.020398305093    12.000000000000
         C           -0.117460312453     1.184448165921     0.008449694907    12.000000000000
         C            1.922445687547    -0.019568834079     0.002998694907    12.000000000000
         C            1.245995687547    -1.232201834079    -0.000296305093    12.000000000000
         C            1.270724687547     1.207151165921     0.005066694907    12.000000000000
         C           -2.374703312453     0.048412165921    -0.092527305093    12.000000000000
         H            1.775362687547    -2.178272834079     0.007106694907     1.007825032230
         H            1.818631687547     2.142725165921     0.005710694907     1.007825032230
         H           -3.893960312453    -0.455180834079     0.890778694907     1.007825032230

  Basis Set: AUG-CC-PVTZ
    Blend: AUG-CC-PVTZ
  Basis Set: (AUG-CC-PVTZ AUX)
    Blend: AUG-CC-PVTZ-JKFIT
	 Reference Energy          =   -1029.0463649439611800 [Eh]
	 Singles Energy            =      -0.0000000000000000 [Eh]
	 Same-Spin Energy          =      -1.0496393117032867 [Eh]
	 Opposite-Spin Energy      =      -2.9500510310214834 [Eh]
	 Correlation Energy        =      -3.9996903427247701 [Eh]
	 Total Energy              =   -1033.0460552866859416 [Eh]

	 ================> DF-SCS-MP2 Energies <==================
	-----------------------------------------------------------
	 SCS Same-Spin Scale       =       0.3333333333333333 [-]
	 SCS Opposite-Spin Scale   =       1.2000000000000000 [-]
	 SCS Same-Spin Energy      =      -0.3498797705677622 [Eh]
	 SCS Opposite-Spin Energy  =      -3.5400612372257800 [Eh]
	 SCS Correlation Energy    =      -3.8899410077935421 [Eh]
	 SCS Total Energy          =   -1032.9363059517547754 [Eh]
	-----------------------------------------------------------

  Dipole Moment: [D]
     X:    -0.4991      Y:    -0.6701      Z:     1.1854     Total:     1.4503

*** Psi4 exiting successfully. Buy a developer a beer!
