                               Psi4 1.4a3.dev225

  ==> Input File <==

--------------------------------------------------------------------------
#psi4
#
memory 32 gb

molecule  {
0 1
  O       -2.9128620    -0.4781290     1.0138340
  O       -2.9681190     0.5148030    -1.0434710
  O       -0.3129680    -3.4309860     0.4641560
  O       -0.2589710     3.4469300    -0.4801560
  O       -1.9011930    -2.4818550    -0.7520780
  O       -1.8407060     2.5208330     0.7644950
  O        3.9597560    -1.1388570    -0.0240200
  O        3.9819620     1.0692260     0.0429750
  N       -0.8439190    -2.4637400    -0.1025570
  N       -0.7967020     2.4883090     0.0943390
  N        3.4069750    -0.0290830     0.0068360
  C       -0.8642630     0.0144850    -0.0118450
  C       -0.0378152    -1.0019683    -0.0129757
  C       -0.1092970     1.1902470     0.0051550
  C        1.9306090    -0.0137700    -0.0002960
  C        1.2541590    -1.2264030    -0.0035910
  C        1.2788880     1.2129500     0.0017720
  C       -2.3665400     0.0542110    -0.0958220
  H        1.7835260    -2.1724740     0.0038120
  H        1.8267950     2.1485240     0.0024160
  H       -3.8857970    -0.4493820     0.8874840
units angstrom
no_reorient  #important for SAPT in psi4, default
symmetry c1  #important for SAPT in psi4, default
}

set PROPERTIES_ORIGIN ["COM"]
properties('MP2/aug-cc-pvtz', properties = ['dipole'])
--------------------------------------------------------------------------

    Molecular point group: c1
  Charge       = 0
  Multiplicity = 1
  Basis Set: AUG-CC-PVTZ
    Blend: AUG-CC-PVTZ
  Basis Set: (AUG-CC-PVTZ AUX)
    Blend: AUG-CC-PVTZ-JKFIT

    Orbital Energies [Eh]
    ---------------------

    Doubly Occupied:

       1A    -20.659258     2A    -20.653345     3A    -20.653014
       4A    -20.652016     5A    -20.651919     6A    -20.644055
       7A    -20.643461     8A    -20.599344     9A    -15.903227
      10A    -15.900973    11A    -15.883566    12A    -11.459106
      13A    -11.390318    14A    -11.388578    15A    -11.385156
      16A    -11.367655    17A    -11.352020    18A    -11.348848
      19A     -1.637020    20A     -1.635383    21A     -1.614273
      22A     -1.508199    23A     -1.437008    24A     -1.435914
      25A     -1.422545    26A     -1.408313    27A     -1.313298
      28A     -1.194541    29A     -1.173465    30A     -1.066571
      31A     -1.035808    32A     -0.993162    33A     -0.936400
      34A     -0.883638    35A     -0.873864    36A     -0.836956
      37A     -0.806151    38A     -0.791278    39A     -0.782307
      40A     -0.767259    41A     -0.763726    42A     -0.758187
      43A     -0.755388    44A     -0.749373    45A     -0.746334
      46A     -0.735395    47A     -0.723302    48A     -0.704008
      49A     -0.668769    50A     -0.653793    51A     -0.635257
      52A     -0.628283    53A     -0.554485    54A     -0.547622
      55A     -0.543870    56A     -0.539663    57A     -0.534140
      58A     -0.526316    59A     -0.516418    60A     -0.497778
      61A     -0.495951    62A     -0.488126    63A     -0.483927
      64A     -0.459405    65A     -0.452250

  @DF-RHF Final Energy: -1029.00950415025250

   => Energetics <=

    Nuclear Repulsion Energy =           1347.0407844310611836
    One-Electron Energy =               -4085.5986220799522926
    Two-Electron Energy =                1709.5483334986386126
    Total Energy =                      -1029.0095041502524964
  Basis Set: (AUG-CC-PVTZ AUX)
    Blend: AUG-CC-PVTZ-RI
    Molecular point group: c1

    Geometry (in Angstrom), charge = 0, multiplicity = 1:

       Center              X                  Y                   Z               Mass
    ------------   -----------------  -----------------  -----------------  -----------------
         O           -2.918494414892    -0.488121929137     1.016783690024    15.994914619570
         O           -2.973751414892     0.504810070863    -1.040521309976    15.994914619570
         O           -0.318600414892    -3.440978929137     0.467105690024    15.994914619570
         O           -0.264603414892     3.436937070863    -0.477206309976    15.994914619570
         O           -1.906825414892    -2.491847929137    -0.749128309976    15.994914619570
         O           -1.846338414892     2.510840070863     0.767444690024    15.994914619570
         O            3.954123585108    -1.148849929137    -0.021070309976    15.994914619570
         O            3.976329585108     1.059233070863     0.045924690024    15.994914619570
         N           -0.849551414892    -2.473732929137    -0.099607309976    14.003074004430
         N           -0.802334414892     2.478316070863     0.097288690024    14.003074004430
         N            3.401342585108    -0.039075929137     0.009785690024    14.003074004430
         C           -0.869895414892     0.004492070863    -0.008895309976    12.000000000000
         C           -0.043447614892    -1.011961229137    -0.010026009976    12.000000000000
         C           -0.114929414892     1.180254070863     0.008104690024    12.000000000000
         C            1.924976585108    -0.023762929137     0.002653690024    12.000000000000
         C            1.248526585108    -1.236395929137    -0.000641309976    12.000000000000
         C            1.273255585108     1.202957070863     0.004721690024    12.000000000000
         C           -2.372172414892     0.044218070863    -0.092872309976    12.000000000000
         H            1.777893585108    -2.182466929137     0.006761690024     1.007825032230
         H            1.821162585108     2.138531070863     0.005365690024     1.007825032230
         H           -3.891429414892    -0.459374929137     0.890433690024     1.007825032230

  Basis Set: AUG-CC-PVTZ
    Blend: AUG-CC-PVTZ
  Basis Set: (AUG-CC-PVTZ AUX)
    Blend: AUG-CC-PVTZ-JKFIT
	 Reference Energy          =   -1029.0095041502524964 [Eh]
	 Singles Energy            =      -0.0000000000000000 [Eh]
	 Same-Spin Energy          =      -1.0523777567928874 [Eh]
	 Opposite-Spin Energy      =      -2.9542877789474424 [Eh]
	 Correlation Energy        =      -4.0066655357403302 [Eh]
	 Total Energy              =   -1033.0161696859927360 [Eh]

	 ================> DF-SCS-MP2 Energies <==================
	-----------------------------------------------------------
	 SCS Same-Spin Scale       =       0.3333333333333333 [-]
	 SCS Opposite-Spin Scale   =       1.2000000000000000 [-]
	 SCS Same-Spin Energy      =      -0.3507925855976291 [Eh]
	 SCS Opposite-Spin Energy  =      -3.5451453347369308 [Eh]
	 SCS Correlation Energy    =      -3.8959379203345601 [Eh]
	 SCS Total Energy          =   -1032.9054420705870143 [Eh]
	-----------------------------------------------------------

  Dipole Moment: [D]
     X:    -0.1018      Y:    -0.4415      Z:     1.1950     Total:     1.2780

*** Psi4 exiting successfully. Buy a developer a beer!
