                               Psi4 1.4a3.dev225

  ==> Input File <==

--------------------------------------------------------------------------
#psi4
#
memory 32 gb

molecule  {
0 1
  O       -2.9128620    -0.4781290     1.0138340
  O       -2.9681190     0.5148030    -1.0434710
  O       -0.3129680    -3.4309860     0.4641560
  O       -0.2589710     3.4469300    -0.4801560
  O       -1.9011930    -2.4818550    -0.7520780
  O       -1.8407060     2.5208330     0.7644950
  O        3.9597560    -1.1388570    -0.0240200
  O        3.9819620     1.0692260     0.0429750
  N       -0.8439190    -2.4637400    -0.1025570
  N       -0.7967020     2.4883090     0.0943390
  N        3.4069750    -0.0290830     0.0068360
  C       -0.8642630     0.0144850    -0.0118450
  C       -0.1342560    -1.1768520    -0.0236930
  C       -0.1092970     1.1902470     0.0051550
  C        2.1305959    -0.0158443     0.0006701
  C        1.2541590    -1.2264030    -0.0035910
  C        1.2788880     1.2129500     0.0017720
  C       -2.3665400     0.0542110    -0.0958220
  H        1.7835260    -2.1724740     0.0038120
  H        1.8267950     2.1485240     0.0024160
  H       -3.8857970    -0.4493820     0.8874840
units angstrom
no_reorient  #important for SAPT in psi4, default
symmetry c1  #important for SAPT in psi4, default
}

set PROPERTIES_ORIGIN ["COM"]
properties('MP2/aug-cc-pvtz', properties = ['dipole'])
--------------------------------------------------------------------------

    Molecular point group: c1
  Charge       = 0
  Multiplicity = 1
  Basis Set: AUG-CC-PVTZ
    Blend: AUG-CC-PVTZ
  Basis Set: (AUG-CC-PVTZ AUX)
    Blend: AUG-CC-PVTZ-JKFIT

    Orbital Energies [Eh]
    ---------------------

    Doubly Occupied:

       1A    -20.662002     2A    -20.654186     3A    -20.654065
       4A    -20.651615     5A    -20.651515     6A    -20.639908
       7A    -20.639824     8A    -20.601354     9A    -15.905461
      10A    -15.902714    11A    -15.893379    12A    -11.457986
      13A    -11.389503    14A    -11.387674    15A    -11.386358
      16A    -11.380029    17A    -11.373946    18A    -11.373391
      19A     -1.651265    20A     -1.638369    21A     -1.635394
      22A     -1.510793    23A     -1.438377    24A     -1.435892
      25A     -1.434452    26A     -1.410467    27A     -1.282445
      28A     -1.215982    29A     -1.180850    30A     -1.078792
      31A     -1.046445    32A     -1.014422    33A     -0.929974
      34A     -0.884417    35A     -0.867808    36A     -0.837837
      37A     -0.802994    38A     -0.795876    39A     -0.792378
      40A     -0.777869    41A     -0.775895    42A     -0.766998
      43A     -0.764038    44A     -0.755235    45A     -0.747777
      46A     -0.743037    47A     -0.713322    48A     -0.699043
      49A     -0.667934    50A     -0.635142    51A     -0.608208
      52A     -0.595143    53A     -0.556625    54A     -0.552070
      55A     -0.546074    56A     -0.543645    57A     -0.537533
      58A     -0.531666    59A     -0.524538    60A     -0.512669
      61A     -0.493892    62A     -0.492052    63A     -0.488698
      64A     -0.447193    65A     -0.433934

  @DF-RHF Final Energy: -1028.99885796729382

   => Energetics <=

    Nuclear Repulsion Energy =           1344.6435156645659390
    One-Electron Energy =               -4080.4840032495380910
    Two-Electron Energy =                1706.8416296176781088
    Total Energy =                      -1028.9988579672938158
  Basis Set: (AUG-CC-PVTZ AUX)
    Blend: AUG-CC-PVTZ-RI
    Molecular point group: c1

    Geometry (in Angstrom), charge = 0, multiplicity = 1:

       Center              X                  Y                   Z               Mass
    ------------   -----------------  -----------------  -----------------  -----------------
         O           -2.923329402487    -0.479859042029     1.017239013122    15.994914619570
         O           -2.978586402487     0.513072957971    -1.040065986878    15.994914619570
         O           -0.323435402487    -3.432716042029     0.467561013122    15.994914619570
         O           -0.269438402487     3.445199957971    -0.476750986878    15.994914619570
         O           -1.911660402487    -2.483585042029    -0.748672986878    15.994914619570
         O           -1.851173402487     2.519102957971     0.767900013122    15.994914619570
         O            3.949288597513    -1.140587042029    -0.020614986878    15.994914619570
         O            3.971494597513     1.067495957971     0.046380013122    15.994914619570
         N           -0.854386402487    -2.465470042029    -0.099151986878    14.003074004430
         N           -0.807169402487     2.486578957971     0.097744013122    14.003074004430
         N            3.396507597513    -0.030813042029     0.010241013122    14.003074004430
         C           -0.874730402487     0.012754957971    -0.008439986878    12.000000000000
         C           -0.144723402487    -1.178582042029    -0.020287986878    12.000000000000
         C           -0.119764402487     1.188516957971     0.008560013122    12.000000000000
         C            2.120128497513    -0.017574342029     0.004075113122    12.000000000000
         C            1.243691597513    -1.228133042029    -0.000185986878    12.000000000000
         C            1.268420597513     1.211219957971     0.005177013122    12.000000000000
         C           -2.377007402487     0.052480957971    -0.092416986878    12.000000000000
         H            1.773058597513    -2.174204042029     0.007217013122     1.007825032230
         H            1.816327597513     2.146793957971     0.005821013122     1.007825032230
         H           -3.896264402487    -0.451112042029     0.890889013122     1.007825032230

  Basis Set: AUG-CC-PVTZ
    Blend: AUG-CC-PVTZ
  Basis Set: (AUG-CC-PVTZ AUX)
    Blend: AUG-CC-PVTZ-JKFIT
	 Reference Energy          =   -1028.9988579672938158 [Eh]
	 Singles Energy            =      -0.0000000000000000 [Eh]
	 Same-Spin Energy          =      -1.0508211314735150 [Eh]
	 Opposite-Spin Energy      =      -2.9514231085915696 [Eh]
	 Correlation Energy        =      -4.0022442400650844 [Eh]
	 Total Energy              =   -1033.0011022073588265 [Eh]

	 ================> DF-SCS-MP2 Energies <==================
	-----------------------------------------------------------
	 SCS Same-Spin Scale       =       0.3333333333333333 [-]
	 SCS Opposite-Spin Scale   =       1.2000000000000000 [-]
	 SCS Same-Spin Energy      =      -0.3502737104911716 [Eh]
	 SCS Opposite-Spin Energy  =      -3.5417077303098834 [Eh]
	 SCS Correlation Energy    =      -3.8919814408010551 [Eh]
	 SCS Total Energy          =   -1032.8908394080949620 [Eh]
	-----------------------------------------------------------

  Dipole Moment: [D]
     X:    -0.1332      Y:    -0.6183      Z:     1.1872     Total:     1.3451

*** Psi4 exiting successfully. Buy a developer a beer!
