                               Psi4 1.4a3.dev225

  ==> Input File <==

--------------------------------------------------------------------------
#psi4
#
memory 32 gb

molecule  {
0 1
  O       -2.9128620    -0.4781290     1.0138340
  O       -2.9681190     0.5148030    -1.0434710
  O       -0.3129680    -3.4309860     0.4641560
  O       -0.2589710     3.4469300    -0.4801560
  O       -1.9011930    -2.4818550    -0.7520780
  O       -1.8407060     2.5208330     0.7644950
  O        3.9597560    -1.1388570    -0.0240200
  O        3.9819620     1.0692260     0.0429750
  N       -0.8439190    -2.4637400    -0.1025570
  N       -0.7967020     2.4883090     0.0943390
  N        3.4069750    -0.0290830     0.0068360
  C       -0.8642630     0.0144850    -0.0118450
  C       -0.1342560    -1.1768520    -0.0236930
  C       -0.1092970     1.1902470     0.0051550
  C        1.9306090    -0.0137700    -0.0002960
  C        1.2541590    -1.2264030    -0.0035910
  C        1.2788880     1.2129500     0.0017720
  C       -2.3665400     0.0542110    -0.0958220
  H        1.7835260    -2.1724740     0.0038120
  H        1.8520627     2.1916696     0.0024457
  H       -3.8857970    -0.4493820     0.8874840
units angstrom
no_reorient  #important for SAPT in psi4, default
symmetry c1  #important for SAPT in psi4, default
}

set PROPERTIES_ORIGIN ["COM"]
properties('MP2/aug-cc-pvtz', properties = ['dipole'])
--------------------------------------------------------------------------

    Molecular point group: c1
  Charge       = 0
  Multiplicity = 1
  Basis Set: AUG-CC-PVTZ
    Blend: AUG-CC-PVTZ
  Basis Set: (AUG-CC-PVTZ AUX)
    Blend: AUG-CC-PVTZ-JKFIT

    Orbital Energies [Eh]
    ---------------------

    Doubly Occupied:

       1A    -20.657605     2A    -20.652619     3A    -20.652418
       4A    -20.650518     5A    -20.650453     6A    -20.649943
       7A    -20.649873     8A    -20.595951     9A    -15.902679
      10A    -15.901914    11A    -15.899908    12A    -11.452516
      13A    -11.386398    14A    -11.385276    15A    -11.380123
      16A    -11.375895    17A    -11.359705    18A    -11.355929
      19A     -1.636531    20A     -1.634665    21A     -1.633481
      22A     -1.506118    23A     -1.436605    24A     -1.434660
      25A     -1.434051    26A     -1.405661    27A     -1.290115
      28A     -1.184002    29A     -1.180729    30A     -1.056109
      31A     -1.035676    32A     -1.026178    33A     -0.923780
      34A     -0.883019    35A     -0.870441    36A     -0.836938
      37A     -0.802675    38A     -0.788863    39A     -0.788094
      40A     -0.774552    41A     -0.765515    42A     -0.762793
      43A     -0.756942    44A     -0.753414    45A     -0.745093
      46A     -0.740865    47A     -0.715830    48A     -0.689308
      49A     -0.667056    50A     -0.641520    51A     -0.628935
      52A     -0.608250    53A     -0.555251    54A     -0.549732
      55A     -0.543946    56A     -0.540156    57A     -0.535966
      58A     -0.534145    59A     -0.522275    60A     -0.509127
      61A     -0.493893    62A     -0.492160    63A     -0.486772
      64A     -0.447468    65A     -0.445826

  @DF-RHF Final Energy: -1029.04675513075358

   => Energetics <=

    Nuclear Repulsion Energy =           1345.5311852194708990
    One-Electron Energy =               -4082.6460723670902553
    Two-Electron Energy =                1708.0681320168657749
    Total Energy =                      -1029.0467551307535814
  Basis Set: (AUG-CC-PVTZ AUX)
    Blend: AUG-CC-PVTZ-RI
    Molecular point group: c1

    Geometry (in Angstrom), charge = 0, multiplicity = 1:

       Center              X                  Y                   Z               Mass
    ------------   -----------------  -----------------  -----------------  -----------------
         O           -2.914090292906    -0.480125100163     1.017284007779    15.994914619570
         O           -2.969347292906     0.512806899837    -1.040020992221    15.994914619570
         O           -0.314196292906    -3.432982100163     0.467606007779    15.994914619570
         O           -0.260199292906     3.444933899837    -0.476705992221    15.994914619570
         O           -1.902421292906    -2.483851100163    -0.748627992221    15.994914619570
         O           -1.841934292906     2.518836899837     0.767945007779    15.994914619570
         O            3.958527707094    -1.140853100163    -0.020569992221    15.994914619570
         O            3.980733707094     1.067229899837     0.046425007779    15.994914619570
         N           -0.845147292906    -2.465736100163    -0.099106992221    14.003074004430
         N           -0.797930292906     2.486312899837     0.097789007779    14.003074004430
         N            3.405746707094    -0.031079100163     0.010286007779    14.003074004430
         C           -0.865491292906     0.012488899837    -0.008394992221    12.000000000000
         C           -0.135484292906    -1.178848100163    -0.020242992221    12.000000000000
         C           -0.110525292906     1.188250899837     0.008605007779    12.000000000000
         C            1.929380707094    -0.015766100163     0.003154007779    12.000000000000
         C            1.252930707094    -1.228399100163    -0.000140992221    12.000000000000
         C            1.277659707094     1.210953899837     0.005222007779    12.000000000000
         C           -2.367768292906     0.052214899837    -0.092371992221    12.000000000000
         H            1.782297707094    -2.174470100163     0.007262007779     1.007825032230
         H            1.850834407094     2.189673499837     0.005895707779     1.007825032230
         H           -3.887025292906    -0.451378100163     0.890934007779     1.007825032230

  Basis Set: AUG-CC-PVTZ
    Blend: AUG-CC-PVTZ
  Basis Set: (AUG-CC-PVTZ AUX)
    Blend: AUG-CC-PVTZ-JKFIT
	 Reference Energy          =   -1029.0467551307535814 [Eh]
	 Singles Energy            =      -0.0000000000000000 [Eh]
	 Same-Spin Energy          =      -1.0502304498132027 [Eh]
	 Opposite-Spin Energy      =      -2.9507762389831802 [Eh]
	 Correlation Energy        =      -4.0010066887963829 [Eh]
	 Total Energy              =   -1033.0477618195500327 [Eh]

	 ================> DF-SCS-MP2 Energies <==================
	-----------------------------------------------------------
	 SCS Same-Spin Scale       =       0.3333333333333333 [-]
	 SCS Opposite-Spin Scale   =       1.2000000000000000 [-]
	 SCS Same-Spin Energy      =      -0.3500768166044009 [Eh]
	 SCS Opposite-Spin Energy  =      -3.5409314867798161 [Eh]
	 SCS Correlation Energy    =      -3.8910083033842171 [Eh]
	 SCS Total Energy          =   -1032.9377634341378780 [Eh]
	-----------------------------------------------------------

  Dipole Moment: [D]
     X:    -0.1139      Y:    -0.5845      Z:     1.1887     Total:     1.3295

*** Psi4 exiting successfully. Buy a developer a beer!
