                               Psi4 1.4a3.dev225

  ==> Input File <==

--------------------------------------------------------------------------
#psi4
#
memory 32 gb

molecule  {
0 1
  O       -2.9554808    -0.4693245     0.9960797
  O       -2.9681190     0.5148030    -1.0434710
  O       -0.3129680    -3.4309860     0.4641560
  O       -0.2589710     3.4469300    -0.4801560
  O       -1.9011930    -2.4818550    -0.7520780
  O       -1.8407060     2.5208330     0.7644950
  O        3.9597560    -1.1388570    -0.0240200
  O        3.9819620     1.0692260     0.0429750
  N       -0.8439190    -2.4637400    -0.1025570
  N       -0.7967020     2.4883090     0.0943390
  N        3.4069750    -0.0290830     0.0068360
  C       -0.8642630     0.0144850    -0.0118450
  C       -0.1342560    -1.1768520    -0.0236930
  C       -0.1092970     1.1902470     0.0051550
  C        1.9306090    -0.0137700    -0.0002960
  C        1.2541590    -1.2264030    -0.0035910
  C        1.2788880     1.2129500     0.0017720
  C       -2.3665400     0.0542110    -0.0958220
  H        1.7835260    -2.1724740     0.0038120
  H        1.8267950     2.1485240     0.0024160
  H       -3.8857970    -0.4493820     0.8874840
units angstrom
no_reorient  #important for SAPT in psi4, default
symmetry c1  #important for SAPT in psi4, default
}

set PROPERTIES_ORIGIN ["COM"]
properties('MP2/aug-cc-pvtz', properties = ['dipole'])
--------------------------------------------------------------------------

    Molecular point group: c1
  Charge       = 0
  Multiplicity = 1
  Basis Set: AUG-CC-PVTZ
    Blend: AUG-CC-PVTZ
  Basis Set: (AUG-CC-PVTZ AUX)
    Blend: AUG-CC-PVTZ-JKFIT

    Orbital Energies [Eh]
    ---------------------

    Doubly Occupied:

       1A    -20.653254     2A    -20.653198     3A    -20.651345
       4A    -20.651273     5A    -20.650906     6A    -20.650606
       7A    -20.650483     8A    -20.593988     9A    -15.903398
      10A    -15.902701    11A    -15.900576    12A    -11.452435
      13A    -11.387814    14A    -11.386657    15A    -11.381282
      16A    -11.377832    17A    -11.356704    18A    -11.356424
      19A     -1.637226    20A     -1.635462    21A     -1.634113
      22A     -1.509909    23A     -1.437288    24A     -1.435437
      25A     -1.434682    26A     -1.405709    27A     -1.291515
      28A     -1.185456    29A     -1.182185    30A     -1.058226
      31A     -1.036550    32A     -1.028913    33A     -0.930151
      34A     -0.884542    35A     -0.873423    36A     -0.838969
      37A     -0.803923    38A     -0.791193    39A     -0.788980
      40A     -0.783184    41A     -0.766656    42A     -0.763673
      43A     -0.757922    44A     -0.754131    45A     -0.746539
      46A     -0.740657    47A     -0.716587    48A     -0.691426
      49A     -0.667378    50A     -0.647048    51A     -0.629481
      52A     -0.609612    53A     -0.555929    54A     -0.550347
      55A     -0.544620    56A     -0.540811    57A     -0.536757
      58A     -0.534842    59A     -0.521163    60A     -0.508592
      61A     -0.494552    62A     -0.492691    63A     -0.487020
      64A     -0.448644    65A     -0.446753

  @DF-RHF Final Energy: -1029.05055489055576

   => Energetics <=

    Nuclear Repulsion Energy =           1345.4072097578921330
    One-Electron Energy =               -4082.2720385049196921
    Two-Electron Energy =                1707.8142738564720275
    Total Energy =                      -1029.0505548905557589
  Basis Set: (AUG-CC-PVTZ AUX)
    Blend: AUG-CC-PVTZ-RI
    Molecular point group: c1

    Geometry (in Angstrom), charge = 0, multiplicity = 1:

       Center              X                  Y                   Z               Mass
    ------------   -----------------  -----------------  -----------------  -----------------
         O           -2.953957452975    -0.471699382400     1.000634833345    15.994914619570
         O           -2.966595652975     0.512428117600    -1.038915866655    15.994914619570
         O           -0.311444652975    -3.433360882400     0.468711133345    15.994914619570
         O           -0.257447652975     3.444555117600    -0.475600866655    15.994914619570
         O           -1.899669652975    -2.484229882400    -0.747522866655    15.994914619570
         O           -1.839182652975     2.518458117600     0.769050133345    15.994914619570
         O            3.961279347025    -1.141231882400    -0.019464866655    15.994914619570
         O            3.983485347025     1.066851117600     0.047530133345    15.994914619570
         N           -0.842395652975    -2.466114882400    -0.098001866655    14.003074004430
         N           -0.795178652975     2.485934117600     0.098894133345    14.003074004430
         N            3.408498347025    -0.031457882400     0.011391133345    14.003074004430
         C           -0.862739652975     0.012110117600    -0.007289866655    12.000000000000
         C           -0.132732652975    -1.179226882400    -0.019137866655    12.000000000000
         C           -0.107773652975     1.187872117600     0.009710133345    12.000000000000
         C            1.932132347025    -0.016144882400     0.004259133345    12.000000000000
         C            1.255682347025    -1.228777882400     0.000964133345    12.000000000000
         C            1.280411347025     1.210575117600     0.006327133345    12.000000000000
         C           -2.365016652975     0.051836117600    -0.091266866655    12.000000000000
         H            1.785049347025    -2.174848882400     0.008367133345     1.007825032230
         H            1.828318347025     2.146149117600     0.006971133345     1.007825032230
         H           -3.884273652975    -0.451756882400     0.892039133345     1.007825032230

  Basis Set: AUG-CC-PVTZ
    Blend: AUG-CC-PVTZ
  Basis Set: (AUG-CC-PVTZ AUX)
    Blend: AUG-CC-PVTZ-JKFIT
	 Reference Energy          =   -1029.0505548905557589 [Eh]
	 Singles Energy            =      -0.0000000000000000 [Eh]
	 Same-Spin Energy          =      -1.0491693212842739 [Eh]
	 Opposite-Spin Energy      =      -2.9486675983119492 [Eh]
	 Correlation Energy        =      -3.9978369195962231 [Eh]
	 Total Energy              =   -1033.0483918101519976 [Eh]

	 ================> DF-SCS-MP2 Energies <==================
	-----------------------------------------------------------
	 SCS Same-Spin Scale       =       0.3333333333333333 [-]
	 SCS Opposite-Spin Scale   =       1.2000000000000000 [-]
	 SCS Same-Spin Energy      =      -0.3497231070947580 [Eh]
	 SCS Opposite-Spin Energy  =      -3.5384011179743391 [Eh]
	 SCS Correlation Energy    =      -3.8881242250690971 [Eh]
	 SCS Total Energy          =   -1032.9386791156248364 [Eh]
	-----------------------------------------------------------

  Dipole Moment: [D]
     X:    -0.0102      Y:    -0.6173      Z:     1.1858     Total:     1.3369

*** Psi4 exiting successfully. Buy a developer a beer!
