                               Psi4 1.4a3.dev225

  ==> Input File <==

--------------------------------------------------------------------------
#psi4
#
memory 32 gb

molecule  {
0 1
  O       -2.9128620    -0.4781290     1.0138340
  O       -2.9681190     0.5148030    -1.0434710
  O       -0.3129680    -3.4309860     0.4641560
  O       -0.2589710     3.4469300    -0.4801560
  O       -1.9011930    -2.4818550    -0.7520780
  O       -1.8407060     2.5208330     0.7644950
  O        3.9597560    -1.1388570    -0.0240200
  O        4.0572157     1.0264474     0.0420697
  N       -0.8439190    -2.4637400    -0.1025570
  N       -0.7967020     2.4883090     0.0943390
  N        3.4069750    -0.0290830     0.0068360
  C       -0.8642630     0.0144850    -0.0118450
  C       -0.1342560    -1.1768520    -0.0236930
  C       -0.1092970     1.1902470     0.0051550
  C        1.9306090    -0.0137700    -0.0002960
  C        1.2541590    -1.2264030    -0.0035910
  C        1.2788880     1.2129500     0.0017720
  C       -2.3665400     0.0542110    -0.0958220
  H        1.7835260    -2.1724740     0.0038120
  H        1.8267950     2.1485240     0.0024160
  H       -3.8857970    -0.4493820     0.8874840
units angstrom
no_reorient  #important for SAPT in psi4, default
symmetry c1  #important for SAPT in psi4, default
}

set PROPERTIES_ORIGIN ["COM"]
properties('MP2/aug-cc-pvtz', properties = ['dipole'])
--------------------------------------------------------------------------

    Molecular point group: c1
  Charge       = 0
  Multiplicity = 1
  Basis Set: AUG-CC-PVTZ
    Blend: AUG-CC-PVTZ
  Basis Set: (AUG-CC-PVTZ AUX)
    Blend: AUG-CC-PVTZ-JKFIT

    Orbital Energies [Eh]
    ---------------------

    Doubly Occupied:

       1A    -20.658650     2A    -20.653785     3A    -20.653568
       4A    -20.651284     5A    -20.651123     6A    -20.647059
       7A    -20.644634     8A    -20.597113     9A    -15.903896
      10A    -15.901234    11A    -15.899331    12A    -11.453718
      13A    -11.388239    14A    -11.387074    15A    -11.383686
      16A    -11.377675    17A    -11.358101    18A    -11.358053
      19A     -1.637679    20A     -1.634824    21A     -1.633979
      22A     -1.507208    23A     -1.437727    24A     -1.435332
      25A     -1.425372    26A     -1.406766    27A     -1.292539
      28A     -1.187359    29A     -1.182873    30A     -1.058217
      31A     -1.037837    32A     -1.029777    33A     -0.924771
      34A     -0.885190    35A     -0.871355    36A     -0.835699
      37A     -0.803959    38A     -0.790397    39A     -0.789228
      40A     -0.778782    41A     -0.766780    42A     -0.764257
      43A     -0.754517    44A     -0.751341    45A     -0.746450
      46A     -0.742494    47A     -0.716536    48A     -0.693253
      49A     -0.668793    50A     -0.647891    51A     -0.631126
      52A     -0.610012    53A     -0.556926    54A     -0.550973
      55A     -0.544516    56A     -0.538398    57A     -0.537129
      58A     -0.531080    59A     -0.523429    60A     -0.510349
      61A     -0.493179    62A     -0.488399    63A     -0.487936
      64A     -0.449756    65A     -0.447416

  @DF-RHF Final Energy: -1029.04825524299326

   => Energetics <=

    Nuclear Repulsion Energy =           1344.7605305743497865
    One-Electron Energy =               -4081.0015225218062369
    Two-Electron Energy =                1707.1927367044634138
    Total Energy =                      -1029.0482552429932639
  Basis Set: (AUG-CC-PVTZ AUX)
    Blend: AUG-CC-PVTZ-RI
    Molecular point group: c1

    Geometry (in Angstrom), charge = 0, multiplicity = 1:

       Center              X                  Y                   Z               Mass
    ------------   -----------------  -----------------  -----------------  -----------------
         O           -2.918674914300    -0.477293404116     1.017340469178    15.994914619570
         O           -2.973931914300     0.515638595884    -1.039964530822    15.994914619570
         O           -0.318780914300    -3.430150404116     0.467662469178    15.994914619570
         O           -0.264783914300     3.447765595884    -0.476649530822    15.994914619570
         O           -1.907005914300    -2.481019404116    -0.748571530822    15.994914619570
         O           -1.846518914300     2.521668595884     0.768001469178    15.994914619570
         O            3.953943085700    -1.138021404116    -0.020513530822    15.994914619570
         O            4.051402785700     1.027282995884     0.045576169178    15.994914619570
         N           -0.849731914300    -2.462904404116    -0.099050530822    14.003074004430
         N           -0.802514914300     2.489144595884     0.097845469178    14.003074004430
         N            3.401162085700    -0.028247404116     0.010342469178    14.003074004430
         C           -0.870075914300     0.015320595884    -0.008338530822    12.000000000000
         C           -0.140068914300    -1.176016404116    -0.020186530822    12.000000000000
         C           -0.115109914300     1.191082595884     0.008661469178    12.000000000000
         C            1.924796085700    -0.012934404116     0.003210469178    12.000000000000
         C            1.248346085700    -1.225567404116    -0.000084530822    12.000000000000
         C            1.273075085700     1.213785595884     0.005278469178    12.000000000000
         C           -2.372352914300     0.055046595884    -0.092315530822    12.000000000000
         H            1.777713085700    -2.171638404116     0.007318469178     1.007825032230
         H            1.820982085700     2.149359595884     0.005922469178     1.007825032230
         H           -3.891609914300    -0.448546404116     0.890990469178     1.007825032230

  Basis Set: AUG-CC-PVTZ
    Blend: AUG-CC-PVTZ
  Basis Set: (AUG-CC-PVTZ AUX)
    Blend: AUG-CC-PVTZ-JKFIT
	 Reference Energy          =   -1029.0482552429932639 [Eh]
	 Singles Energy            =      -0.0000000000000000 [Eh]
	 Same-Spin Energy          =      -1.0497328063863487 [Eh]
	 Opposite-Spin Energy      =      -2.9500902969328453 [Eh]
	 Correlation Energy        =      -3.9998231033191942 [Eh]
	 Total Energy              =   -1033.0480783463124226 [Eh]

	 ================> DF-SCS-MP2 Energies <==================
	-----------------------------------------------------------
	 SCS Same-Spin Scale       =       0.3333333333333333 [-]
	 SCS Opposite-Spin Scale   =       1.2000000000000000 [-]
	 SCS Same-Spin Energy      =      -0.3499109354621162 [Eh]
	 SCS Opposite-Spin Energy  =      -3.5401083563194145 [Eh]
	 SCS Correlation Energy    =      -3.8900192917815306 [Eh]
	 SCS Total Energy          =   -1032.9382745347747914 [Eh]
	-----------------------------------------------------------

  Dipole Moment: [D]
     X:    -0.3806      Y:    -0.5797      Z:     1.1911     Total:     1.3783

*** Psi4 exiting successfully. Buy a developer a beer!
