                               Psi4 1.4a3.dev225

  ==> Input File <==

--------------------------------------------------------------------------
#psi4
#
memory 32 gb

molecule  {
0 1
  O       -2.9128620    -0.4781290     1.0138340
  O       -2.9681190     0.5148030    -1.0434710
  O       -0.3129680    -3.4309860     0.4641560
  O       -0.2589710     3.4469300    -0.4801560
  O       -1.9011930    -2.4818550    -0.7520780
  O       -1.8407060     2.5208330     0.7644950
  O        3.9597560    -1.1388570    -0.0240200
  O        3.9819620     1.0692260     0.0429750
  N       -0.9746299    -2.3822699    -0.1053093
  N       -0.7967020     2.4883090     0.0943390
  N        3.4069750    -0.0290830     0.0068360
  C       -0.8642630     0.0144850    -0.0118450
  C       -0.1342560    -1.1768520    -0.0236930
  C       -0.1092970     1.1902470     0.0051550
  C        1.9306090    -0.0137700    -0.0002960
  C        1.2541590    -1.2264030    -0.0035910
  C        1.2788880     1.2129500     0.0017720
  C       -2.3665400     0.0542110    -0.0958220
  H        1.7835260    -2.1724740     0.0038120
  H        1.8267950     2.1485240     0.0024160
  H       -3.8857970    -0.4493820     0.8874840
units angstrom
no_reorient  #important for SAPT in psi4, default
symmetry c1  #important for SAPT in psi4, default
}

set PROPERTIES_ORIGIN ["COM"]
properties('MP2/aug-cc-pvtz', properties = ['dipole'])
--------------------------------------------------------------------------

    Molecular point group: c1
  Charge       = 0
  Multiplicity = 1
  Basis Set: AUG-CC-PVTZ
    Blend: AUG-CC-PVTZ
  Basis Set: (AUG-CC-PVTZ AUX)
    Blend: AUG-CC-PVTZ-JKFIT

    Orbital Energies [Eh]
    ---------------------

    Doubly Occupied:

       1A    -20.698969     2A    -20.665742     3A    -20.650842
       4A    -20.650629     5A    -20.650038     6A    -20.649985
       7A    -20.604165     8A    -20.603367     9A    -15.901647
      10A    -15.900455    11A    -15.895814    12A    -11.458459
      13A    -11.387127    14A    -11.384843    15A    -11.380321
      16A    -11.374213    17A    -11.357068    18A    -11.355677
      19A     -1.696142    20A     -1.634448    21A     -1.634093
      22A     -1.513989    23A     -1.435019    24A     -1.434107
      25A     -1.413179    26A     -1.385131    27A     -1.289513
      28A     -1.187405    29A     -1.178770    30A     -1.053172
      31A     -1.039672    32A     -1.030465    33A     -0.928094
      34A     -0.891233    35A     -0.871976    36A     -0.843062
      37A     -0.805169    38A     -0.800507    39A     -0.787670
      40A     -0.783915    41A     -0.776009    42A     -0.765269
      43A     -0.760266    44A     -0.755044    45A     -0.750367
      46A     -0.748944    47A     -0.716581    48A     -0.693999
      49A     -0.673428    50A     -0.647439    51A     -0.635624
      52A     -0.609728    53A     -0.554620    54A     -0.546854
      55A     -0.541933    56A     -0.538253    57A     -0.535695
      58A     -0.524388    59A     -0.515863    60A     -0.510335
      61A     -0.493113    62A     -0.488475    63A     -0.482423
      64A     -0.448565    65A     -0.443598

  @DF-RHF Final Energy: -1029.02086074220870

   => Energetics <=

    Nuclear Repulsion Energy =           1347.0268908693151388
    One-Electron Energy =               -4085.3696916849185072
    Two-Electron Energy =                1709.3219400733946713
    Total Energy =                      -1029.0208607422086970
  Basis Set: (AUG-CC-PVTZ AUX)
    Blend: AUG-CC-PVTZ-RI
    Molecular point group: c1

    Geometry (in Angstrom), charge = 0, multiplicity = 1:

       Center              X                  Y                   Z               Mass
    ------------   -----------------  -----------------  -----------------  -----------------
         O           -2.906868979694    -0.484395071849     1.017434092571    15.994914619570
         O           -2.962125979694     0.508536928151    -1.039870907429    15.994914619570
         O           -0.306974979694    -3.437252071849     0.467756092571    15.994914619570
         O           -0.252977979694     3.440663928151    -0.476555907429    15.994914619570
         O           -1.895199979694    -2.488121071849    -0.748477907429    15.994914619570
         O           -1.834712979694     2.514566928151     0.768095092571    15.994914619570
         O            3.965749020306    -1.145123071849    -0.020419907429    15.994914619570
         O            3.987955020306     1.062959928151     0.046575092571    15.994914619570
         N           -0.968636879694    -2.388535971849    -0.101709207429    14.003074004430
         N           -0.790708979694     2.482042928151     0.097939092571    14.003074004430
         N            3.412968020306    -0.035349071849     0.010436092571    14.003074004430
         C           -0.858269979694     0.008218928151    -0.008244907429    12.000000000000
         C           -0.128262979694    -1.183118071849    -0.020092907429    12.000000000000
         C           -0.103303979694     1.183980928151     0.008755092571    12.000000000000
         C            1.936602020306    -0.020036071849     0.003304092571    12.000000000000
         C            1.260152020306    -1.232669071849     0.000009092571    12.000000000000
         C            1.284881020306     1.206683928151     0.005372092571    12.000000000000
         C           -2.360546979694     0.047944928151    -0.092221907429    12.000000000000
         H            1.789519020306    -2.178740071849     0.007412092571     1.007825032230
         H            1.832788020306     2.142257928151     0.006016092571     1.007825032230
         H           -3.879803979694    -0.455648071849     0.891084092571     1.007825032230

  Basis Set: AUG-CC-PVTZ
    Blend: AUG-CC-PVTZ
  Basis Set: (AUG-CC-PVTZ AUX)
    Blend: AUG-CC-PVTZ-JKFIT
	 Reference Energy          =   -1029.0208607422086970 [Eh]
	 Singles Energy            =      -0.0000000000000000 [Eh]
	 Same-Spin Energy          =      -1.0479698849378156 [Eh]
	 Opposite-Spin Energy      =      -2.9466210719895782 [Eh]
	 Correlation Energy        =      -3.9945909569273939 [Eh]
	 Total Energy              =   -1033.0154516991360651 [Eh]

	 ================> DF-SCS-MP2 Energies <==================
	-----------------------------------------------------------
	 SCS Same-Spin Scale       =       0.3333333333333333 [-]
	 SCS Opposite-Spin Scale   =       1.2000000000000000 [-]
	 SCS Same-Spin Energy      =      -0.3493232949792718 [Eh]
	 SCS Opposite-Spin Energy  =      -3.5359452863874936 [Eh]
	 SCS Correlation Energy    =      -3.8852685813667653 [Eh]
	 SCS Total Energy          =   -1032.9061293235754420 [Eh]
	-----------------------------------------------------------

  Dipole Moment: [D]
     X:    -0.5668      Y:    -0.1432      Z:     0.8193     Total:     1.0065

*** Psi4 exiting successfully. Buy a developer a beer!
