                               Psi4 1.4a3.dev225

  ==> Input File <==

--------------------------------------------------------------------------
#psi4
#
memory 32 gb

molecule  {
0 1
  O       -2.9128620    -0.4781290     1.0138340
  O       -2.9681190     0.5148030    -1.0434710
  O       -0.3129680    -3.4309860     0.4641560
  O       -0.2589710     3.4469300    -0.4801560
  O       -1.9011930    -2.4818550    -0.7520780
  O       -1.8407060     2.5208330     0.7644950
  O        3.9597560    -1.1388570    -0.0240200
  O        3.9819620     1.0692260     0.0429750
  N       -0.8439190    -2.4637400    -0.1025570
  N       -0.7967020     2.4883090     0.0943390
  N        3.4069750    -0.0290830     0.0068360
  C       -0.8642630     0.0144850    -0.0118450
  C       -0.1342560    -1.1768520    -0.0236930
  C       -0.1092970     1.1902470     0.0051550
  C        1.9306090    -0.0137700    -0.0002960
  C        1.3515915    -1.0517414    -0.0031164
  C        1.2788880     1.2129500     0.0017720
  C       -2.3665400     0.0542110    -0.0958220
  H        1.7835260    -2.1724740     0.0038120
  H        1.8267950     2.1485240     0.0024160
  H       -3.8857970    -0.4493820     0.8874840
units angstrom
no_reorient  #important for SAPT in psi4, default
symmetry c1  #important for SAPT in psi4, default
}

set PROPERTIES_ORIGIN ["COM"]
properties('MP2/aug-cc-pvtz', properties = ['dipole'])
--------------------------------------------------------------------------

    Molecular point group: c1
  Charge       = 0
  Multiplicity = 1
  Basis Set: AUG-CC-PVTZ
    Blend: AUG-CC-PVTZ
  Basis Set: (AUG-CC-PVTZ AUX)
    Blend: AUG-CC-PVTZ-JKFIT

    Orbital Energies [Eh]
    ---------------------

    Doubly Occupied:

       1A    -20.656008     2A    -20.654458     3A    -20.654010
       4A    -20.653471     5A    -20.651985     6A    -20.648970
       7A    -20.648420     8A    -20.594183     9A    -15.907042
      10A    -15.901712    11A    -15.898995    12A    -11.449977
      13A    -11.391840    14A    -11.382859    15A    -11.372519
      16A    -11.358209    17A    -11.356979    18A    -11.342581
      19A     -1.637438    20A     -1.636994    21A     -1.632383
      22A     -1.504453    23A     -1.437583    24A     -1.436805
      25A     -1.432950    26A     -1.404051    27A     -1.305072
      28A     -1.206929    29A     -1.168959    30A     -1.051670
      31A     -1.040702    32A     -1.031274    33A     -0.927796
      34A     -0.888609    35A     -0.863161    36A     -0.840036
      37A     -0.805882    38A     -0.799368    39A     -0.786079
      40A     -0.772693    41A     -0.766626    42A     -0.762479
      43A     -0.759352    44A     -0.752205    45A     -0.744997
      46A     -0.740241    47A     -0.717871    48A     -0.684473
      49A     -0.665309    50A     -0.633906    51A     -0.620192
      52A     -0.605755    53A     -0.556643    54A     -0.549273
      55A     -0.545799    56A     -0.540504    57A     -0.535818
      58A     -0.534085    59A     -0.521463    60A     -0.507453
      61A     -0.495154    62A     -0.493024    63A     -0.486000
      64A     -0.472733    65A     -0.432009

  @DF-RHF Final Energy: -1028.98473456986221

   => Energetics <=

    Nuclear Repulsion Energy =           1347.8335777851777948
    One-Electron Energy =               -4087.1196910671646947
    Two-Electron Energy =                1710.3013787121249152
    Total Energy =                      -1028.9847345698622121
  Basis Set: (AUG-CC-PVTZ AUX)
    Blend: AUG-CC-PVTZ-RI
    Molecular point group: c1

    Geometry (in Angstrom), charge = 0, multiplicity = 1:

       Center              X                  Y                   Z               Mass
    ------------   -----------------  -----------------  -----------------  -----------------
         O           -2.918540721389    -0.488111558387     1.017261963251    15.994914619570
         O           -2.973797721389     0.504820441613    -1.040043036749    15.994914619570
         O           -0.318646721389    -3.440968558387     0.467583963251    15.994914619570
         O           -0.264649721389     3.436947441613    -0.476728036749    15.994914619570
         O           -1.906871721389    -2.491837558387    -0.748650036749    15.994914619570
         O           -1.846384721389     2.510850441613     0.767922963251    15.994914619570
         O            3.954077278611    -1.148839558387    -0.020592036749    15.994914619570
         O            3.976283278611     1.059243441613     0.046402963251    15.994914619570
         N           -0.849597721389    -2.473722558387    -0.099129036749    14.003074004430
         N           -0.802380721389     2.478326441613     0.097766963251    14.003074004430
         N            3.401296278611    -0.039065558387     0.010263963251    14.003074004430
         C           -0.869941721389     0.004502441613    -0.008417036749    12.000000000000
         C           -0.139934721389    -1.186834558387    -0.020265036749    12.000000000000
         C           -0.114975721389     1.180264441613     0.008582963251    12.000000000000
         C            1.924930278611    -0.023752558387     0.003131963251    12.000000000000
         C            1.345912778611    -1.061723958387     0.000311563251    12.000000000000
         C            1.273209278611     1.202967441613     0.005199963251    12.000000000000
         C           -2.372218721389     0.044228441613    -0.092394036749    12.000000000000
         H            1.777847278611    -2.182456558387     0.007239963251     1.007825032230
         H            1.821116278611     2.138541441613     0.005843963251     1.007825032230
         H           -3.891475721389    -0.459364558387     0.890911963251     1.007825032230

  Basis Set: AUG-CC-PVTZ
    Blend: AUG-CC-PVTZ
  Basis Set: (AUG-CC-PVTZ AUX)
    Blend: AUG-CC-PVTZ-JKFIT
	 Reference Energy          =   -1028.9847345698622121 [Eh]
	 Singles Energy            =      -0.0000000000000000 [Eh]
	 Same-Spin Energy          =      -1.0498623758102279 [Eh]
	 Opposite-Spin Energy      =      -2.9521628581667381 [Eh]
	 Correlation Energy        =      -4.0020252339769655 [Eh]
	 Total Energy              =   -1032.9867598038392771 [Eh]

	 ================> DF-SCS-MP2 Energies <==================
	-----------------------------------------------------------
	 SCS Same-Spin Scale       =       0.3333333333333333 [-]
	 SCS Opposite-Spin Scale   =       1.2000000000000000 [-]
	 SCS Same-Spin Energy      =      -0.3499541252700760 [Eh]
	 SCS Opposite-Spin Energy  =      -3.5425954298000857 [Eh]
	 SCS Correlation Energy    =      -3.8925495550701616 [Eh]
	 SCS Total Energy          =   -1032.8772841249324301 [Eh]
	-----------------------------------------------------------

  Dipole Moment: [D]
     X:    -0.1994      Y:    -0.8005      Z:     1.1679     Total:     1.4299

*** Psi4 exiting successfully. Buy a developer a beer!
