                               Psi4 1.4a3.dev225

  ==> Input File <==

--------------------------------------------------------------------------
#psi4
#
memory 32 gb

molecule  {
0 1
  O       -2.9128620    -0.4781290     1.0138340
  O       -2.9681190     0.5148030    -1.0434710
  O       -0.3129680    -3.4309860     0.4641560
  O       -0.2589710     3.4469300    -0.4801560
  O       -1.9011930    -2.4818550    -0.7520780
  O       -1.8407060     2.5208330     0.7644950
  O        3.9597560    -1.1388570    -0.0240200
  O        3.9819620     1.0692260     0.0429750
  N       -0.8439190    -2.4637400    -0.1025570
  N       -0.7967020     2.4883090     0.0943390
  N        3.3846892     0.0156584     0.0080800
  C       -0.8642630     0.0144850    -0.0118450
  C       -0.1342560    -1.1768520    -0.0236930
  C       -0.1092970     1.1902470     0.0051550
  C        1.9306090    -0.0137700    -0.0002960
  C        1.2541590    -1.2264030    -0.0035910
  C        1.2788880     1.2129500     0.0017720
  C       -2.3665400     0.0542110    -0.0958220
  H        1.7835260    -2.1724740     0.0038120
  H        1.8267950     2.1485240     0.0024160
  H       -3.8857970    -0.4493820     0.8874840
units angstrom
no_reorient  #important for SAPT in psi4, default
symmetry c1  #important for SAPT in psi4, default
}

set PROPERTIES_ORIGIN ["COM"]
properties('MP2/aug-cc-pvtz', properties = ['dipole'])
--------------------------------------------------------------------------

    Molecular point group: c1
  Charge       = 0
  Multiplicity = 1
  Basis Set: AUG-CC-PVTZ
    Blend: AUG-CC-PVTZ
  Basis Set: (AUG-CC-PVTZ AUX)
    Blend: AUG-CC-PVTZ-JKFIT

    Orbital Energies [Eh]
    ---------------------

    Doubly Occupied:

       1A    -20.666120     2A    -20.658427     3A    -20.653166
       4A    -20.652906     5A    -20.651075     6A    -20.650950
       7A    -20.632620     8A    -20.596903     9A    -15.903285
      10A    -15.900962    11A    -15.899979    12A    -11.453494
      13A    -11.387464    14A    -11.386268    15A    -11.380342
      16A    -11.377530    17A    -11.357636    18A    -11.356904
      19A     -1.637057    20A     -1.635596    21A     -1.634579
      22A     -1.506985    23A     -1.437092    24A     -1.435165
      25A     -1.417825    26A     -1.406551    27A     -1.292137
      28A     -1.189549    29A     -1.182172    30A     -1.059378
      31A     -1.040317    32A     -1.028887    33A     -0.925140
      34A     -0.884864    35A     -0.871664    36A     -0.837670
      37A     -0.804180    38A     -0.791690    39A     -0.788178
      40A     -0.778499    41A     -0.766298    42A     -0.763985
      43A     -0.755031    44A     -0.751667    45A     -0.745928
      46A     -0.742185    47A     -0.715871    48A     -0.692192
      49A     -0.668298    50A     -0.647440    51A     -0.630769
      52A     -0.608948    53A     -0.556891    54A     -0.550584
      55A     -0.544055    56A     -0.540218    57A     -0.537018
      58A     -0.529078    59A     -0.523135    60A     -0.510089
      61A     -0.492556    62A     -0.489485    63A     -0.487863
      64A     -0.449099    65A     -0.446189

  @DF-RHF Final Energy: -1029.04377678958099

   => Energetics <=

    Nuclear Repulsion Energy =           1346.1060171628143962
    One-Electron Energy =               -4083.7074285791095463
    Two-Electron Energy =                1708.5576346267143890
    Total Energy =                      -1029.0437767895809884
  Basis Set: (AUG-CC-PVTZ AUX)
    Blend: AUG-CC-PVTZ-RI
    Molecular point group: c1

    Geometry (in Angstrom), charge = 0, multiplicity = 1:

       Center              X                  Y                   Z               Mass
    ------------   -----------------  -----------------  -----------------  -----------------
         O           -2.912776885840    -0.482393785132     1.017216340728    15.994914619570
         O           -2.968033885840     0.510538214868    -1.040088659272    15.994914619570
         O           -0.312882885840    -3.435250785132     0.467538340728    15.994914619570
         O           -0.258885885840     3.442665214868    -0.476773659272    15.994914619570
         O           -1.901107885840    -2.486119785132    -0.748695659272    15.994914619570
         O           -1.840620885840     2.516568214868     0.767877340728    15.994914619570
         O            3.959841114160    -1.143121785132    -0.020637659272    15.994914619570
         O            3.982047114160     1.064961214868     0.046357340728    15.994914619570
         N           -0.843833885840    -2.468004785132    -0.099174659272    14.003074004430
         N           -0.796616885840     2.484044214868     0.097721340728    14.003074004430
         N            3.384774314160     0.011393614868     0.011462340728    14.003074004430
         C           -0.864177885840     0.010220214868    -0.008462659272    12.000000000000
         C           -0.134170885840    -1.181116785132    -0.020310659272    12.000000000000
         C           -0.109211885840     1.185982214868     0.008537340728    12.000000000000
         C            1.930694114160    -0.018034785132     0.003086340728    12.000000000000
         C            1.254244114160    -1.230667785132    -0.000208659272    12.000000000000
         C            1.278973114160     1.208685214868     0.005154340728    12.000000000000
         C           -2.366454885840     0.049946214868    -0.092439659272    12.000000000000
         H            1.783611114160    -2.176738785132     0.007194340728     1.007825032230
         H            1.826880114160     2.144259214868     0.005798340728     1.007825032230
         H           -3.885711885840    -0.453646785132     0.890866340728     1.007825032230

  Basis Set: AUG-CC-PVTZ
    Blend: AUG-CC-PVTZ
  Basis Set: (AUG-CC-PVTZ AUX)
    Blend: AUG-CC-PVTZ-JKFIT
	 Reference Energy          =   -1029.0437767895809884 [Eh]
	 Singles Energy            =      -0.0000000000000000 [Eh]
	 Same-Spin Energy          =      -1.0502669409089911 [Eh]
	 Opposite-Spin Energy      =      -2.9510872243543713 [Eh]
	 Correlation Energy        =      -4.0013541652633622 [Eh]
	 Total Energy              =   -1033.0451309548443533 [Eh]

	 ================> DF-SCS-MP2 Energies <==================
	-----------------------------------------------------------
	 SCS Same-Spin Scale       =       0.3333333333333333 [-]
	 SCS Opposite-Spin Scale   =       1.2000000000000000 [-]
	 SCS Same-Spin Energy      =      -0.3500889803029970 [Eh]
	 SCS Opposite-Spin Energy  =      -3.5413046692252457 [Eh]
	 SCS Correlation Energy    =      -3.8913936495282426 [Eh]
	 SCS Total Energy          =   -1032.9351704391092426 [Eh]
	-----------------------------------------------------------

  Dipole Moment: [D]
     X:    -0.2909      Y:    -0.4496      Z:     1.1970     Total:     1.3113

*** Psi4 exiting successfully. Buy a developer a beer!
