                               Psi4 1.4a3.dev225

  ==> Input File <==

--------------------------------------------------------------------------
#psi4
#
memory 32 gb

molecule  {
0 1
  O       -2.9128620    -0.4781290     1.0138340
  O       -2.9681190     0.5148030    -1.0434710
  O       -0.3129680    -3.4309860     0.4641560
  O       -0.2589710     3.4469300    -0.4801560
  O       -1.9011930    -2.4818550    -0.7520780
  O       -1.8407060     2.5208330     0.7644950
  O        3.9597560    -1.1388570    -0.0240200
  O        3.9819620     1.0692260     0.0429750
  N       -0.8439190    -2.4637400    -0.1025570
  N       -0.7967020     2.4883090     0.0943390
  N        3.4069750    -0.0290830     0.0068360
  C       -0.8642630     0.0144850    -0.0118450
  C       -0.1342560    -1.1768520    -0.0236930
  C       -0.1092970     1.1902470     0.0051550
  C        1.9306090    -0.0137700    -0.0002960
  C        1.2298009    -1.2700684    -0.0037096
  C        1.2788880     1.2129500     0.0017720
  C       -2.3665400     0.0542110    -0.0958220
  H        1.7835260    -2.1724740     0.0038120
  H        1.8267950     2.1485240     0.0024160
  H       -3.8857970    -0.4493820     0.8874840
units angstrom
no_reorient  #important for SAPT in psi4, default
symmetry c1  #important for SAPT in psi4, default
}

set PROPERTIES_ORIGIN ["COM"]
properties('MP2/aug-cc-pvtz', properties = ['dipole'])
--------------------------------------------------------------------------

    Molecular point group: c1
  Charge       = 0
  Multiplicity = 1
  Basis Set: AUG-CC-PVTZ
    Blend: AUG-CC-PVTZ
  Basis Set: (AUG-CC-PVTZ AUX)
    Blend: AUG-CC-PVTZ-JKFIT

    Orbital Energies [Eh]
    ---------------------

    Doubly Occupied:

       1A    -20.658100     2A    -20.652253     3A    -20.652180
       4A    -20.650726     5A    -20.650407     6A    -20.650320
       7A    -20.649841     8A    -20.596509     9A    -15.901906
      10A    -15.901603    11A    -15.900484    12A    -11.453267
      13A    -11.386369    14A    -11.385548    15A    -11.384217
      16A    -11.376808    17A    -11.357874    18A    -11.355170
      19A     -1.636480    20A     -1.634313    21A     -1.634019
      22A     -1.506639    23A     -1.436502    24A     -1.434683
      25A     -1.434235    26A     -1.406176    27A     -1.289037
      28A     -1.185259    29A     -1.179150    30A     -1.058648
      31A     -1.034703    32A     -1.027170    33A     -0.923915
      34A     -0.883350    35A     -0.871689    36A     -0.836654
      37A     -0.802751    38A     -0.790721    39A     -0.785406
      40A     -0.778747    41A     -0.765954    42A     -0.763489
      43A     -0.757758    44A     -0.753435    45A     -0.745551
      46A     -0.741631    47A     -0.716156    48A     -0.696996
      49A     -0.666888    50A     -0.646521    51A     -0.630805
      52A     -0.607287    53A     -0.555074    54A     -0.550158
      55A     -0.544063    56A     -0.539939    57A     -0.535403
      58A     -0.534460    59A     -0.522552    60A     -0.509712
      61A     -0.493687    62A     -0.492086    63A     -0.487270
      64A     -0.451057    65A     -0.441488

  @DF-RHF Final Energy: -1029.04591942208799

   => Energetics <=

    Nuclear Repulsion Energy =           1345.4426309932384811
    One-Electron Energy =               -4082.4105963210363370
    Two-Electron Energy =                1707.9220459057100925
    Total Energy =                      -1029.0459194220879908
  Basis Set: (AUG-CC-PVTZ AUX)
    Blend: AUG-CC-PVTZ-RI
    Molecular point group: c1

    Geometry (in Angstrom), charge = 0, multiplicity = 1:

       Center              X                  Y                   Z               Mass
    ------------   -----------------  -----------------  -----------------  -----------------
         O           -2.912853824054    -0.477916984795     1.017289662167    15.994914619570
         O           -2.968110824054     0.515015015205    -1.040015337833    15.994914619570
         O           -0.312959824054    -3.430773984795     0.467611662167    15.994914619570
         O           -0.258962824054     3.447142015205    -0.476700337833    15.994914619570
         O           -1.901184824054    -2.481642984795    -0.748622337833    15.994914619570
         O           -1.840697824054     2.521045015205     0.767950662167    15.994914619570
         O            3.959764175946    -1.138644984795    -0.020564337833    15.994914619570
         O            3.981970175946     1.069438015205     0.046430662167    15.994914619570
         N           -0.843910824054    -2.463527984795    -0.099101337833    14.003074004430
         N           -0.796693824054     2.488521015205     0.097794662167    14.003074004430
         N            3.406983175946    -0.028870984795     0.010291662167    14.003074004430
         C           -0.864254824054     0.014697015205    -0.008389337833    12.000000000000
         C           -0.134247824054    -1.176639984795    -0.020237337833    12.000000000000
         C           -0.109288824054     1.190459015205     0.008610662167    12.000000000000
         C            1.930617175946    -0.013557984795     0.003159662167    12.000000000000
         C            1.229809075946    -1.269856384795    -0.000253937833    12.000000000000
         C            1.278896175946     1.213162015205     0.005227662167    12.000000000000
         C           -2.366531824054     0.054423015205    -0.092366337833    12.000000000000
         H            1.783534175946    -2.172261984795     0.007267662167     1.007825032230
         H            1.826803175946     2.148736015205     0.005871662167     1.007825032230
         H           -3.885788824054    -0.449169984795     0.890939662167     1.007825032230

  Basis Set: AUG-CC-PVTZ
    Blend: AUG-CC-PVTZ
  Basis Set: (AUG-CC-PVTZ AUX)
    Blend: AUG-CC-PVTZ-JKFIT
	 Reference Energy          =   -1029.0459194220879908 [Eh]
	 Singles Energy            =      -0.0000000000000000 [Eh]
	 Same-Spin Energy          =      -1.0499691598715748 [Eh]
	 Opposite-Spin Energy      =      -2.9506204781354439 [Eh]
	 Correlation Energy        =      -4.0005896380070185 [Eh]
	 Total Energy              =   -1033.0465090600951044 [Eh]

	 ================> DF-SCS-MP2 Energies <==================
	-----------------------------------------------------------
	 SCS Same-Spin Scale       =       0.3333333333333333 [-]
	 SCS Opposite-Spin Scale   =       1.2000000000000000 [-]
	 SCS Same-Spin Energy      =      -0.3499897199571916 [Eh]
	 SCS Opposite-Spin Energy  =      -3.5407445737625327 [Eh]
	 SCS Correlation Energy    =      -3.8907342937197242 [Eh]
	 SCS Total Energy          =   -1032.9366537158077790 [Eh]
	-----------------------------------------------------------

  Dipole Moment: [D]
     X:    -0.1235      Y:    -0.5759      Z:     1.1955     Total:     1.3328

*** Psi4 exiting successfully. Buy a developer a beer!
