                               Psi4 1.4a3.dev225

  ==> Input File <==

--------------------------------------------------------------------------
#psi4
#
memory 32 gb

molecule  {
0 1
  O       -2.9128620    -0.4781290     1.0138340
  O       -2.9681190     0.5148030    -1.0434710
  O       -0.3129680    -3.4309860     0.4641560
  O       -0.2589710     3.4469300    -0.4801560
  O       -1.9011930    -2.4818550    -0.7520780
  O       -1.8407060     2.5208330     0.7644950
  O        3.9597560    -1.1388570    -0.0240200
  O        3.9819620     1.0692260     0.0429750
  N       -0.8439190    -2.4637400    -0.1025570
  N       -0.7967020     2.4883090     0.0943390
  N        3.4069750    -0.0290830     0.0068360
  C       -0.8642630     0.0144850    -0.0118450
  C       -0.1342560    -1.1768520    -0.0236930
  C       -0.1092970     1.1902470     0.0051550
  C        1.9306090    -0.0137700    -0.0002960
  C        1.2541590    -1.2264030    -0.0035910
  C        1.2788880     1.2129500     0.0017720
  C       -2.3665400     0.0542110    -0.0958220
  H        1.7835260    -2.1724740     0.0038120
  H        1.8166879     2.1312658     0.0024041
  H       -3.8857970    -0.4493820     0.8874840
units angstrom
no_reorient  #important for SAPT in psi4, default
symmetry c1  #important for SAPT in psi4, default
}

set PROPERTIES_ORIGIN ["COM"]
properties('MP2/aug-cc-pvtz', properties = ['dipole'])
--------------------------------------------------------------------------

    Molecular point group: c1
  Charge       = 0
  Multiplicity = 1
  Basis Set: AUG-CC-PVTZ
    Blend: AUG-CC-PVTZ
  Basis Set: (AUG-CC-PVTZ AUX)
    Blend: AUG-CC-PVTZ-JKFIT

    Orbital Energies [Eh]
    ---------------------

    Doubly Occupied:

       1A    -20.657754     2A    -20.652862     3A    -20.652659
       4A    -20.650776     5A    -20.650676     6A    -20.650304
       7A    -20.650116     8A    -20.596108     9A    -15.902913
      10A    -15.902127    11A    -15.900206    12A    -11.452667
      13A    -11.386799    14A    -11.385531    15A    -11.380339
      16A    -11.376018    17A    -11.356033    18A    -11.354019
      19A     -1.636767    20A     -1.634896    21A     -1.633780
      22A     -1.506273    23A     -1.436836    24A     -1.434877
      25A     -1.434332    26A     -1.405817    27A     -1.290713
      28A     -1.184660    29A     -1.181666    30A     -1.056811
      31A     -1.035929    32A     -1.029093    33A     -0.924487
      34A     -0.884277    35A     -0.871478    36A     -0.837372
      37A     -0.802970    38A     -0.790838    39A     -0.788405
      40A     -0.778737    41A     -0.766219    42A     -0.763398
      43A     -0.757516    44A     -0.753728    45A     -0.746128
      46A     -0.741675    47A     -0.716087    48A     -0.692463
      49A     -0.667977    50A     -0.648068    51A     -0.630173
      52A     -0.608549    53A     -0.555484    54A     -0.550021
      55A     -0.544392    56A     -0.540403    57A     -0.536306
      58A     -0.534487    59A     -0.522521    60A     -0.509330
      61A     -0.494045    62A     -0.492372    63A     -0.487030
      64A     -0.447810    65A     -0.446116

  @DF-RHF Final Energy: -1029.04961974848243

   => Energetics <=

    Nuclear Repulsion Energy =           1345.9387490499432261
    One-Electron Energy =               -4083.3942993072028003
    Two-Electron Energy =                1708.4059305087769189
    Total Energy =                      -1029.0496197484824279
  Basis Set: (AUG-CC-PVTZ AUX)
    Blend: AUG-CC-PVTZ-RI
    Molecular point group: c1

    Geometry (in Angstrom), charge = 0, multiplicity = 1:

       Center              X                  Y                   Z               Mass
    ------------   -----------------  -----------------  -----------------  -----------------
         O           -2.913951566381    -0.479888219410     1.017284170919    15.994914619570
         O           -2.969208566381     0.513043780590    -1.040020829081    15.994914619570
         O           -0.314057566381    -3.432745219410     0.467606170919    15.994914619570
         O           -0.260060566381     3.445170780590    -0.476705829081    15.994914619570
         O           -1.902282566381    -2.483614219410    -0.748627829081    15.994914619570
         O           -1.841795566381     2.519073780590     0.767945170919    15.994914619570
         O            3.958666433619    -1.140616219410    -0.020569829081    15.994914619570
         O            3.980872433619     1.067466780590     0.046425170919    15.994914619570
         N           -0.845008566381    -2.465499219410    -0.099106829081    14.003074004430
         N           -0.797791566381     2.486549780590     0.097789170919    14.003074004430
         N            3.405885433619    -0.030842219410     0.010286170919    14.003074004430
         C           -0.865352566381     0.012725780590    -0.008394829081    12.000000000000
         C           -0.135345566381    -1.178611219410    -0.020242829081    12.000000000000
         C           -0.110386566381     1.188487780590     0.008605170919    12.000000000000
         C            1.929519433619    -0.015529219410     0.003154170919    12.000000000000
         C            1.253069433619    -1.228162219410    -0.000140829081    12.000000000000
         C            1.277798433619     1.211190780590     0.005222170919    12.000000000000
         C           -2.367629566381     0.052451780590    -0.092371829081    12.000000000000
         H            1.782436433619    -2.174233219410     0.007262170919     1.007825032230
         H            1.815598333619     2.129506580590     0.005854270919     1.007825032230
         H           -3.886886566381    -0.451141219410     0.890934170919     1.007825032230

  Basis Set: AUG-CC-PVTZ
    Blend: AUG-CC-PVTZ
  Basis Set: (AUG-CC-PVTZ AUX)
    Blend: AUG-CC-PVTZ-JKFIT
	 Reference Energy          =   -1029.0496197484824279 [Eh]
	 Singles Energy            =      -0.0000000000000000 [Eh]
	 Same-Spin Energy          =      -1.0498906389529929 [Eh]
	 Opposite-Spin Energy      =      -2.9501540383108926 [Eh]
	 Correlation Energy        =      -4.0000446772638858 [Eh]
	 Total Energy              =   -1033.0496644257464141 [Eh]

	 ================> DF-SCS-MP2 Energies <==================
	-----------------------------------------------------------
	 SCS Same-Spin Scale       =       0.3333333333333333 [-]
	 SCS Opposite-Spin Scale   =       1.2000000000000000 [-]
	 SCS Same-Spin Energy      =      -0.3499635463176643 [Eh]
	 SCS Opposite-Spin Energy  =      -3.5401848459730711 [Eh]
	 SCS Correlation Energy    =      -3.8901483922907354 [Eh]
	 SCS Total Energy          =   -1032.9397681407731397 [Eh]
	-----------------------------------------------------------

  Dipole Moment: [D]
     X:    -0.1464      Y:    -0.6311      Z:     1.1911     Total:     1.3559

*** Psi4 exiting successfully. Buy a developer a beer!
