                               Psi4 1.4a3.dev225

  ==> Input File <==

--------------------------------------------------------------------------
#psi4
#
memory 32 gb

molecule  {
0 1
  O       -2.9128620    -0.4781290     1.0138340
  O       -2.9681190     0.5148030    -1.0434710
  O       -0.3129680    -3.4309860     0.4641560
  O       -0.2589710     3.4469300    -0.4801560
  O       -1.9011930    -2.4818550    -0.7520780
  O       -1.8407060     2.5208330     0.7644950
  O        3.9597560    -1.1388570    -0.0240200
  O        3.9819620     1.0692260     0.0429750
  N       -0.8439190    -2.4637400    -0.1025570
  N       -0.7967020     2.4883090     0.0943390
  N        3.4069750    -0.0290830     0.0068360
  C       -0.8642630     0.0144850    -0.0118450
  C       -0.1342560    -1.1768520    -0.0236930
  C       -0.0012427     1.3585276     0.0075881
  C        1.9306090    -0.0137700    -0.0002960
  C        1.2541590    -1.2264030    -0.0035910
  C        1.2788880     1.2129500     0.0017720
  C       -2.3665400     0.0542110    -0.0958220
  H        1.7835260    -2.1724740     0.0038120
  H        1.8267950     2.1485240     0.0024160
  H       -3.8857970    -0.4493820     0.8874840
units angstrom
no_reorient  #important for SAPT in psi4, default
symmetry c1  #important for SAPT in psi4, default
}

set PROPERTIES_ORIGIN ["COM"]
properties('MP2/aug-cc-pvtz', properties = ['dipole'])
--------------------------------------------------------------------------

    Molecular point group: c1
  Charge       = 0
  Multiplicity = 1
  Basis Set: AUG-CC-PVTZ
    Blend: AUG-CC-PVTZ
  Basis Set: (AUG-CC-PVTZ AUX)
    Blend: AUG-CC-PVTZ-JKFIT

    Orbital Energies [Eh]
    ---------------------

    Doubly Occupied:

       1A    -20.657846     2A    -20.654350     3A    -20.653932
       4A    -20.653054     5A    -20.650319     6A    -20.648635
       7A    -20.646816     8A    -20.596204     9A    -15.903329
      10A    -15.902766    11A    -15.900675    12A    -11.452773
      13A    -11.392115    14A    -11.386327    15A    -11.385702
      16A    -11.377998    17A    -11.359726    18A    -11.341176
      19A     -1.645187    20A     -1.637350    21A     -1.632384
      22A     -1.506163    23A     -1.440167    24A     -1.437448
      25A     -1.432306    26A     -1.405808    27A     -1.284954
      28A     -1.198652    29A     -1.177333    30A     -1.060235
      31A     -1.051512    32A     -1.031506    33A     -0.915543
      34A     -0.883619    35A     -0.868583    36A     -0.838445
      37A     -0.809188    38A     -0.797027    39A     -0.789723
      40A     -0.774439    41A     -0.770152    42A     -0.765589
      43A     -0.755422    44A     -0.752440    45A     -0.750940
      46A     -0.742028    47A     -0.710728    48A     -0.686980
      49A     -0.668976    50A     -0.636002    51A     -0.613931
      52A     -0.603082    53A     -0.557081    54A     -0.552455
      55A     -0.546893    56A     -0.537706    57A     -0.536962
      58A     -0.535158    59A     -0.523378    60A     -0.507921
      61A     -0.492853    62A     -0.492420    63A     -0.489817
      64A     -0.464779    65A     -0.427501

  @DF-RHF Final Energy: -1029.00643350222049

   => Energetics <=

    Nuclear Repulsion Energy =           1344.5205130274839576
    One-Electron Energy =               -4080.4488827322561519
    Two-Electron Energy =                1706.9219362025517057
    Total Energy =                      -1029.0064335022204887
  Basis Set: (AUG-CC-PVTZ AUX)
    Blend: AUG-CC-PVTZ-RI
    Molecular point group: c1

    Geometry (in Angstrom), charge = 0, multiplicity = 1:

       Center              X                  Y                   Z               Mass
    ------------   -----------------  -----------------  -----------------  -----------------
         O           -2.919036696334    -0.487813603603     1.017170512939    15.994914619570
         O           -2.974293696334     0.505118396397    -1.040134487061    15.994914619570
         O           -0.319142696334    -3.440670603603     0.467492512939    15.994914619570
         O           -0.265145696334     3.437245396397    -0.476819487061    15.994914619570
         O           -1.907367696334    -2.491539603603    -0.748741487061    15.994914619570
         O           -1.846880696334     2.511148396397     0.767831512939    15.994914619570
         O            3.953581303666    -1.148541603603    -0.020683487061    15.994914619570
         O            3.975787303666     1.059541396397     0.046311512939    15.994914619570
         N           -0.850093696334    -2.473424603603    -0.099220487061    14.003074004430
         N           -0.802876696334     2.478624396397     0.097675512939    14.003074004430
         N            3.400800303666    -0.038767603603     0.010172512939    14.003074004430
         C           -0.870437696334     0.004800396397    -0.008508487061    12.000000000000
         C           -0.140430696334    -1.186536603603    -0.020356487061    12.000000000000
         C           -0.007417396334     1.348842996397     0.010924612939    12.000000000000
         C            1.924434303666    -0.023454603603     0.003040512939    12.000000000000
         C            1.247984303666    -1.236087603603    -0.000254487061    12.000000000000
         C            1.272713303666     1.203265396397     0.005108512939    12.000000000000
         C           -2.372714696334     0.044526396397    -0.092485487061    12.000000000000
         H            1.777351303666    -2.182158603603     0.007148512939     1.007825032230
         H            1.820620303666     2.138839396397     0.005752512939     1.007825032230
         H           -3.891971696334    -0.459066603603     0.890820512939     1.007825032230

  Basis Set: AUG-CC-PVTZ
    Blend: AUG-CC-PVTZ
  Basis Set: (AUG-CC-PVTZ AUX)
    Blend: AUG-CC-PVTZ-JKFIT
	 Reference Energy          =   -1029.0064335022204887 [Eh]
	 Singles Energy            =      -0.0000000000000000 [Eh]
	 Same-Spin Energy          =      -1.0497353443407114 [Eh]
	 Opposite-Spin Energy      =      -2.9518456132708413 [Eh]
	 Correlation Energy        =      -4.0015809576115524 [Eh]
	 Total Energy              =   -1033.0080144598321112 [Eh]

	 ================> DF-SCS-MP2 Energies <==================
	-----------------------------------------------------------
	 SCS Same-Spin Scale       =       0.3333333333333333 [-]
	 SCS Opposite-Spin Scale   =       1.2000000000000000 [-]
	 SCS Same-Spin Energy      =      -0.3499117814469038 [Eh]
	 SCS Opposite-Spin Energy  =      -3.5422147359250094 [Eh]
	 SCS Correlation Energy    =      -3.8921265173719131 [Eh]
	 SCS Total Energy          =   -1032.8985600195924235 [Eh]
	-----------------------------------------------------------

  Dipole Moment: [D]
     X:    -0.0596      Y:    -0.4589      Z:     1.2351     Total:     1.3190

*** Psi4 exiting successfully. Buy a developer a beer!
