                               Psi4 1.4a3.dev225

  ==> Input File <==

--------------------------------------------------------------------------
#psi4
#
memory 32 gb

molecule  {
0 1
  O       -2.9128620    -0.4781290     1.0138340
  O       -2.9681190     0.5148030    -1.0434710
  O       -0.3129680    -3.4309860     0.4641560
  O       -0.2589710     3.4469300    -0.4801560
  O       -1.9011930    -2.4818550    -0.7520780
  O       -1.8407060     2.5208330     0.7644950
  O        3.9597560    -1.1388570    -0.0240200
  O        3.9819620     1.0692260     0.0429750
  N       -0.8439190    -2.4637400    -0.1025570
  N       -0.7967020     2.4883090     0.0943390
  N        3.3178318     0.1498827     0.0118119
  C       -0.8642630     0.0144850    -0.0118450
  C       -0.1342560    -1.1768520    -0.0236930
  C       -0.1092970     1.1902470     0.0051550
  C        1.9306090    -0.0137700    -0.0002960
  C        1.2541590    -1.2264030    -0.0035910
  C        1.2788880     1.2129500     0.0017720
  C       -2.3665400     0.0542110    -0.0958220
  H        1.7835260    -2.1724740     0.0038120
  H        1.8267950     2.1485240     0.0024160
  H       -3.8857970    -0.4493820     0.8874840
units angstrom
no_reorient  #important for SAPT in psi4, default
symmetry c1  #important for SAPT in psi4, default
}

set PROPERTIES_ORIGIN ["COM"]
properties('MP2/aug-cc-pvtz', properties = ['dipole'])
--------------------------------------------------------------------------

    Molecular point group: c1
  Charge       = 0
  Multiplicity = 1
  Basis Set: AUG-CC-PVTZ
    Blend: AUG-CC-PVTZ
  Basis Set: (AUG-CC-PVTZ AUX)
    Blend: AUG-CC-PVTZ-JKFIT

    Orbital Energies [Eh]
    ---------------------

    Doubly Occupied:

       1A    -20.704579     2A    -20.660652     3A    -20.654389
       4A    -20.653969     5A    -20.653404     6A    -20.653322
       7A    -20.599511     8A    -20.583179     9A    -15.904702
      10A    -15.903110    11A    -15.884447    12A    -11.456205
      13A    -11.389793    14A    -11.388161    15A    -11.382493
      16A    -11.380022    17A    -11.362925    18A    -11.360074
      19A     -1.690710    20A     -1.638226    21A     -1.636960
      22A     -1.509336    23A     -1.438202    24A     -1.437543
      25A     -1.408963    26A     -1.344474    27A     -1.291352
      28A     -1.202728    29A     -1.183997    30A     -1.070323
      31A     -1.048789    32A     -1.029692    33A     -0.928441
      34A     -0.888023    35A     -0.878262    36A     -0.849383
      37A     -0.810070    38A     -0.799208    39A     -0.791182
      40A     -0.782549    41A     -0.772396    42A     -0.766041
      43A     -0.765619    44A     -0.755567    45A     -0.747143
      46A     -0.744067    47A     -0.717739    48A     -0.696201
      49A     -0.671131    50A     -0.652060    51A     -0.633603
      52A     -0.612233    53A     -0.554082    54A     -0.551037
      55A     -0.546303    56A     -0.538504    57A     -0.526367
      58A     -0.520730    59A     -0.512726    60A     -0.493599
      61A     -0.490343    62A     -0.488534    63A     -0.474223
      64A     -0.452244    65A     -0.443304

  @DF-RHF Final Energy: -1028.99571993376389

   => Energetics <=

    Nuclear Repulsion Energy =           1347.2657264776194097
    One-Electron Energy =               -4085.8045926126965242
    Two-Electron Energy =                1709.5431462013132204
    Total Energy =                      -1028.9957199337638940
  Basis Set: (AUG-CC-PVTZ AUX)
    Blend: AUG-CC-PVTZ-RI
    Molecular point group: c1

    Geometry (in Angstrom), charge = 0, multiplicity = 1:

       Center              X                  Y                   Z               Mass
    ------------   -----------------  -----------------  -----------------  -----------------
         O           -2.909133935597    -0.489707447438     1.017012995609    15.994914619570
         O           -2.964390935597     0.503224552562    -1.040292004391    15.994914619570
         O           -0.309239935597    -3.442564447438     0.467334995609    15.994914619570
         O           -0.255242935597     3.435351552562    -0.476977004391    15.994914619570
         O           -1.897464935597    -2.493433447438    -0.748899004391    15.994914619570
         O           -1.836977935597     2.509254552562     0.767673995609    15.994914619570
         O            3.963484064403    -1.150435447438    -0.020841004391    15.994914619570
         O            3.985690064403     1.057647552562     0.046153995609    15.994914619570
         N           -0.840190935597    -2.475318447438    -0.099378004391    14.003074004430
         N           -0.792973935597     2.476730552562     0.097517995609    14.003074004430
         N            3.321559864403     0.138304252562     0.014990895609    14.003074004430
         C           -0.860534935597     0.002906552562    -0.008666004391    12.000000000000
         C           -0.130527935597    -1.188430447438    -0.020514004391    12.000000000000
         C           -0.105568935597     1.178668552562     0.008333995609    12.000000000000
         C            1.934337064403    -0.025348447438     0.002882995609    12.000000000000
         C            1.257887064403    -1.237981447438    -0.000412004391    12.000000000000
         C            1.282616064403     1.201371552562     0.004950995609    12.000000000000
         C           -2.362811935597     0.042632552562    -0.092643004391    12.000000000000
         H            1.787254064403    -2.184052447438     0.006990995609     1.007825032230
         H            1.830523064403     2.136945552562     0.005594995609     1.007825032230
         H           -3.882068935597    -0.460960447438     0.890662995609     1.007825032230

  Basis Set: AUG-CC-PVTZ
    Blend: AUG-CC-PVTZ
  Basis Set: (AUG-CC-PVTZ AUX)
    Blend: AUG-CC-PVTZ-JKFIT
	 Reference Energy          =   -1028.9957199337638940 [Eh]
	 Singles Energy            =      -0.0000000000000000 [Eh]
	 Same-Spin Energy          =      -1.0475525461287845 [Eh]
	 Opposite-Spin Energy      =      -2.9469239189344631 [Eh]
	 Correlation Energy        =      -3.9944764650632476 [Eh]
	 Total Energy              =   -1032.9901963988270381 [Eh]

	 ================> DF-SCS-MP2 Energies <==================
	-----------------------------------------------------------
	 SCS Same-Spin Scale       =       0.3333333333333333 [-]
	 SCS Opposite-Spin Scale   =       1.2000000000000000 [-]
	 SCS Same-Spin Energy      =      -0.3491841820429281 [Eh]
	 SCS Opposite-Spin Energy  =      -3.5363087027213558 [Eh]
	 SCS Correlation Energy    =      -3.8854928847642838 [Eh]
	 SCS Total Energy          =   -1032.8812128185281836 [Eh]
	-----------------------------------------------------------

  Dipole Moment: [D]
     X:    -1.0567      Y:     0.4182      Z:     1.2306     Total:     1.6750

*** Psi4 exiting successfully. Buy a developer a beer!
