                               Psi4 1.4a3.dev225

  ==> Input File <==

--------------------------------------------------------------------------
#psi4
#
memory 32 gb

molecule  {
0 1
  O       -2.9128620    -0.4781290     1.0138340
  O       -2.9681190     0.5148030    -1.0434710
  O       -0.3129680    -3.4309860     0.4641560
  O       -0.2589710     3.4469300    -0.4801560
  O       -1.9011930    -2.4818550    -0.7520780
  O       -1.8407060     2.5208330     0.7644950
  O        3.9597560    -1.1388570    -0.0240200
  O        3.9819620     1.0692260     0.0429750
  N       -0.8011148    -2.5417174    -0.0568697
  N       -0.7967020     2.4883090     0.0943390
  N        3.4069750    -0.0290830     0.0068360
  C       -0.8642630     0.0144850    -0.0118450
  C       -0.1342560    -1.1768520    -0.0236930
  C       -0.1092970     1.1902470     0.0051550
  C        1.9306090    -0.0137700    -0.0002960
  C        1.2541590    -1.2264030    -0.0035910
  C        1.2788880     1.2129500     0.0017720
  C       -2.3665400     0.0542110    -0.0958220
  H        1.7835260    -2.1724740     0.0038120
  H        1.8267950     2.1485240     0.0024160
  H       -3.8857970    -0.4493820     0.8874840
units angstrom
no_reorient  #important for SAPT in psi4, default
symmetry c1  #important for SAPT in psi4, default
}

set PROPERTIES_ORIGIN ["COM"]
properties('MP2/aug-cc-pvtz', properties = ['dipole'])
--------------------------------------------------------------------------

    Molecular point group: c1
  Charge       = 0
  Multiplicity = 1
  Basis Set: AUG-CC-PVTZ
    Blend: AUG-CC-PVTZ
  Basis Set: (AUG-CC-PVTZ AUX)
    Blend: AUG-CC-PVTZ-JKFIT

    Orbital Energies [Eh]
    ---------------------

    Doubly Occupied:

       1A    -20.688514     2A    -20.652392     3A    -20.649895
       4A    -20.649800     5A    -20.648383     6A    -20.648259
       7A    -20.620999     8A    -20.590761     9A    -15.903041
      10A    -15.901084    11A    -15.898353    12A    -11.447870
      13A    -11.385395    14A    -11.383706    15A    -11.378599
      16A    -11.373615    17A    -11.352984    18A    -11.352758
      19A     -1.691656    20A     -1.634018    21A     -1.631891
      22A     -1.501083    23A     -1.434050    24A     -1.432426
      25A     -1.428876    26A     -1.400553    27A     -1.286521
      28A     -1.181415    29A     -1.172631    30A     -1.053919
      31A     -1.031405    32A     -1.018762    33A     -0.920816
      34A     -0.888912    35A     -0.871317    36A     -0.841080
      37A     -0.805153    38A     -0.795853    39A     -0.788184
      40A     -0.781190    41A     -0.773131    42A     -0.762874
      43A     -0.760171    44A     -0.754667    45A     -0.748233
      46A     -0.738949    47A     -0.719255    48A     -0.689785
      49A     -0.663571    50A     -0.644246    51A     -0.626083
      52A     -0.608246    53A     -0.556207    54A     -0.548286
      55A     -0.541073    56A     -0.538348    57A     -0.533572
      58A     -0.526593    59A     -0.514600    60A     -0.503906
      61A     -0.494270    62A     -0.493271    63A     -0.484627
      64A     -0.444715    65A     -0.443811

  @DF-RHF Final Energy: -1029.03979066674538

   => Energetics <=

    Nuclear Repulsion Energy =           1345.0028263626622902
    One-Electron Energy =               -4081.6240077046509214
    Two-Electron Energy =                1707.5813906752432558
    Total Energy =                      -1029.0397906667453753
  Basis Set: (AUG-CC-PVTZ AUX)
    Blend: AUG-CC-PVTZ-RI
    Molecular point group: c1

    Geometry (in Angstrom), charge = 0, multiplicity = 1:

       Center              X                  Y                   Z               Mass
    ------------   -----------------  -----------------  -----------------  -----------------
         O           -2.916323533350    -0.475707038681     1.014794698090    15.994914619570
         O           -2.971580533350     0.517224961319    -1.042510301910    15.994914619570
         O           -0.316429533350    -3.428564038681     0.465116698090    15.994914619570
         O           -0.262432533350     3.449351961319    -0.479195301910    15.994914619570
         O           -1.904654533350    -2.479433038681    -0.751117301910    15.994914619570
         O           -1.844167533350     2.523254961319     0.765455698090    15.994914619570
         O            3.956294466650    -1.136435038681    -0.023059301910    15.994914619570
         O            3.978500466650     1.071647961319     0.043935698090    15.994914619570
         N           -0.804576333350    -2.539295438681    -0.055909001910    14.003074004430
         N           -0.800163533350     2.490730961319     0.095299698090    14.003074004430
         N            3.403513466650    -0.026661038681     0.007796698090    14.003074004430
         C           -0.867724533350     0.016906961319    -0.010884301910    12.000000000000
         C           -0.137717533350    -1.174430038681    -0.022732301910    12.000000000000
         C           -0.112758533350     1.192668961319     0.006115698090    12.000000000000
         C            1.927147466650    -0.011348038681     0.000664698090    12.000000000000
         C            1.250697466650    -1.223981038681    -0.002630301910    12.000000000000
         C            1.275426466650     1.215371961319     0.002732698090    12.000000000000
         C           -2.370001533350     0.056632961319    -0.094861301910    12.000000000000
         H            1.780064466650    -2.170052038681     0.004772698090     1.007825032230
         H            1.823333466650     2.150945961319     0.003376698090     1.007825032230
         H           -3.889258533350    -0.446960038681     0.888444698090     1.007825032230

  Basis Set: AUG-CC-PVTZ
    Blend: AUG-CC-PVTZ
  Basis Set: (AUG-CC-PVTZ AUX)
    Blend: AUG-CC-PVTZ-JKFIT
	 Reference Energy          =   -1029.0397906667453753 [Eh]
	 Singles Energy            =      -0.0000000000000000 [Eh]
	 Same-Spin Energy          =      -1.0476468838459030 [Eh]
	 Opposite-Spin Energy      =      -2.9449641569503129 [Eh]
	 Correlation Energy        =      -3.9926110407962159 [Eh]
	 Total Energy              =   -1033.0324017075415668 [Eh]

	 ================> DF-SCS-MP2 Energies <==================
	-----------------------------------------------------------
	 SCS Same-Spin Scale       =       0.3333333333333333 [-]
	 SCS Opposite-Spin Scale   =       1.2000000000000000 [-]
	 SCS Same-Spin Energy      =      -0.3492156279486343 [Eh]
	 SCS Opposite-Spin Energy  =      -3.5339569883403752 [Eh]
	 SCS Correlation Energy    =      -3.8831726162890097 [Eh]
	 SCS Total Energy          =   -1032.9229632830342780 [Eh]
	-----------------------------------------------------------

  Dipole Moment: [D]
     X:     0.0753      Y:    -1.0771      Z:     1.4799     Total:     1.8319

*** Psi4 exiting successfully. Buy a developer a beer!
