                               Psi4 1.4a3.dev225

  ==> Input File <==

--------------------------------------------------------------------------
#psi4
#
memory 32 gb

molecule  {
0 1
  O       -2.9128620    -0.4781290     1.0138340
  O       -2.9681190     0.5148030    -1.0434710
  O       -0.3129680    -3.4309860     0.4641560
  O       -0.2589710     3.4469300    -0.4801560
  O       -1.9011930    -2.4818550    -0.7520780
  O       -1.8407060     2.5208330     0.7644950
  O        3.9597560    -1.1388570    -0.0240200
  O        3.9819620     1.0692260     0.0429750
  N       -0.8439190    -2.4637400    -0.1025570
  N       -0.7967020     2.4883090     0.0943390
  N        3.4158893    -0.0469796     0.0063384
  C       -0.8642630     0.0144850    -0.0118450
  C       -0.1342560    -1.1768520    -0.0236930
  C       -0.1092970     1.1902470     0.0051550
  C        1.9306090    -0.0137700    -0.0002960
  C        1.2541590    -1.2264030    -0.0035910
  C        1.2788880     1.2129500     0.0017720
  C       -2.3665400     0.0542110    -0.0958220
  H        1.7835260    -2.1724740     0.0038120
  H        1.8267950     2.1485240     0.0024160
  H       -3.8857970    -0.4493820     0.8874840
units angstrom
no_reorient  #important for SAPT in psi4, default
symmetry c1  #important for SAPT in psi4, default
}

set PROPERTIES_ORIGIN ["COM"]
properties('MP2/aug-cc-pvtz', properties = ['dipole'])
--------------------------------------------------------------------------

    Molecular point group: c1
  Charge       = 0
  Multiplicity = 1
  Basis Set: AUG-CC-PVTZ
    Blend: AUG-CC-PVTZ
  Basis Set: (AUG-CC-PVTZ AUX)
    Blend: AUG-CC-PVTZ-JKFIT

    Orbital Energies [Eh]
    ---------------------

    Doubly Occupied:

       1A    -20.657837     2A    -20.657427     3A    -20.652641
       4A    -20.652461     5A    -20.649841     6A    -20.649677
       7A    -20.644377     8A    -20.595731     9A    -15.902668
      10A    -15.902476    11A    -15.899772    12A    -11.452280
      13A    -11.386363    14A    -11.385103    15A    -11.380155
      16A    -11.375378    17A    -11.355367    18A    -11.355191
      19A     -1.639737    20A     -1.636532    21A     -1.633345
      22A     -1.505928    23A     -1.437764    24A     -1.436629
      25A     -1.433894    26A     -1.405463    27A     -1.289835
      28A     -1.182426    29A     -1.181069    30A     -1.055647
      31A     -1.033972    32A     -1.027767    33A     -0.923993
      34A     -0.883490    35A     -0.871268    36A     -0.837925
      37A     -0.802479    38A     -0.789783    39A     -0.788588
      40A     -0.777331    41A     -0.766106    42A     -0.762976
      43A     -0.759040    44A     -0.755311    45A     -0.745668
      46A     -0.741191    47A     -0.716016    48A     -0.691410
      49A     -0.667462    50A     -0.645962    51A     -0.629624
      52A     -0.608378    53A     -0.555129    54A     -0.549700
      55A     -0.544987    56A     -0.540631    57A     -0.534547
      58A     -0.534032    59A     -0.522159    60A     -0.508969
      61A     -0.495281    62A     -0.492216    63A     -0.486588
      64A     -0.447121    65A     -0.445846

  @DF-RHF Final Energy: -1029.04992219342876

   => Energetics <=

    Nuclear Repulsion Energy =           1345.7247491705152243
    One-Electron Energy =               -4082.9974266075000742
    Two-Electron Energy =                1708.2227552435560938
    Total Energy =                      -1029.0499221934287561
  Basis Set: (AUG-CC-PVTZ AUX)
    Blend: AUG-CC-PVTZ-RI
    Molecular point group: c1

    Geometry (in Angstrom), charge = 0, multiplicity = 1:

       Center              X                  Y                   Z               Mass
    ------------   -----------------  -----------------  -----------------  -----------------
         O           -2.914476928196    -0.478980743086     1.017311237660    15.994914619570
         O           -2.969733928196     0.513951256914    -1.039993762340    15.994914619570
         O           -0.314582928196    -3.431837743086     0.467633237660    15.994914619570
         O           -0.260585928196     3.446078256914    -0.476678762340    15.994914619570
         O           -1.902807928196    -2.482706743086    -0.748600762340    15.994914619570
         O           -1.842320928196     2.519981256914     0.767972237660    15.994914619570
         O            3.958141071804    -1.139708743086    -0.020542762340    15.994914619570
         O            3.980347071804     1.068374256914     0.046452237660    15.994914619570
         N           -0.845533928196    -2.464591743086    -0.099079762340    14.003074004430
         N           -0.798316928196     2.487457256914     0.097816237660    14.003074004430
         N            3.414274371804    -0.047831343086     0.009815637660    14.003074004430
         C           -0.865877928196     0.013633256914    -0.008367762340    12.000000000000
         C           -0.135870928196    -1.177703743086    -0.020215762340    12.000000000000
         C           -0.110911928196     1.189395256914     0.008632237660    12.000000000000
         C            1.928994071804    -0.014621743086     0.003181237660    12.000000000000
         C            1.252544071804    -1.227254743086    -0.000113762340    12.000000000000
         C            1.277273071804     1.212098256914     0.005249237660    12.000000000000
         C           -2.368154928196     0.053359256914    -0.092344762340    12.000000000000
         H            1.781911071804    -2.173325743086     0.007289237660     1.007825032230
         H            1.825180071804     2.147672256914     0.005893237660     1.007825032230
         H           -3.887411928196    -0.450233743086     0.890961237660     1.007825032230

  Basis Set: AUG-CC-PVTZ
    Blend: AUG-CC-PVTZ
  Basis Set: (AUG-CC-PVTZ AUX)
    Blend: AUG-CC-PVTZ-JKFIT
	 Reference Energy          =   -1029.0499221934287561 [Eh]
	 Singles Energy            =      -0.0000000000000000 [Eh]
	 Same-Spin Energy          =      -1.0497022502956006 [Eh]
	 Opposite-Spin Energy      =      -2.9496455830862587 [Eh]
	 Correlation Energy        =      -3.9993478333818593 [Eh]
	 Total Energy              =   -1033.0492700268105182 [Eh]

	 ================> DF-SCS-MP2 Energies <==================
	-----------------------------------------------------------
	 SCS Same-Spin Scale       =       0.3333333333333333 [-]
	 SCS Opposite-Spin Scale   =       1.2000000000000000 [-]
	 SCS Same-Spin Energy      =      -0.3499007500985335 [Eh]
	 SCS Opposite-Spin Energy  =      -3.5395746997035102 [Eh]
	 SCS Correlation Energy    =      -3.8894754498020436 [Eh]
	 SCS Total Energy          =   -1032.9393976432309046 [Eh]
	-----------------------------------------------------------

  Dipole Moment: [D]
     X:    -0.0804      Y:    -0.6908      Z:     1.1876     Total:     1.3762

*** Psi4 exiting successfully. Buy a developer a beer!
