                               Psi4 1.4a3.dev225

  ==> Input File <==

--------------------------------------------------------------------------
#psi4
#
memory 32 gb

molecule  {
0 1
  O       -2.7812237    -0.5006121     1.0589069
  O       -2.9681190     0.5148030    -1.0434710
  O       -0.3129680    -3.4309860     0.4641560
  O       -0.2589710     3.4469300    -0.4801560
  O       -1.9011930    -2.4818550    -0.7520780
  O       -1.8407060     2.5208330     0.7644950
  O        3.9597560    -1.1388570    -0.0240200
  O        3.9819620     1.0692260     0.0429750
  N       -0.8439190    -2.4637400    -0.1025570
  N       -0.7967020     2.4883090     0.0943390
  N        3.4069750    -0.0290830     0.0068360
  C       -0.8642630     0.0144850    -0.0118450
  C       -0.1342560    -1.1768520    -0.0236930
  C       -0.1092970     1.1902470     0.0051550
  C        1.9306090    -0.0137700    -0.0002960
  C        1.2541590    -1.2264030    -0.0035910
  C        1.2788880     1.2129500     0.0017720
  C       -2.3665400     0.0542110    -0.0958220
  H        1.7835260    -2.1724740     0.0038120
  H        1.8267950     2.1485240     0.0024160
  H       -3.8857970    -0.4493820     0.8874840
units angstrom
no_reorient  #important for SAPT in psi4, default
symmetry c1  #important for SAPT in psi4, default
}

set PROPERTIES_ORIGIN ["COM"]
properties('MP2/aug-cc-pvtz', properties = ['dipole'])
--------------------------------------------------------------------------

    Molecular point group: c1
  Charge       = 0
  Multiplicity = 1
  Basis Set: AUG-CC-PVTZ
    Blend: AUG-CC-PVTZ
  Basis Set: (AUG-CC-PVTZ AUX)
    Blend: AUG-CC-PVTZ-JKFIT

    Orbital Energies [Eh]
    ---------------------

    Doubly Occupied:

       1A    -20.674894     2A    -20.651537     3A    -20.650771
       4A    -20.649023     5A    -20.648790     6A    -20.648711
       7A    -20.648650     8A    -20.602639     9A    -15.901256
      10A    -15.900148    11A    -15.898802    12A    -11.454695
      13A    -11.383268    14A    -11.381821    15A    -11.377189
      16A    -11.370881    17A    -11.353953    18A    -11.353571
      19A     -1.635197    20A     -1.632939    21A     -1.632470
      22A     -1.499174    23A     -1.435315    24A     -1.433089
      25A     -1.432878    26A     -1.408100    27A     -1.287548
      28A     -1.181374    29A     -1.179094    30A     -1.052122
      31A     -1.033780    32A     -1.026088    33A     -0.912454
      34A     -0.882071    35A     -0.865804    36A     -0.833129
      37A     -0.800509    38A     -0.787806    39A     -0.786510
      40A     -0.767703    41A     -0.765039    42A     -0.761901
      43A     -0.755625    44A     -0.751876    45A     -0.742264
      46A     -0.736482    47A     -0.714433    48A     -0.691629
      49A     -0.668977    50A     -0.644623    51A     -0.626565
      52A     -0.603420    53A     -0.553956    54A     -0.548783
      55A     -0.543744    56A     -0.538900    57A     -0.534640
      58A     -0.533213    59A     -0.525945    60A     -0.510135
      61A     -0.492349    62A     -0.491230    63A     -0.486713
      64A     -0.444672    65A     -0.443763

  @DF-RHF Final Energy: -1029.02251991294588

   => Energetics <=

    Nuclear Repulsion Energy =           1347.3471955482798421
    One-Electron Energy =               -4086.4061700738334366
    Two-Electron Energy =                1710.0364546126079404
    Total Energy =                      -1029.0225199129458815
  Basis Set: (AUG-CC-PVTZ AUX)
    Blend: AUG-CC-PVTZ-RI
    Molecular point group: c1

    Geometry (in Angstrom), charge = 0, multiplicity = 1:

       Center              X                  Y                   Z               Mass
    ------------   -----------------  -----------------  -----------------  -----------------
         O           -2.790545932930    -0.501039674845     1.059551734018    15.994914619570
         O           -2.977441232930     0.514375425155    -1.042826165982    15.994914619570
         O           -0.322290232930    -3.431413574845     0.464800834018    15.994914619570
         O           -0.268293232930     3.446502425155    -0.479511165982    15.994914619570
         O           -1.910515232930    -2.482282574845    -0.751433165982    15.994914619570
         O           -1.850028232930     2.520405425155     0.765139834018    15.994914619570
         O            3.950433767070    -1.139284574845    -0.023375165982    15.994914619570
         O            3.972639767070     1.068798425155     0.043619834018    15.994914619570
         N           -0.853241232930    -2.464167574845    -0.101912165982    14.003074004430
         N           -0.806024232930     2.487881425155     0.094983834018    14.003074004430
         N            3.397652767070    -0.029510574845     0.007480834018    14.003074004430
         C           -0.873585232930     0.014057425155    -0.011200165982    12.000000000000
         C           -0.143578232930    -1.177279574845    -0.023048165982    12.000000000000
         C           -0.118619232930     1.189819425155     0.005799834018    12.000000000000
         C            1.921286767070    -0.014197574845     0.000348834018    12.000000000000
         C            1.244836767070    -1.226830574845    -0.002946165982    12.000000000000
         C            1.269565767070     1.212522425155     0.002416834018    12.000000000000
         C           -2.375862232930     0.053783425155    -0.095177165982    12.000000000000
         H            1.774203767070    -2.172901574845     0.004456834018     1.007825032230
         H            1.817472767070     2.148096425155     0.003060834018     1.007825032230
         H           -3.895119232930    -0.449809574845     0.888128834018     1.007825032230

  Basis Set: AUG-CC-PVTZ
    Blend: AUG-CC-PVTZ
  Basis Set: (AUG-CC-PVTZ AUX)
    Blend: AUG-CC-PVTZ-JKFIT
	 Reference Energy          =   -1029.0225199129458815 [Eh]
	 Singles Energy            =      -0.0000000000000000 [Eh]
	 Same-Spin Energy          =      -1.0528660064011874 [Eh]
	 Opposite-Spin Energy      =      -2.9563817825087781 [Eh]
	 Correlation Energy        =      -4.0092477889099651 [Eh]
	 Total Energy              =   -1033.0317677018558697 [Eh]

	 ================> DF-SCS-MP2 Energies <==================
	-----------------------------------------------------------
	 SCS Same-Spin Scale       =       0.3333333333333333 [-]
	 SCS Opposite-Spin Scale   =       1.2000000000000000 [-]
	 SCS Same-Spin Energy      =      -0.3509553354670625 [Eh]
	 SCS Opposite-Spin Energy  =      -3.5476581390105335 [Eh]
	 SCS Correlation Energy    =      -3.8986134744775960 [Eh]
	 SCS Total Energy          =   -1032.9211333874234242 [Eh]
	-----------------------------------------------------------

  Dipole Moment: [D]
     X:    -0.4865      Y:    -0.6177      Z:     1.1966     Total:     1.4318

*** Psi4 exiting successfully. Buy a developer a beer!
