                               Psi4 1.4a3.dev225

  ==> Input File <==

--------------------------------------------------------------------------
#psi4
#
memory 32 gb

molecule  {
0 1
  O       -2.9128620    -0.4781290     1.0138340
  O       -2.9681190     0.5148030    -1.0434710
  O       -0.3129680    -3.4309860     0.4641560
  O       -0.2589710     3.4469300    -0.4801560
  O       -1.9011930    -2.4818550    -0.7520780
  O       -1.8407060     2.5208330     0.7644950
  O        3.9597560    -1.1388570    -0.0240200
  O        3.9819620     1.0692260     0.0429750
  N       -0.8439190    -2.4637400    -0.1025570
  N       -0.7798770     2.4877848     0.0835388
  N        3.4069750    -0.0290830     0.0068360
  C       -0.8642630     0.0144850    -0.0118450
  C       -0.1342560    -1.1768520    -0.0236930
  C       -0.1092970     1.1902470     0.0051550
  C        1.9306090    -0.0137700    -0.0002960
  C        1.2541590    -1.2264030    -0.0035910
  C        1.2788880     1.2129500     0.0017720
  C       -2.3665400     0.0542110    -0.0958220
  H        1.7835260    -2.1724740     0.0038120
  H        1.8267950     2.1485240     0.0024160
  H       -3.8857970    -0.4493820     0.8874840
units angstrom
no_reorient  #important for SAPT in psi4, default
symmetry c1  #important for SAPT in psi4, default
}

set PROPERTIES_ORIGIN ["COM"]
properties('MP2/aug-cc-pvtz', properties = ['dipole'])
--------------------------------------------------------------------------

    Molecular point group: c1
  Charge       = 0
  Multiplicity = 1
  Basis Set: AUG-CC-PVTZ
    Blend: AUG-CC-PVTZ
  Basis Set: (AUG-CC-PVTZ AUX)
    Blend: AUG-CC-PVTZ-JKFIT

    Orbital Energies [Eh]
    ---------------------

    Doubly Occupied:

       1A    -20.656947     2A    -20.656726     3A    -20.652912
       4A    -20.652718     5A    -20.651014     6A    -20.650947
       7A    -20.642933     8A    -20.595161     9A    -15.903000
      10A    -15.902376    11A    -15.899579    12A    -11.452039
      13A    -11.387009    14A    -11.385539    15A    -11.380584
      16A    -11.376645    17A    -11.356537    18A    -11.356178
      19A     -1.636818    20A     -1.635142    21A     -1.632169
      22A     -1.505452    23A     -1.436874    24A     -1.435131
      25A     -1.429299    26A     -1.404849    27A     -1.291189
      28A     -1.184802    29A     -1.183343    30A     -1.057950
      31A     -1.036770    32A     -1.028922    33A     -0.924178
      34A     -0.884051    35A     -0.871150    36A     -0.837345
      37A     -0.803187    38A     -0.790413    39A     -0.788258
      40A     -0.777522    41A     -0.765946    42A     -0.762244
      43A     -0.757516    44A     -0.753817    45A     -0.744855
      46A     -0.740746    47A     -0.715604    48A     -0.691501
      49A     -0.667116    50A     -0.646494    51A     -0.629449
      52A     -0.608508    53A     -0.555794    54A     -0.549839
      55A     -0.543921    56A     -0.540197    57A     -0.536170
      58A     -0.535183    59A     -0.521809    60A     -0.508566
      61A     -0.494332    62A     -0.492336    63A     -0.485279
      64A     -0.448005    65A     -0.446329

  @DF-RHF Final Energy: -1029.04786881400128

   => Energetics <=

    Nuclear Repulsion Energy =           1345.8450968491804360
    One-Electron Energy =               -4083.2355047908786219
    Two-Electron Energy =                1708.3425391276966820
    Total Energy =                      -1029.0478688140012764
  Basis Set: (AUG-CC-PVTZ AUX)
    Blend: AUG-CC-PVTZ-RI
    Molecular point group: c1

    Geometry (in Angstrom), charge = 0, multiplicity = 1:

       Center              X                  Y                   Z               Mass
    ------------   -----------------  -----------------  -----------------  -----------------
         O           -2.914907969285    -0.479927336714     1.017872609463    15.994914619570
         O           -2.970164969285     0.513004663286    -1.039432390537    15.994914619570
         O           -0.315013969285    -3.432784336714     0.468194609463    15.994914619570
         O           -0.261016969285     3.445131663286    -0.476117390537    15.994914619570
         O           -1.903238969285    -2.483653336714    -0.748039390537    15.994914619570
         O           -1.842751969285     2.519034663286     0.768533609463    15.994914619570
         O            3.957710030715    -1.140655336714    -0.019981390537    15.994914619570
         O            3.979916030715     1.067427663286     0.047013609463    15.994914619570
         N           -0.845964969285    -2.465538336714    -0.098518390537    14.003074004430
         N           -0.781922969285     2.485986463286     0.087577409463    14.003074004430
         N            3.404929030715    -0.030881336714     0.010874609463    14.003074004430
         C           -0.866308969285     0.012686663286    -0.007806390537    12.000000000000
         C           -0.136301969285    -1.178650336714    -0.019654390537    12.000000000000
         C           -0.111342969285     1.188448663286     0.009193609463    12.000000000000
         C            1.928563030715    -0.015568336714     0.003742609463    12.000000000000
         C            1.252113030715    -1.228201336714     0.000447609463    12.000000000000
         C            1.276842030715     1.211151663286     0.005810609463    12.000000000000
         C           -2.368585969285     0.052412663286    -0.091783390537    12.000000000000
         H            1.781480030715    -2.174272336714     0.007850609463     1.007825032230
         H            1.824749030715     2.146725663286     0.006454609463     1.007825032230
         H           -3.887842969285    -0.451180336714     0.891522609463     1.007825032230

  Basis Set: AUG-CC-PVTZ
    Blend: AUG-CC-PVTZ
  Basis Set: (AUG-CC-PVTZ AUX)
    Blend: AUG-CC-PVTZ-JKFIT
	 Reference Energy          =   -1029.0478688140012764 [Eh]
	 Singles Energy            =      -0.0000000000000000 [Eh]
	 Same-Spin Energy          =      -1.0501826984752607 [Eh]
	 Opposite-Spin Energy      =      -2.9508026825717040 [Eh]
	 Correlation Energy        =      -4.0009853810469647 [Eh]
	 Total Energy              =   -1033.0488541950483068 [Eh]

	 ================> DF-SCS-MP2 Energies <==================
	-----------------------------------------------------------
	 SCS Same-Spin Scale       =       0.3333333333333333 [-]
	 SCS Opposite-Spin Scale   =       1.2000000000000000 [-]
	 SCS Same-Spin Energy      =      -0.3500608994917536 [Eh]
	 SCS Opposite-Spin Energy  =      -3.5409632190860445 [Eh]
	 SCS Correlation Energy    =      -3.8910241185777981 [Eh]
	 SCS Total Energy          =   -1032.9388929325791651 [Eh]
	-----------------------------------------------------------

  Dipole Moment: [D]
     X:    -0.0697      Y:    -0.6320      Z:     1.1441     Total:     1.3089

*** Psi4 exiting successfully. Buy a developer a beer!
