                               Psi4 1.4a3.dev225

  ==> Input File <==

--------------------------------------------------------------------------
#psi4
#
memory 32 gb

molecule  {
0 1
  O       -2.9128620    -0.4781290     1.0138340
  O       -2.9681190     0.5148030    -1.0434710
  O       -0.3129680    -3.4309860     0.4641560
  O       -0.2589710     3.4469300    -0.4801560
  O       -1.9011930    -2.4818550    -0.7520780
  O       -1.8407060     2.5208330     0.7644950
  O        3.9597560    -1.1388570    -0.0240200
  O        3.9819620     1.0692260     0.0429750
  N       -0.8439190    -2.4637400    -0.1025570
  N       -0.7967020     2.4883090     0.0943390
  N        3.4069750    -0.0290830     0.0068360
  C       -0.8642630     0.0144850    -0.0118450
  C       -0.1342560    -1.1768520    -0.0236930
  C       -0.1092970     1.1902470     0.0051550
  C        1.9306090    -0.0137700    -0.0002960
  C        1.2041960    -1.2246199    -0.0043144
  C        1.2788880     1.2129500     0.0017720
  C       -2.3665400     0.0542110    -0.0958220
  H        1.7835260    -2.1724740     0.0038120
  H        1.8267950     2.1485240     0.0024160
  H       -3.8857970    -0.4493820     0.8874840
units angstrom
no_reorient  #important for SAPT in psi4, default
symmetry c1  #important for SAPT in psi4, default
}

set PROPERTIES_ORIGIN ["COM"]
properties('MP2/aug-cc-pvtz', properties = ['dipole'])
--------------------------------------------------------------------------

    Molecular point group: c1
  Charge       = 0
  Multiplicity = 1
  Basis Set: AUG-CC-PVTZ
    Blend: AUG-CC-PVTZ
  Basis Set: (AUG-CC-PVTZ AUX)
    Blend: AUG-CC-PVTZ-JKFIT

    Orbital Energies [Eh]
    ---------------------

    Doubly Occupied:

       1A    -20.658034     2A    -20.653013     3A    -20.652936
       4A    -20.651107     5A    -20.650493     6A    -20.650321
       7A    -20.649994     8A    -20.596296     9A    -15.903107
      10A    -15.902681    11A    -15.900138    12A    -11.452830
      13A    -11.385298    14A    -11.381853    15A    -11.381270
      16A    -11.376541    17A    -11.354841    18A    -11.353225
      19A     -1.637025    20A     -1.634833    21A     -1.633724
      22A     -1.506527    23A     -1.437028    24A     -1.434822
      25A     -1.434283    26A     -1.406020    27A     -1.293163
      28A     -1.186756    29A     -1.180407    30A     -1.058418
      31A     -1.037178    32A     -1.026185    33A     -0.924229
      34A     -0.883526    35A     -0.872247    36A     -0.837355
      37A     -0.803145    38A     -0.793647    39A     -0.786555
      40A     -0.776429    41A     -0.766392    42A     -0.763050
      43A     -0.757184    44A     -0.753490    45A     -0.745537
      46A     -0.741330    47A     -0.717704    48A     -0.693041
      49A     -0.666738    50A     -0.637670    51A     -0.630656
      52A     -0.610033    53A     -0.555638    54A     -0.550238
      55A     -0.543973    56A     -0.540651    57A     -0.536573
      58A     -0.534565    59A     -0.522474    60A     -0.509442
      61A     -0.494069    62A     -0.492364    63A     -0.486981
      64A     -0.452886    65A     -0.443079

  @DF-RHF Final Energy: -1029.04627380912530

   => Energetics <=

    Nuclear Repulsion Energy =           1346.4566624355511522
    One-Electron Energy =               -4084.4393869514242397
    Two-Electron Energy =                1708.9364507067477916
    Total Energy =                      -1029.0462738091252959
  Basis Set: (AUG-CC-PVTZ AUX)
    Blend: AUG-CC-PVTZ-RI
    Molecular point group: c1

    Geometry (in Angstrom), charge = 0, multiplicity = 1:

       Center              X                  Y                   Z               Mass
    ------------   -----------------  -----------------  -----------------  -----------------
         O           -2.911658227369    -0.480039159688     1.017317902733    15.994914619570
         O           -2.966915227369     0.512892840312    -1.039987097267    15.994914619570
         O           -0.311764227369    -3.432896159688     0.467639902733    15.994914619570
         O           -0.257767227369     3.445019840312    -0.476672097267    15.994914619570
         O           -1.899989227369    -2.483765159688    -0.748594097267    15.994914619570
         O           -1.839502227369     2.518922840312     0.767978902733    15.994914619570
         O            3.960959772631    -1.140767159688    -0.020536097267    15.994914619570
         O            3.983165772631     1.067315840312     0.046458902733    15.994914619570
         N           -0.842715227369    -2.465650159688    -0.099073097267    14.003074004430
         N           -0.795498227369     2.486398840312     0.097822902733    14.003074004430
         N            3.408178772631    -0.030993159688     0.010319902733    14.003074004430
         C           -0.863059227369     0.012574840312    -0.008361097267    12.000000000000
         C           -0.133052227369    -1.178762159688    -0.020209097267    12.000000000000
         C           -0.108093227369     1.188336840312     0.008638902733    12.000000000000
         C            1.931812772631    -0.015680159688     0.003187902733    12.000000000000
         C            1.205399772631    -1.226530059688    -0.000830497267    12.000000000000
         C            1.280091772631     1.211039840312     0.005255902733    12.000000000000
         C           -2.365336227369     0.052300840312    -0.092338097267    12.000000000000
         H            1.784729772631    -2.174384159688     0.007295902733     1.007825032230
         H            1.827998772631     2.146613840312     0.005899902733     1.007825032230
         H           -3.884593227369    -0.451292159688     0.890967902733     1.007825032230

  Basis Set: AUG-CC-PVTZ
    Blend: AUG-CC-PVTZ
  Basis Set: (AUG-CC-PVTZ AUX)
    Blend: AUG-CC-PVTZ-JKFIT
	 Reference Energy          =   -1029.0462738091252959 [Eh]
	 Singles Energy            =      -0.0000000000000000 [Eh]
	 Same-Spin Energy          =      -1.0500276242019870 [Eh]
	 Opposite-Spin Energy      =      -2.9504657727984029 [Eh]
	 Correlation Energy        =      -4.0004933970003904 [Eh]
	 Total Energy              =   -1033.0467672061256508 [Eh]

	 ================> DF-SCS-MP2 Energies <==================
	-----------------------------------------------------------
	 SCS Same-Spin Scale       =       0.3333333333333333 [-]
	 SCS Opposite-Spin Scale   =       1.2000000000000000 [-]
	 SCS Same-Spin Energy      =      -0.3500092080673290 [Eh]
	 SCS Opposite-Spin Energy  =      -3.5405589273580835 [Eh]
	 SCS Correlation Energy    =      -3.8905681354254127 [Eh]
	 SCS Total Energy          =   -1032.9368419445506788 [Eh]
	-----------------------------------------------------------

  Dipole Moment: [D]
     X:    -0.0891      Y:    -0.6094      Z:     1.1944     Total:     1.3439

*** Psi4 exiting successfully. Buy a developer a beer!
