                               Psi4 1.4a3.dev225

  ==> Input File <==

--------------------------------------------------------------------------
#psi4
#
memory 32 gb

molecule  {
0 1
  O       -2.9128620    -0.4781290     1.0138340
  O       -2.9681190     0.5148030    -1.0434710
  O       -0.3129680    -3.4309860     0.4641560
  O       -0.2589710     3.4469300    -0.4801560
  O       -1.9011930    -2.4818550    -0.7520780
  O       -1.8407060     2.5208330     0.7644950
  O        3.9597560    -1.1388570    -0.0240200
  O        3.9819620     1.0692260     0.0429750
  N       -0.8439190    -2.4637400    -0.1025570
  N       -0.7967020     2.4883090     0.0943390
  N        3.4069750    -0.0290830     0.0068360
  C       -0.8642630     0.0144850    -0.0118450
  C       -0.1762794    -1.2015996    -0.0241448
  C       -0.1092970     1.1902470     0.0051550
  C        1.9306090    -0.0137700    -0.0002960
  C        1.2541590    -1.2264030    -0.0035910
  C        1.2788880     1.2129500     0.0017720
  C       -2.3665400     0.0542110    -0.0958220
  H        1.7835260    -2.1724740     0.0038120
  H        1.8267950     2.1485240     0.0024160
  H       -3.8857970    -0.4493820     0.8874840
units angstrom
no_reorient  #important for SAPT in psi4, default
symmetry c1  #important for SAPT in psi4, default
}

set PROPERTIES_ORIGIN ["COM"]
properties('MP2/aug-cc-pvtz', properties = ['dipole'])
--------------------------------------------------------------------------

    Molecular point group: c1
  Charge       = 0
  Multiplicity = 1
  Basis Set: AUG-CC-PVTZ
    Blend: AUG-CC-PVTZ
  Basis Set: (AUG-CC-PVTZ AUX)
    Blend: AUG-CC-PVTZ-JKFIT

    Orbital Energies [Eh]
    ---------------------

    Doubly Occupied:

       1A    -20.657298     2A    -20.653302     3A    -20.652593
       4A    -20.651021     5A    -20.650580     6A    -20.649882
       7A    -20.649771     8A    -20.595252     9A    -15.903962
      10A    -15.902393    11A    -15.900178    12A    -11.451156
      13A    -11.387218    14A    -11.384852    15A    -11.380074
      16A    -11.376537    17A    -11.361531    18A    -11.357200
      19A     -1.641042    20A     -1.635012    21A     -1.633484
      22A     -1.505761    23A     -1.438539    24A     -1.434981
      25A     -1.434028    26A     -1.405150    27A     -1.287555
      28A     -1.188586    29A     -1.180961    30A     -1.060100
      31A     -1.037402    32A     -1.028045    33A     -0.923083
      34A     -0.885139    35A     -0.869628    36A     -0.837484
      37A     -0.804246    38A     -0.792692    39A     -0.788024
      40A     -0.777876    41A     -0.768296    42A     -0.763434
      43A     -0.757741    44A     -0.754215    45A     -0.745936
      46A     -0.741790    47A     -0.714600    48A     -0.687025
      49A     -0.667361    50A     -0.645845    51A     -0.627557
      52A     -0.605188    53A     -0.556768    54A     -0.550511
      55A     -0.545171    56A     -0.540123    57A     -0.537923
      58A     -0.534606    59A     -0.522776    60A     -0.507932
      61A     -0.494117    62A     -0.493097    63A     -0.486786
      64A     -0.448891    65A     -0.441666

  @DF-RHF Final Energy: -1029.04693844385224

   => Energetics <=

    Nuclear Repulsion Energy =           1345.7969410578814404
    One-Electron Energy =               -4083.1018116067020856
    Two-Electron Energy =                1708.2579321049686314
    Total Energy =                      -1029.0469384438522411
  Basis Set: (AUG-CC-PVTZ AUX)
    Blend: AUG-CC-PVTZ-RI
    Molecular point group: c1

    Geometry (in Angstrom), charge = 0, multiplicity = 1:

       Center              X                  Y                   Z               Mass
    ------------   -----------------  -----------------  -----------------  -----------------
         O           -2.912028959512    -0.478800333644     1.017305220627    15.994914619570
         O           -2.967285959512     0.514131666356    -1.039999779373    15.994914619570
         O           -0.312134959512    -3.431657333644     0.467627220627    15.994914619570
         O           -0.258137959512     3.446258666356    -0.476684779373    15.994914619570
         O           -1.900359959512    -2.482526333644    -0.748606779373    15.994914619570
         O           -1.839872959512     2.520161666356     0.767966220627    15.994914619570
         O            3.960589040488    -1.139528333644    -0.020548779373    15.994914619570
         O            3.982795040488     1.068554666356     0.046446220627    15.994914619570
         N           -0.843085959512    -2.464411333644    -0.099085779373    14.003074004430
         N           -0.795868959512     2.487637666356     0.097810220627    14.003074004430
         N            3.407808040488    -0.029754333644     0.010307220627    14.003074004430
         C           -0.863429959512     0.013813666356    -0.008373779373    12.000000000000
         C           -0.175446359512    -1.202270933644    -0.020673579373    12.000000000000
         C           -0.108463959512     1.189575666356     0.008626220627    12.000000000000
         C            1.931442040488    -0.014441333644     0.003175220627    12.000000000000
         C            1.254992040488    -1.227074333644    -0.000119779373    12.000000000000
         C            1.279721040488     1.212278666356     0.005243220627    12.000000000000
         C           -2.365706959512     0.053539666356    -0.092350779373    12.000000000000
         H            1.784359040488    -2.173145333644     0.007283220627     1.007825032230
         H            1.827628040488     2.147852666356     0.005887220627     1.007825032230
         H           -3.884963959512    -0.450053333644     0.890955220627     1.007825032230

  Basis Set: AUG-CC-PVTZ
    Blend: AUG-CC-PVTZ
  Basis Set: (AUG-CC-PVTZ AUX)
    Blend: AUG-CC-PVTZ-JKFIT
	 Reference Energy          =   -1029.0469384438522411 [Eh]
	 Singles Energy            =      -0.0000000000000000 [Eh]
	 Same-Spin Energy          =      -1.0499328547563296 [Eh]
	 Opposite-Spin Energy      =      -2.9502016306055099 [Eh]
	 Correlation Energy        =      -4.0001344853618397 [Eh]
	 Total Energy              =   -1033.0470729292139822 [Eh]

	 ================> DF-SCS-MP2 Energies <==================
	-----------------------------------------------------------
	 SCS Same-Spin Scale       =       0.3333333333333333 [-]
	 SCS Opposite-Spin Scale   =       1.2000000000000000 [-]
	 SCS Same-Spin Energy      =      -0.3499776182521098 [Eh]
	 SCS Opposite-Spin Energy  =      -3.5402419567266117 [Eh]
	 SCS Correlation Energy    =      -3.8902195749787216 [Eh]
	 SCS Total Energy          =   -1032.9371580188310418 [Eh]
	-----------------------------------------------------------

  Dipole Moment: [D]
     X:    -0.1484      Y:    -0.6256      Z:     1.1979     Total:     1.3595

*** Psi4 exiting successfully. Buy a developer a beer!
