                               Psi4 1.4a3.dev225

  ==> Input File <==

--------------------------------------------------------------------------
#psi4
#
memory 32 gb

molecule  {
0 1
  O       -2.9128620    -0.4781290     1.0138340
  O       -2.9681190     0.5148030    -1.0434710
  O       -0.3129680    -3.4309860     0.4641560
  O       -0.2589710     3.4469300    -0.4801560
  O       -1.9011930    -2.4818550    -0.7520780
  O       -1.8407060     2.5208330     0.7644950
  O        3.9597560    -1.1388570    -0.0240200
  O        3.9819620     1.0692260     0.0429750
  N       -0.8439190    -2.4637400    -0.1025570
  N       -0.7967020     2.4883090     0.0943390
  N        3.4069750    -0.0290830     0.0068360
  C       -0.8642630     0.0144850    -0.0118450
  C       -0.1342560    -1.1768520    -0.0236930
  C       -0.1092970     1.1902470     0.0051550
  C        1.9306090    -0.0137700    -0.0002960
  C        1.2541590    -1.2264030    -0.0035910
  C        1.2788880     1.2129500     0.0017720
  C       -2.3665400     0.0542110    -0.0958220
  H        1.7835260    -2.1724740     0.0038120
  H        1.8369021     2.1657822     0.0024279
  H       -3.8857970    -0.4493820     0.8874840
units angstrom
no_reorient  #important for SAPT in psi4, default
symmetry c1  #important for SAPT in psi4, default
}

set PROPERTIES_ORIGIN ["COM"]
properties('MP2/aug-cc-pvtz', properties = ['dipole'])
--------------------------------------------------------------------------

    Molecular point group: c1
  Charge       = 0
  Multiplicity = 1
  Basis Set: AUG-CC-PVTZ
    Blend: AUG-CC-PVTZ
  Basis Set: (AUG-CC-PVTZ AUX)
    Blend: AUG-CC-PVTZ-JKFIT

    Orbital Energies [Eh]
    ---------------------

    Doubly Occupied:

       1A    -20.657669     2A    -20.652723     3A    -20.652521
       4A    -20.650617     5A    -20.650565     6A    -20.650099
       7A    -20.649981     8A    -20.596019     9A    -15.902779
      10A    -15.902008    11A    -15.900038    12A    -11.452582
      13A    -11.386569    14A    -11.385382    15A    -11.380212
      16A    -11.375949    17A    -11.357338    18A    -11.355974
      19A     -1.636632    20A     -1.634766    21A     -1.633612
      22A     -1.506185    23A     -1.436704    24A     -1.434756
      25A     -1.434175    26A     -1.405729    27A     -1.290361
      28A     -1.184251    29A     -1.181132    30A     -1.056389
      31A     -1.035783    32A     -1.027355    33A     -0.924064
      34A     -0.883507    35A     -0.870871    36A     -0.837117
      37A     -0.802800    38A     -0.789471    39A     -0.788257
      40A     -0.776258    41A     -0.765828    42A     -0.763081
      43A     -0.757203    44A     -0.753553    45A     -0.745529
      46A     -0.741256    47A     -0.715940    48A     -0.690597
      49A     -0.667431    50A     -0.644457    51A     -0.629610
      52A     -0.608380    53A     -0.555353    54A     -0.549859
      55A     -0.544144    56A     -0.540267    57A     -0.536118
      58A     -0.534300    59A     -0.522384    60A     -0.509216
      61A     -0.493961    62A     -0.492251    63A     -0.486888
      64A     -0.447611    65A     -0.445953

  @DF-RHF Final Energy: -1029.04871900772150

   => Energetics <=

    Nuclear Repulsion Energy =           1345.7027418830220995
    One-Electron Energy =               -4082.9621686262844378
    Two-Electron Energy =                1708.2107077355408364
    Total Energy =                      -1029.0487190077215018
  Basis Set: (AUG-CC-PVTZ AUX)
    Blend: AUG-CC-PVTZ-RI
    Molecular point group: c1

    Geometry (in Angstrom), charge = 0, multiplicity = 1:

       Center              X                  Y                   Z               Mass
    ------------   -----------------  -----------------  -----------------  -----------------
         O           -2.914030838793    -0.480023579616     1.017284077584    15.994914619570
         O           -2.969287838793     0.512908420384    -1.040020922416    15.994914619570
         O           -0.314136838793    -3.432880579616     0.467606077584    15.994914619570
         O           -0.260139838793     3.445035420384    -0.476705922416    15.994914619570
         O           -1.902361838793    -2.483749579616    -0.748627922416    15.994914619570
         O           -1.841874838793     2.518938420384     0.767945077584    15.994914619570
         O            3.958587161207    -1.140751579616    -0.020569922416    15.994914619570
         O            3.980793161207     1.067331420384     0.046425077584    15.994914619570
         N           -0.845087838793    -2.465634579616    -0.099106922416    14.003074004430
         N           -0.797870838793     2.486414420384     0.097789077584    14.003074004430
         N            3.405806161207    -0.030977579616     0.010286077584    14.003074004430
         C           -0.865431838793     0.012590420384    -0.008394922416    12.000000000000
         C           -0.135424838793    -1.178746579616    -0.020242922416    12.000000000000
         C           -0.110465838793     1.188352420384     0.008605077584    12.000000000000
         C            1.929440161207    -0.015664579616     0.003154077584    12.000000000000
         C            1.252990161207    -1.228297579616    -0.000140922416    12.000000000000
         C            1.277719161207     1.211055420384     0.005222077584    12.000000000000
         C           -2.367708838793     0.052316420384    -0.092371922416    12.000000000000
         H            1.782357161207    -2.174368579616     0.007262077584     1.007825032230
         H            1.835733261207     2.163887620384     0.005877977584     1.007825032230
         H           -3.886965838793    -0.451276579616     0.890934077584     1.007825032230

  Basis Set: AUG-CC-PVTZ
    Blend: AUG-CC-PVTZ
  Basis Set: (AUG-CC-PVTZ AUX)
    Blend: AUG-CC-PVTZ-JKFIT
	 Reference Energy          =   -1029.0487190077215018 [Eh]
	 Singles Energy            =      -0.0000000000000000 [Eh]
	 Same-Spin Energy          =      -1.0500778992333795 [Eh]
	 Opposite-Spin Energy      =      -2.9504839846575384 [Eh]
	 Correlation Energy        =      -4.0005618838909180 [Eh]
	 Total Energy              =   -1033.0492808916123977 [Eh]

	 ================> DF-SCS-MP2 Energies <==================
	-----------------------------------------------------------
	 SCS Same-Spin Scale       =       0.3333333333333333 [-]
	 SCS Opposite-Spin Scale   =       1.2000000000000000 [-]
	 SCS Same-Spin Energy      =      -0.3500259664111265 [Eh]
	 SCS Opposite-Spin Energy  =      -3.5405807815890458 [Eh]
	 SCS Correlation Energy    =      -3.8906067480001720 [Eh]
	 SCS Total Energy          =   -1032.9393257557217112 [Eh]
	-----------------------------------------------------------

  Dipole Moment: [D]
     X:    -0.1278      Y:    -0.6046      Z:     1.1898     Total:     1.3407

*** Psi4 exiting successfully. Buy a developer a beer!
