                               Psi4 1.4a3.dev225

  ==> Input File <==

--------------------------------------------------------------------------
#psi4
#
memory 32 gb

molecule  {
0 1
  O       -2.9128620    -0.4781290     1.0138340
  O       -2.9681190     0.5148030    -1.0434710
  O       -0.3129680    -3.4309860     0.4641560
  O       -0.2589710     3.4469300    -0.4801560
  O       -1.9011930    -2.4818550    -0.7520780
  O       -1.8407060     2.5208330     0.7644950
  O        3.9597560    -1.1388570    -0.0240200
  O        3.9819620     1.0692260     0.0429750
  N       -0.8439190    -2.4637400    -0.1025570
  N       -0.7967020     2.4883090     0.0943390
  N        3.4069750    -0.0290830     0.0068360
  C       -0.8642630     0.0144850    -0.0118450
  C       -0.1342560    -1.1768520    -0.0236930
  C       -0.0158707     1.0138253    -0.0069661
  C        1.9306090    -0.0137700    -0.0002960
  C        1.2541590    -1.2264030    -0.0035910
  C        1.2788880     1.2129500     0.0017720
  C       -2.3665400     0.0542110    -0.0958220
  H        1.7835260    -2.1724740     0.0038120
  H        1.8267950     2.1485240     0.0024160
  H       -3.8857970    -0.4493820     0.8874840
units angstrom
no_reorient  #important for SAPT in psi4, default
symmetry c1  #important for SAPT in psi4, default
}

set PROPERTIES_ORIGIN ["COM"]
properties('MP2/aug-cc-pvtz', properties = ['dipole'])
--------------------------------------------------------------------------

    Molecular point group: c1
  Charge       = 0
  Multiplicity = 1
  Basis Set: AUG-CC-PVTZ
    Blend: AUG-CC-PVTZ
  Basis Set: (AUG-CC-PVTZ AUX)
    Blend: AUG-CC-PVTZ-JKFIT

    Orbital Energies [Eh]
    ---------------------

    Doubly Occupied:

       1A    -20.660274     2A    -20.654550     3A    -20.654495
       4A    -20.653391     5A    -20.652962     6A    -20.641203
       7A    -20.640803     8A    -20.598658     9A    -15.903652
      10A    -15.903228    11A    -15.880977    12A    -11.458604
      13A    -11.391520    14A    -11.386960    15A    -11.385125
      16A    -11.367939    17A    -11.352547    18A    -11.348673
      19A     -1.638340    20A     -1.636984    21A     -1.611149
      22A     -1.508604    23A     -1.438396    24A     -1.436997
      25A     -1.420062    26A     -1.407870    27A     -1.313249
      28A     -1.195047    29A     -1.173384    30A     -1.066736
      31A     -1.036994    32A     -0.991953    33A     -0.936609
      34A     -0.885079    35A     -0.871484    36A     -0.838213
      37A     -0.803084    38A     -0.790399    39A     -0.785113
      40A     -0.767559    41A     -0.767342    42A     -0.758107
      43A     -0.754508    44A     -0.749026    45A     -0.744094
      46A     -0.735603    47A     -0.721294    48A     -0.703871
      49A     -0.670035    50A     -0.655256    51A     -0.636561
      52A     -0.627857    53A     -0.555944    54A     -0.549169
      55A     -0.543959    56A     -0.540982    57A     -0.532638
      58A     -0.524071    59A     -0.513561    60A     -0.496843
      61A     -0.495961    62A     -0.493711    63A     -0.479435
      64A     -0.458454    65A     -0.453104

  @DF-RHF Final Energy: -1029.00944901942080

   => Energetics <=

    Nuclear Repulsion Energy =           1347.0465203948574526
    One-Electron Energy =               -4085.6114313045086419
    Two-Electron Energy =                1709.5554618902303901
    Total Energy =                      -1029.0094490194207992
  Basis Set: (AUG-CC-PVTZ AUX)
    Blend: AUG-CC-PVTZ-RI
    Molecular point group: c1

    Geometry (in Angstrom), charge = 0, multiplicity = 1:

       Center              X                  Y                   Z               Mass
    ------------   -----------------  -----------------  -----------------  -----------------
         O           -2.918353655654    -0.471718054428     1.017850107597    15.994914619570
         O           -2.973610655654     0.521213945572    -1.039454892403    15.994914619570
         O           -0.318459655654    -3.424575054428     0.468172107597    15.994914619570
         O           -0.264462655654     3.453340945572    -0.476139892403    15.994914619570
         O           -1.906684655654    -2.475444054428    -0.748061892403    15.994914619570
         O           -1.846197655654     2.527243945572     0.768511107597    15.994914619570
         O            3.954264344346    -1.132446054428    -0.020003892403    15.994914619570
         O            3.976470344346     1.075636945572     0.046991107597    15.994914619570
         N           -0.849410655654    -2.457329054428    -0.098540892403    14.003074004430
         N           -0.802193655654     2.494719945572     0.098355107597    14.003074004430
         N            3.401483344346    -0.022672054428     0.010852107597    14.003074004430
         C           -0.869754655654     0.020895945572    -0.007828892403    12.000000000000
         C           -0.139747655654    -1.170441054428    -0.019676892403    12.000000000000
         C           -0.021362355654     1.020236245572    -0.002949992403    12.000000000000
         C            1.925117344346    -0.007359054428     0.003720107597    12.000000000000
         C            1.248667344346    -1.219992054428     0.000425107597    12.000000000000
         C            1.273396344346     1.219360945572     0.005788107597    12.000000000000
         C           -2.372031655654     0.060621945572    -0.091805892403    12.000000000000
         H            1.778034344346    -2.166063054428     0.007828107597     1.007825032230
         H            1.821303344346     2.154934945572     0.006432107597     1.007825032230
         H           -3.891288655654    -0.442971054428     0.891500107597     1.007825032230

  Basis Set: AUG-CC-PVTZ
    Blend: AUG-CC-PVTZ
  Basis Set: (AUG-CC-PVTZ AUX)
    Blend: AUG-CC-PVTZ-JKFIT
	 Reference Energy          =   -1029.0094490194207992 [Eh]
	 Singles Energy            =      -0.0000000000000000 [Eh]
	 Same-Spin Energy          =      -1.0523774390815561 [Eh]
	 Opposite-Spin Energy      =      -2.9542775259873246 [Eh]
	 Correlation Energy        =      -4.0066549650688810 [Eh]
	 Total Energy              =   -1033.0161039844897459 [Eh]

	 ================> DF-SCS-MP2 Energies <==================
	-----------------------------------------------------------
	 SCS Same-Spin Scale       =       0.3333333333333333 [-]
	 SCS Opposite-Spin Scale   =       1.2000000000000000 [-]
	 SCS Same-Spin Energy      =      -0.3507924796938520 [Eh]
	 SCS Opposite-Spin Energy  =      -3.5451330311847893 [Eh]
	 SCS Correlation Energy    =      -3.8959255108786413 [Eh]
	 SCS Total Energy          =   -1032.9053745302994685 [Eh]
	-----------------------------------------------------------

  Dipole Moment: [D]
     X:    -0.1059      Y:    -0.8011      Z:     1.1733     Total:     1.4246

*** Psi4 exiting successfully. Buy a developer a beer!
