                               Psi4 1.4a3.dev225

  ==> Input File <==

--------------------------------------------------------------------------
#psi4
#
memory 32 gb

molecule  {
0 1
  O       -2.9128620    -0.4781290     1.0138340
  O       -2.9681190     0.5148030    -1.0434710
  O       -0.3129680    -3.4309860     0.4641560
  O       -0.2589710     3.4469300    -0.4801560
  O       -1.9011930    -2.4818550    -0.7520780
  O       -1.8407060     2.5208330     0.7644950
  O        3.9597560    -1.1388570    -0.0240200
  O        3.9819620     1.0692260     0.0429750
  N       -0.8439190    -2.4637400    -0.1025570
  N       -0.7967020     2.4883090     0.0943390
  N        3.4069750    -0.0290830     0.0068360
  C       -0.8642630     0.0144850    -0.0118450
  C       -0.1342560    -1.1768520    -0.0236930
  C       -0.1092970     1.1902470     0.0051550
  C        1.9306090    -0.0137700    -0.0002960
  C        1.1542331    -1.2228368    -0.0050378
  C        1.2788880     1.2129500     0.0017720
  C       -2.3665400     0.0542110    -0.0958220
  H        1.7835260    -2.1724740     0.0038120
  H        1.8267950     2.1485240     0.0024160
  H       -3.8857970    -0.4493820     0.8874840
units angstrom
no_reorient  #important for SAPT in psi4, default
symmetry c1  #important for SAPT in psi4, default
}

set PROPERTIES_ORIGIN ["COM"]
properties('MP2/aug-cc-pvtz', properties = ['dipole'])
--------------------------------------------------------------------------

    Molecular point group: c1
  Charge       = 0
  Multiplicity = 1
  Basis Set: AUG-CC-PVTZ
    Blend: AUG-CC-PVTZ
  Basis Set: (AUG-CC-PVTZ AUX)
    Blend: AUG-CC-PVTZ-JKFIT

    Orbital Energies [Eh]
    ---------------------

    Doubly Occupied:

       1A    -20.658340     2A    -20.653301     3A    -20.653201
       4A    -20.651494     5A    -20.650478     6A    -20.650270
       7A    -20.649973     8A    -20.596505     9A    -15.904063
      10A    -15.902421    11A    -15.900186    12A    -11.453002
      13A    -11.385249    14A    -11.382326    15A    -11.377431
      16A    -11.375926    17A    -11.353983    18A    -11.349837
      19A     -1.637331    20A     -1.634813    21A     -1.633783
      22A     -1.506805    23A     -1.437262    24A     -1.434807
      25A     -1.434341    26A     -1.406247    27A     -1.296631
      28A     -1.191894    29A     -1.177061    30A     -1.060435
      31A     -1.038466    32A     -1.024445    33A     -0.923901
      34A     -0.883028    35A     -0.873494    36A     -0.837482
      37A     -0.803651    38A     -0.797130    39A     -0.785479
      40A     -0.775268    41A     -0.766780    42A     -0.762908
      43A     -0.756824    44A     -0.753236    45A     -0.745372
      46A     -0.741049    47A     -0.719322    48A     -0.693472
      49A     -0.666429    50A     -0.631557    51A     -0.627548
      52A     -0.611481    53A     -0.555809    54A     -0.550567
      55A     -0.543536    56A     -0.540902    57A     -0.536683
      58A     -0.534740    59A     -0.522391    60A     -0.509535
      61A     -0.494155    62A     -0.492370    63A     -0.487025
      64A     -0.459692    65A     -0.439306

  @DF-RHF Final Energy: -1029.03547527993987

   => Energetics <=

    Nuclear Repulsion Energy =           1347.1491521929324335
    One-Electron Energy =               -4085.8003920324090359
    Two-Electron Energy =                1709.6157645595367285
    Total Energy =                      -1029.0354752799398739
  Basis Set: (AUG-CC-PVTZ AUX)
    Blend: AUG-CC-PVTZ-RI
    Molecular point group: c1

    Geometry (in Angstrom), charge = 0, multiplicity = 1:

       Center              X                  Y                   Z               Mass
    ------------   -----------------  -----------------  -----------------  -----------------
         O           -2.909325256821    -0.480122419863     1.017351681214    15.994914619570
         O           -2.964582256821     0.512809580137    -1.039953318786    15.994914619570
         O           -0.309431256821    -3.432979419863     0.467673681214    15.994914619570
         O           -0.255434256821     3.444936580137    -0.476638318786    15.994914619570
         O           -1.897656256821    -2.483848419863    -0.748560318786    15.994914619570
         O           -1.837169256821     2.518839580137     0.768012681214    15.994914619570
         O            3.963292743179    -1.140850419863    -0.020502318786    15.994914619570
         O            3.985498743179     1.067232580137     0.046492681214    15.994914619570
         N           -0.840382256821    -2.465733419863    -0.099039318786    14.003074004430
         N           -0.793165256821     2.486315580137     0.097856681214    14.003074004430
         N            3.410511743179    -0.031076419863     0.010353681214    14.003074004430
         C           -0.860726256821     0.012491580137    -0.008327318786    12.000000000000
         C           -0.130719256821    -1.178845419863    -0.020175318786    12.000000000000
         C           -0.105760256821     1.188253580137     0.008672681214    12.000000000000
         C            1.934145743179    -0.015763419863     0.003221681214    12.000000000000
         C            1.157769843179    -1.224830219863    -0.001520118786    12.000000000000
         C            1.282424743179     1.210956580137     0.005289681214    12.000000000000
         C           -2.363003256821     0.052217580137    -0.092304318786    12.000000000000
         H            1.787062743179    -2.174467419863     0.007329681214     1.007825032230
         H            1.830331743179     2.146530580137     0.005933681214     1.007825032230
         H           -3.882260256821    -0.451375419863     0.891001681214     1.007825032230

  Basis Set: AUG-CC-PVTZ
    Blend: AUG-CC-PVTZ
  Basis Set: (AUG-CC-PVTZ AUX)
    Blend: AUG-CC-PVTZ-JKFIT
	 Reference Energy          =   -1029.0354752799398739 [Eh]
	 Singles Energy            =      -0.0000000000000000 [Eh]
	 Same-Spin Energy          =      -1.0500372109537104 [Eh]
	 Opposite-Spin Energy      =      -2.9509257702690697 [Eh]
	 Correlation Energy        =      -4.0009629812227798 [Eh]
	 Total Energy              =   -1033.0364382611626297 [Eh]

	 ================> DF-SCS-MP2 Energies <==================
	-----------------------------------------------------------
	 SCS Same-Spin Scale       =       0.3333333333333333 [-]
	 SCS Opposite-Spin Scale   =       1.2000000000000000 [-]
	 SCS Same-Spin Energy      =      -0.3500124036512368 [Eh]
	 SCS Opposite-Spin Energy  =      -3.5411109243228833 [Eh]
	 SCS Correlation Energy    =      -3.8911233279741202 [Eh]
	 SCS Total Energy          =   -1032.9265986079140021 [Eh]
	-----------------------------------------------------------

  Dipole Moment: [D]
     X:    -0.0392      Y:    -0.6000      Z:     1.1985     Total:     1.3409

*** Psi4 exiting successfully. Buy a developer a beer!
