                               Psi4 1.4a3.dev225

  ==> Input File <==

--------------------------------------------------------------------------
#psi4
#
memory 32 gb

molecule  {
0 1
  O       -2.9128620    -0.4781290     1.0138340
  O       -2.9681190     0.5148030    -1.0434710
  O       -0.3129680    -3.4309860     0.4641560
  O       -0.2589710     3.4469300    -0.4801560
  O       -1.9011930    -2.4818550    -0.7520780
  O       -1.8407060     2.5208330     0.7644950
  O        3.9597560    -1.1388570    -0.0240200
  O        3.9819620     1.0692260     0.0429750
  N       -0.6735257    -2.4608205     0.0021216
  N       -0.7967020     2.4883090     0.0943390
  N        3.4069750    -0.0290830     0.0068360
  C       -0.8642630     0.0144850    -0.0118450
  C       -0.1342560    -1.1768520    -0.0236930
  C       -0.1092970     1.1902470     0.0051550
  C        1.9306090    -0.0137700    -0.0002960
  C        1.2541590    -1.2264030    -0.0035910
  C        1.2788880     1.2129500     0.0017720
  C       -2.3665400     0.0542110    -0.0958220
  H        1.7835260    -2.1724740     0.0038120
  H        1.8267950     2.1485240     0.0024160
  H       -3.8857970    -0.4493820     0.8874840
units angstrom
no_reorient  #important for SAPT in psi4, default
symmetry c1  #important for SAPT in psi4, default
}

set PROPERTIES_ORIGIN ["COM"]
properties('MP2/aug-cc-pvtz', properties = ['dipole'])
--------------------------------------------------------------------------

    Molecular point group: c1
  Charge       = 0
  Multiplicity = 1
  Basis Set: AUG-CC-PVTZ
    Blend: AUG-CC-PVTZ
  Basis Set: (AUG-CC-PVTZ AUX)
    Blend: AUG-CC-PVTZ-JKFIT

    Orbital Energies [Eh]
    ---------------------

    Doubly Occupied:

       1A    -20.709453     2A    -20.653576     3A    -20.653501
       4A    -20.651486     5A    -20.651406     6A    -20.649153
       7A    -20.589021     8A    -20.586688     9A    -15.904722
      10A    -15.901715    11A    -15.886706    12A    -11.447511
      13A    -11.388723    14A    -11.387165    15A    -11.382858
      16A    -11.382466    17A    -11.360886    18A    -11.359943
      19A     -1.695252    20A     -1.637709    21A     -1.635030
      22A     -1.498351    23A     -1.437729    24A     -1.435428
      25A     -1.398338    26A     -1.349440    27A     -1.290735
      28A     -1.200566    29A     -1.186094    30A     -1.072639
      31A     -1.041874    32A     -1.031787    33A     -0.922984
      34A     -0.891608    35A     -0.876816    36A     -0.845363
      37A     -0.812333    38A     -0.801015    39A     -0.792704
      40A     -0.778444    41A     -0.773624    42A     -0.764741
      43A     -0.759504    44A     -0.756706    45A     -0.746580
      46A     -0.736487    47A     -0.718723    48A     -0.693251
      49A     -0.663985    50A     -0.647849    51A     -0.625338
      52A     -0.611897    53A     -0.553348    54A     -0.545261
      55A     -0.544537    56A     -0.537528    57A     -0.527327
      58A     -0.521752    59A     -0.502497    60A     -0.497938
      61A     -0.496002    62A     -0.485337    63A     -0.471068
      64A     -0.449615    65A     -0.444261

  @DF-RHF Final Energy: -1028.99616484049648

   => Energetics <=

    Nuclear Repulsion Energy =           1346.4260968945766308
    One-Electron Energy =               -4084.3357765867740454
    Two-Electron Energy =                1708.9135148517011658
    Total Energy =                      -1028.9961648404964762
  Basis Set: (AUG-CC-PVTZ AUX)
    Blend: AUG-CC-PVTZ-RI
    Molecular point group: c1

    Geometry (in Angstrom), charge = 0, multiplicity = 1:

       Center              X                  Y                   Z               Mass
    ------------   -----------------  -----------------  -----------------  -----------------
         O           -2.923275654473    -0.480114978287     1.011580358756    15.994914619570
         O           -2.978532654473     0.512817021713    -1.045724641244    15.994914619570
         O           -0.323381654473    -3.432971978287     0.461902358756    15.994914619570
         O           -0.269384654473     3.444944021713    -0.482409641244    15.994914619570
         O           -1.911606654473    -2.483840978287    -0.754331641244    15.994914619570
         O           -1.851119654473     2.518847021713     0.762241358756    15.994914619570
         O            3.949342345527    -1.140842978287    -0.026273641244    15.994914619570
         O            3.971548345527     1.067240021713     0.040721358756    15.994914619570
         N           -0.683939354473    -2.462806478287    -0.000132041244    14.003074004430
         N           -0.807115654473     2.486323021713     0.092085358756    14.003074004430
         N            3.396561345527    -0.031068978287     0.004582358756    14.003074004430
         C           -0.874676654473     0.012499021713    -0.014098641244    12.000000000000
         C           -0.144669654473    -1.178837978287    -0.025946641244    12.000000000000
         C           -0.119710654473     1.188261021713     0.002901358756    12.000000000000
         C            1.920195345527    -0.015755978287    -0.002549641244    12.000000000000
         C            1.243745345527    -1.228388978287    -0.005844641244    12.000000000000
         C            1.268474345527     1.210964021713    -0.000481641244    12.000000000000
         C           -2.376953654473     0.052225021713    -0.098075641244    12.000000000000
         H            1.773112345527    -2.174459978287     0.001558358756     1.007825032230
         H            1.816381345527     2.146538021713     0.000162358756     1.007825032230
         H           -3.896210654473    -0.451367978287     0.885230358756     1.007825032230

  Basis Set: AUG-CC-PVTZ
    Blend: AUG-CC-PVTZ
  Basis Set: (AUG-CC-PVTZ AUX)
    Blend: AUG-CC-PVTZ-JKFIT
	 Reference Energy          =   -1028.9961648404964762 [Eh]
	 Singles Energy            =      -0.0000000000000000 [Eh]
	 Same-Spin Energy          =      -1.0475043312768271 [Eh]
	 Opposite-Spin Energy      =      -2.9465809527158227 [Eh]
	 Correlation Energy        =      -3.9940852839926499 [Eh]
	 Total Energy              =   -1032.9902501244891937 [Eh]

	 ================> DF-SCS-MP2 Energies <==================
	-----------------------------------------------------------
	 SCS Same-Spin Scale       =       0.3333333333333333 [-]
	 SCS Opposite-Spin Scale   =       1.2000000000000000 [-]
	 SCS Same-Spin Energy      =      -0.3491681104256090 [Eh]
	 SCS Opposite-Spin Energy  =      -3.5358971432589872 [Eh]
	 SCS Correlation Energy    =      -3.8850652536845960 [Eh]
	 SCS Total Energy          =   -1032.8812300941810918 [Eh]
	-----------------------------------------------------------

  Dipole Moment: [D]
     X:     0.9497      Y:    -0.4091      Z:     1.8819     Total:     2.1473

*** Psi4 exiting successfully. Buy a developer a beer!
