                               Psi4 1.4a3.dev225

  ==> Input File <==

--------------------------------------------------------------------------
#psi4
#
memory 32 gb

molecule  {
0 1
  O       -2.9128620    -0.4781290     1.0138340
  O       -2.9681190     0.5148030    -1.0434710
  O       -0.3129680    -3.4309860     0.4641560
  O       -0.2589710     3.4469300    -0.4801560
  O       -1.9011930    -2.4818550    -0.7520780
  O       -1.8407060     2.5208330     0.7644950
  O        3.9597560    -1.1388570    -0.0240200
  O        3.9819620     1.0692260     0.0429750
  N       -0.8439190    -2.4637400    -0.1025570
  N       -0.7967020     2.4883090     0.0943390
  N        3.4069750    -0.0290830     0.0068360
  C       -0.8642630     0.0144850    -0.0118450
  C       -0.2306968    -1.3517357    -0.0344103
  C       -0.1092970     1.1902470     0.0051550
  C        1.9306090    -0.0137700    -0.0002960
  C        1.2541590    -1.2264030    -0.0035910
  C        1.2788880     1.2129500     0.0017720
  C       -2.3665400     0.0542110    -0.0958220
  H        1.7835260    -2.1724740     0.0038120
  H        1.8267950     2.1485240     0.0024160
  H       -3.8857970    -0.4493820     0.8874840
units angstrom
no_reorient  #important for SAPT in psi4, default
symmetry c1  #important for SAPT in psi4, default
}

set PROPERTIES_ORIGIN ["COM"]
properties('MP2/aug-cc-pvtz', properties = ['dipole'])
--------------------------------------------------------------------------

    Molecular point group: c1
  Charge       = 0
  Multiplicity = 1
  Basis Set: AUG-CC-PVTZ
    Blend: AUG-CC-PVTZ
  Basis Set: (AUG-CC-PVTZ AUX)
    Blend: AUG-CC-PVTZ-JKFIT

    Orbital Energies [Eh]
    ---------------------

    Doubly Occupied:

       1A    -20.656547     2A    -20.651960     3A    -20.651882
       4A    -20.651515     5A    -20.651499     6A    -20.646002
       7A    -20.645727     8A    -20.594422     9A    -15.904523
      10A    -15.902782    11A    -15.895877    12A    -11.449186
      13A    -11.393268    14A    -11.388170    15A    -11.386556
      16A    -11.381436    17A    -11.372936    18A    -11.366649
      19A     -1.656541    20A     -1.636245    21A     -1.635432
      22A     -1.504969    23A     -1.439393    24A     -1.436140
      25A     -1.435885    26A     -1.404362    27A     -1.281803
      28A     -1.218043    29A     -1.181811    30A     -1.076298
      31A     -1.038852    32A     -1.029186    33A     -0.918581
      34A     -0.880488    35A     -0.867971    36A     -0.838772
      37A     -0.807182    38A     -0.804993    39A     -0.790098
      40A     -0.780783    41A     -0.773416    42A     -0.765342
      43A     -0.758799    44A     -0.756288    45A     -0.748385
      46A     -0.742030    47A     -0.711759    48A     -0.678010
      49A     -0.668144    50A     -0.639932    51A     -0.613644
      52A     -0.596078    53A     -0.559703    54A     -0.550606
      55A     -0.547725    56A     -0.541066    57A     -0.539010
      58A     -0.534232    59A     -0.523099    60A     -0.504851
      61A     -0.495214    62A     -0.492270    63A     -0.488300
      64A     -0.446783    65A     -0.432418

  @DF-RHF Final Energy: -1028.99706208228145

   => Energetics <=

    Nuclear Repulsion Energy =           1345.3388864262642528
    One-Electron Energy =               -4081.9481556160653781
    Two-Electron Energy =                1707.6122071075196800
    Total Energy =                      -1028.9970620822814453
  Basis Set: (AUG-CC-PVTZ AUX)
    Blend: AUG-CC-PVTZ-RI
    Molecular point group: c1

    Geometry (in Angstrom), charge = 0, multiplicity = 1:

       Center              X                  Y                   Z               Mass
    ------------   -----------------  -----------------  -----------------  -----------------
         O           -2.909487990282    -0.471789869889     1.017784558479    15.994914619570
         O           -2.964744990282     0.521142130111    -1.039520441521    15.994914619570
         O           -0.309593990282    -3.424646869889     0.468106558479    15.994914619570
         O           -0.255596990282     3.453269130111    -0.476205441521    15.994914619570
         O           -1.897818990282    -2.475515869889    -0.748127441521    15.994914619570
         O           -1.837331990282     2.527172130111     0.768445558479    15.994914619570
         O            3.963130009718    -1.132517869889    -0.020069441521    15.994914619570
         O            3.985336009718     1.075565130111     0.046925558479    15.994914619570
         N           -0.840544990282    -2.457400869889    -0.098606441521    14.003074004430
         N           -0.793327990282     2.494648130111     0.098289558479    14.003074004430
         N            3.410349009718    -0.022743869889     0.010786558479    14.003074004430
         C           -0.860888990282     0.020824130111    -0.007894441521    12.000000000000
         C           -0.227322790282    -1.345396569889    -0.030459741521    12.000000000000
         C           -0.105922990282     1.196586130111     0.009105558479    12.000000000000
         C            1.933983009718    -0.007430869889     0.003654558479    12.000000000000
         C            1.257533009718    -1.220063869889     0.000359558479    12.000000000000
         C            1.282262009718     1.219289130111     0.005722558479    12.000000000000
         C           -2.363165990282     0.060550130111    -0.091871441521    12.000000000000
         H            1.786900009718    -2.166134869889     0.007762558479     1.007825032230
         H            1.830169009718     2.154863130111     0.006366558479     1.007825032230
         H           -3.882422990282    -0.443042869889     0.891434558479     1.007825032230

  Basis Set: AUG-CC-PVTZ
    Blend: AUG-CC-PVTZ
  Basis Set: (AUG-CC-PVTZ AUX)
    Blend: AUG-CC-PVTZ-JKFIT
	 Reference Energy          =   -1028.9970620822814453 [Eh]
	 Singles Energy            =      -0.0000000000000000 [Eh]
	 Same-Spin Energy          =      -1.0516617142541338 [Eh]
	 Opposite-Spin Energy      =      -2.9520076897279774 [Eh]
	 Correlation Energy        =      -4.0036694039821112 [Eh]
	 Total Energy              =   -1033.0007314862634757 [Eh]

	 ================> DF-SCS-MP2 Energies <==================
	-----------------------------------------------------------
	 SCS Same-Spin Scale       =       0.3333333333333333 [-]
	 SCS Opposite-Spin Scale   =       1.2000000000000000 [-]
	 SCS Same-Spin Energy      =      -0.3505539047513779 [Eh]
	 SCS Opposite-Spin Energy  =      -3.5424092276735730 [Eh]
	 SCS Correlation Energy    =      -3.8929631324249510 [Eh]
	 SCS Total Energy          =   -1032.8900252147063838 [Eh]
	-----------------------------------------------------------

  Dipole Moment: [D]
     X:    -0.1136      Y:    -0.6653      Z:     1.1847     Total:     1.3635

*** Psi4 exiting successfully. Buy a developer a beer!
