                               Psi4 1.4a3.dev225

  ==> Input File <==

--------------------------------------------------------------------------
#psi4
#
memory 32 gb

molecule  {
0 1
  O       -2.9128620    -0.4781290     1.0138340
  O       -2.9681190     0.5148030    -1.0434710
  O       -0.3129680    -3.4309860     0.4641560
  O       -0.2589710     3.4469300    -0.4801560
  O       -1.9011930    -2.4818550    -0.7520780
  O       -1.8407060     2.5208330     0.7644950
  O        3.9597560    -1.1388570    -0.0240200
  O        3.9039070     1.1066538     0.0437042
  N       -0.8439190    -2.4637400    -0.1025570
  N       -0.7967020     2.4883090     0.0943390
  N        3.4069750    -0.0290830     0.0068360
  C       -0.8642630     0.0144850    -0.0118450
  C       -0.1342560    -1.1768520    -0.0236930
  C       -0.1092970     1.1902470     0.0051550
  C        1.9306090    -0.0137700    -0.0002960
  C        1.2541590    -1.2264030    -0.0035910
  C        1.2788880     1.2129500     0.0017720
  C       -2.3665400     0.0542110    -0.0958220
  H        1.7835260    -2.1724740     0.0038120
  H        1.8267950     2.1485240     0.0024160
  H       -3.8857970    -0.4493820     0.8874840
units angstrom
no_reorient  #important for SAPT in psi4, default
symmetry c1  #important for SAPT in psi4, default
}

set PROPERTIES_ORIGIN ["COM"]
properties('MP2/aug-cc-pvtz', properties = ['dipole'])
--------------------------------------------------------------------------

    Molecular point group: c1
  Charge       = 0
  Multiplicity = 1
  Basis Set: AUG-CC-PVTZ
    Blend: AUG-CC-PVTZ
  Basis Set: (AUG-CC-PVTZ AUX)
    Blend: AUG-CC-PVTZ-JKFIT

    Orbital Energies [Eh]
    ---------------------

    Doubly Occupied:

       1A    -20.656709     2A    -20.656535     3A    -20.653848
       4A    -20.651726     5A    -20.651536     6A    -20.649066
       7A    -20.648925     8A    -20.594943     9A    -15.904634
      10A    -15.901718    11A    -15.898958    12A    -11.451456
      13A    -11.385023    14A    -11.383705    15A    -11.376829
      16A    -11.374170    17A    -11.353755    18A    -11.353153
      19A     -1.636130    20A     -1.635566    21A     -1.632573
      22A     -1.505184    23A     -1.443861    24A     -1.435730
      25A     -1.433151    26A     -1.404713    27A     -1.288396
      28A     -1.181328    29A     -1.179835    30A     -1.054924
      31A     -1.033865    32A     -1.026504    33A     -0.923923
      34A     -0.882465    35A     -0.871144    36A     -0.838678
      37A     -0.801776    38A     -0.789669    39A     -0.787384
      40A     -0.776090    41A     -0.765458    42A     -0.762217
      43A     -0.760281    44A     -0.755802    45A     -0.744903
      46A     -0.740393    47A     -0.715310    48A     -0.689641
      49A     -0.666528    50A     -0.644663    51A     -0.628646
      52A     -0.606814    53A     -0.553858    54A     -0.549089
      55A     -0.548844    56A     -0.541155    57A     -0.534303
      58A     -0.533417    59A     -0.521410    60A     -0.508122
      61A     -0.499512    62A     -0.491391    63A     -0.485925
      64A     -0.445489    65A     -0.444515

  @DF-RHF Final Energy: -1029.04708818931454

   => Energetics <=

    Nuclear Repulsion Energy =           1347.0196593971995753
    One-Electron Energy =               -4085.6389744762459486
    Two-Electron Energy =                1709.5722268897318372
    Total Energy =                      -1029.0470881893145361
  Basis Set: (AUG-CC-PVTZ AUX)
    Blend: AUG-CC-PVTZ-RI
    Molecular point group: c1

    Geometry (in Angstrom), charge = 0, multiplicity = 1:

       Center              X                  Y                   Z               Mass
    ------------   -----------------  -----------------  -----------------  -----------------
         O           -2.909133140888    -0.482285366705     1.017238739605    15.994914619570
         O           -2.964390140888     0.510646633295    -1.040066260395    15.994914619570
         O           -0.309239140888    -3.435142366705     0.467560739605    15.994914619570
         O           -0.255242140888     3.442773633295    -0.476751260395    15.994914619570
         O           -1.897464140888    -2.486011366705    -0.748673260395    15.994914619570
         O           -1.836977140888     2.516676633295     0.767899739605    15.994914619570
         O            3.963484859112    -1.143013366705    -0.020615260395    15.994914619570
         O            3.907635859112     1.102497433295     0.047108939605    15.994914619570
         N           -0.840190140888    -2.467896366705    -0.099152260395    14.003074004430
         N           -0.792973140888     2.484152633295     0.097743739605    14.003074004430
         N            3.410703859112    -0.033239366705     0.010240739605    14.003074004430
         C           -0.860534140888     0.010328633295    -0.008440260395    12.000000000000
         C           -0.130527140888    -1.181008366705    -0.020288260395    12.000000000000
         C           -0.105568140888     1.186090633295     0.008559739605    12.000000000000
         C            1.934337859112    -0.017926366705     0.003108739605    12.000000000000
         C            1.257887859112    -1.230559366705    -0.000186260395    12.000000000000
         C            1.282616859112     1.208793633295     0.005176739605    12.000000000000
         C           -2.362811140888     0.050054633295    -0.092417260395    12.000000000000
         H            1.787254859112    -2.176630366705     0.007216739605     1.007825032230
         H            1.830523859112     2.144367633295     0.005820739605     1.007825032230
         H           -3.882068140888    -0.453538366705     0.890888739605     1.007825032230

  Basis Set: AUG-CC-PVTZ
    Blend: AUG-CC-PVTZ
  Basis Set: (AUG-CC-PVTZ AUX)
    Blend: AUG-CC-PVTZ-JKFIT
	 Reference Energy          =   -1029.0470881893145361 [Eh]
	 Singles Energy            =      -0.0000000000000000 [Eh]
	 Same-Spin Energy          =      -1.0503186351124723 [Eh]
	 Opposite-Spin Energy      =      -2.9507146960209134 [Eh]
	 Correlation Energy        =      -4.0010333311333852 [Eh]
	 Total Energy              =   -1033.0481215204479213 [Eh]

	 ================> DF-SCS-MP2 Energies <==================
	-----------------------------------------------------------
	 SCS Same-Spin Scale       =       0.3333333333333333 [-]
	 SCS Opposite-Spin Scale   =       1.2000000000000000 [-]
	 SCS Same-Spin Energy      =      -0.3501062117041574 [Eh]
	 SCS Opposite-Spin Energy  =      -3.5408576352250960 [Eh]
	 SCS Correlation Energy    =      -3.8909638469292536 [Eh]
	 SCS Total Energy          =   -1032.9380520362437892 [Eh]
	-----------------------------------------------------------

  Dipole Moment: [D]
     X:     0.1193      Y:    -0.6500      Z:     1.1902     Total:     1.3614

*** Psi4 exiting successfully. Buy a developer a beer!
