                               Psi4 1.4a3.dev225

  ==> Input File <==

--------------------------------------------------------------------------
#psi4
#
memory 32 gb

molecule  {
0 1
  O       -2.9128620    -0.4781290     1.0138340
  O       -2.9681190     0.5148030    -1.0434710
  O       -0.3129680    -3.4309860     0.4641560
  O       -0.2589710     3.4469300    -0.4801560
  O       -1.9011930    -2.4818550    -0.7520780
  O       -1.8407060     2.5208330     0.7644950
  O        3.9597560    -1.1388570    -0.0240200
  O        3.9819620     1.0692260     0.0429750
  N       -0.8439190    -2.4637400    -0.1025570
  N       -0.7967020     2.4883090     0.0943390
  N        3.4069750    -0.0290830     0.0068360
  C       -0.8642630     0.0144850    -0.0118450
  C       -0.0860356    -1.0894101    -0.0183343
  C       -0.1092970     1.1902470     0.0051550
  C        1.9306090    -0.0137700    -0.0002960
  C        1.2541590    -1.2264030    -0.0035910
  C        1.2788880     1.2129500     0.0017720
  C       -2.3665400     0.0542110    -0.0958220
  H        1.7835260    -2.1724740     0.0038120
  H        1.8267950     2.1485240     0.0024160
  H       -3.8857970    -0.4493820     0.8874840
units angstrom
no_reorient  #important for SAPT in psi4, default
symmetry c1  #important for SAPT in psi4, default
}

set PROPERTIES_ORIGIN ["COM"]
properties('MP2/aug-cc-pvtz', properties = ['dipole'])
--------------------------------------------------------------------------

    Molecular point group: c1
  Charge       = 0
  Multiplicity = 1
  Basis Set: AUG-CC-PVTZ
    Blend: AUG-CC-PVTZ
  Basis Set: (AUG-CC-PVTZ AUX)
    Blend: AUG-CC-PVTZ-JKFIT

    Orbital Energies [Eh]
    ---------------------

    Doubly Occupied:

       1A    -20.658437     2A    -20.651584     3A    -20.651436
       4A    -20.650676     5A    -20.650618     6A    -20.650091
       7A    -20.649685     8A    -20.597539     9A    -15.902219
      10A    -15.900118    11A    -15.896232    12A    -11.455559
      13A    -11.387116    14A    -11.386619    15A    -11.381966
      16A    -11.370571    17A    -11.353108    18A    -11.351074
      19A     -1.635530    20A     -1.634150    21A     -1.626082
      22A     -1.507135    23A     -1.435520    24A     -1.434706
      25A     -1.430954    26A     -1.406928    27A     -1.300394
      28A     -1.187796    29A     -1.175743    30A     -1.059354
      31A     -1.033433    32A     -1.013839    33A     -0.929724
      34A     -0.883652    35A     -0.873028    36A     -0.836718
      37A     -0.803563    38A     -0.789265    39A     -0.784054
      40A     -0.773808    41A     -0.764416    42A     -0.758781
      43A     -0.757473    44A     -0.753005    45A     -0.745784
      46A     -0.738203    47A     -0.720952    48A     -0.698888
      49A     -0.668073    50A     -0.650300    51A     -0.632862
      52A     -0.617629    53A     -0.553938    54A     -0.548067
      55A     -0.543096    56A     -0.540574    57A     -0.535122
      58A     -0.529068    59A     -0.518724    60A     -0.509894
      61A     -0.494619    62A     -0.489288    63A     -0.487272
      64A     -0.453653    65A     -0.448585

  @DF-RHF Final Energy: -1029.03837159644718

   => Energetics <=

    Nuclear Repulsion Energy =           1346.3647440806485065
    One-Electron Energy =               -4084.2896535021113777
    Two-Electron Energy =                1708.8865378250156937
    Total Energy =                      -1029.0383715964471776
  Basis Set: (AUG-CC-PVTZ AUX)
    Blend: AUG-CC-PVTZ-RI
    Molecular point group: c1

    Geometry (in Angstrom), charge = 0, multiplicity = 1:

       Center              X                  Y                   Z               Mass
    ------------   -----------------  -----------------  -----------------  -----------------
         O           -2.916242808740    -0.484038916660     1.017033904803    15.994914619570
         O           -2.971499808740     0.508893083340    -1.040271095197    15.994914619570
         O           -0.316348808740    -3.436895916660     0.467355904803    15.994914619570
         O           -0.262351808740     3.441020083340    -0.476956095197    15.994914619570
         O           -1.904573808740    -2.487764916660    -0.748878095197    15.994914619570
         O           -1.844086808740     2.514923083340     0.767694904803    15.994914619570
         O            3.956375191260    -1.144766916660    -0.020820095197    15.994914619570
         O            3.978581191260     1.063316083340     0.046174904803    15.994914619570
         N           -0.847299808740    -2.469649916660    -0.099357095197    14.003074004430
         N           -0.800082808740     2.482399083340     0.097538904803    14.003074004430
         N            3.403594191260    -0.034992916660     0.010035904803    14.003074004430
         C           -0.867643808740     0.008575083340    -0.008645095197    12.000000000000
         C           -0.089416408740    -1.095320016660    -0.015134395197    12.000000000000
         C           -0.112677808740     1.184337083340     0.008354904803    12.000000000000
         C            1.927228191260    -0.019679916660     0.002903904803    12.000000000000
         C            1.250778191260    -1.232312916660    -0.000391095197    12.000000000000
         C            1.275507191260     1.207040083340     0.004971904803    12.000000000000
         C           -2.369920808740     0.048301083340    -0.092622095197    12.000000000000
         H            1.780145191260    -2.178383916660     0.007011904803     1.007825032230
         H            1.823414191260     2.142614083340     0.005615904803     1.007825032230
         H           -3.889177808740    -0.455291916660     0.890683904803     1.007825032230

  Basis Set: AUG-CC-PVTZ
    Blend: AUG-CC-PVTZ
  Basis Set: (AUG-CC-PVTZ AUX)
    Blend: AUG-CC-PVTZ-JKFIT
	 Reference Energy          =   -1029.0383715964471776 [Eh]
	 Singles Energy            =      -0.0000000000000000 [Eh]
	 Same-Spin Energy          =      -1.0507359430974601 [Eh]
	 Opposite-Spin Energy      =      -2.9516864813288426 [Eh]
	 Correlation Energy        =      -4.0024224244263031 [Eh]
	 Total Energy              =   -1033.0407940208735909 [Eh]

	 ================> DF-SCS-MP2 Energies <==================
	-----------------------------------------------------------
	 SCS Same-Spin Scale       =       0.3333333333333333 [-]
	 SCS Opposite-Spin Scale   =       1.2000000000000000 [-]
	 SCS Same-Spin Energy      =      -0.3502453143658200 [Eh]
	 SCS Opposite-Spin Energy  =      -3.5420237775946108 [Eh]
	 SCS Correlation Energy    =      -3.8922690919604310 [Eh]
	 SCS Total Energy          =   -1032.9306406884077205 [Eh]
	-----------------------------------------------------------

  Dipole Moment: [D]
     X:    -0.1315      Y:    -0.5537      Z:     1.1920     Total:     1.3209

*** Psi4 exiting successfully. Buy a developer a beer!
