                               Psi4 1.4a3.dev225

  ==> Input File <==

--------------------------------------------------------------------------
#psi4
#
memory 32 gb

molecule  {
0 1
  O       -2.9128620    -0.4781290     1.0138340
  O       -2.9681190     0.5148030    -1.0434710
  O       -0.3129680    -3.4309860     0.4641560
  O       -0.2589710     3.4469300    -0.4801560
  O       -1.9011930    -2.4818550    -0.7520780
  O       -1.8407060     2.5208330     0.7644950
  O        3.9597560    -1.1388570    -0.0240200
  O        3.9819620     1.0692260     0.0429750
  N       -0.8439190    -2.4637400    -0.1025570
  N       -0.7967020     2.4883090     0.0943390
  N        3.4069750    -0.0290830     0.0068360
  C       -0.7357488     0.0842236    -0.0085545
  C       -0.1342560    -1.1768520    -0.0236930
  C       -0.1092970     1.1902470     0.0051550
  C        1.9306090    -0.0137700    -0.0002960
  C        1.2541590    -1.2264030    -0.0035910
  C        1.2788880     1.2129500     0.0017720
  C       -2.3665400     0.0542110    -0.0958220
  H        1.7835260    -2.1724740     0.0038120
  H        1.8267950     2.1485240     0.0024160
  H       -3.8857970    -0.4493820     0.8874840
units angstrom
no_reorient  #important for SAPT in psi4, default
symmetry c1  #important for SAPT in psi4, default
}

set PROPERTIES_ORIGIN ["COM"]
properties('MP2/aug-cc-pvtz', properties = ['dipole'])
--------------------------------------------------------------------------

    Molecular point group: c1
  Charge       = 0
  Multiplicity = 1
  Basis Set: AUG-CC-PVTZ
    Blend: AUG-CC-PVTZ
  Basis Set: (AUG-CC-PVTZ AUX)
    Blend: AUG-CC-PVTZ-JKFIT

    Orbital Energies [Eh]
    ---------------------

    Doubly Occupied:

       1A    -20.658415     2A    -20.653345     3A    -20.653267
       4A    -20.652847     5A    -20.652477     6A    -20.649704
       7A    -20.648795     8A    -20.594345     9A    -15.905842
      10A    -15.902384    11A    -15.900919    12A    -11.456622
      13A    -11.382124    14A    -11.377164    15A    -11.370654
      16A    -11.362965    17A    -11.356485    18A    -11.353367
      19A     -1.637037    20A     -1.635894    21A     -1.633504
      22A     -1.502656    23A     -1.437169    24A     -1.436351
      25A     -1.433516    26A     -1.403418    27A     -1.302735
      28A     -1.192362    29A     -1.177637    30A     -1.049330
      31A     -1.035697    32A     -1.026818    33A     -0.915222
      34A     -0.894130    35A     -0.869782    36A     -0.837333
      37A     -0.810641    38A     -0.793597    39A     -0.789902
      40A     -0.770085    41A     -0.765751    42A     -0.763078
      43A     -0.756858    44A     -0.752814    45A     -0.744229
      46A     -0.740205    47A     -0.718913    48A     -0.685123
      49A     -0.666947    50A     -0.648981    51A     -0.619834
      52A     -0.611371    53A     -0.556299    54A     -0.550824
      55A     -0.544280    56A     -0.541200    57A     -0.536317
      58A     -0.535805    59A     -0.522566    60A     -0.497448
      61A     -0.492934    62A     -0.491593    63A     -0.488198
      64A     -0.460985    65A     -0.442073

  @DF-RHF Final Energy: -1029.02561759930768

   => Energetics <=

    Nuclear Repulsion Energy =           1346.4695360524601710
    One-Electron Energy =               -4084.4879809104977539
    Two-Electron Energy =                1708.9928272587299034
    Total Energy =                      -1029.0256175993076795
  Basis Set: (AUG-CC-PVTZ AUX)
    Blend: AUG-CC-PVTZ-RI
    Molecular point group: c1

    Geometry (in Angstrom), charge = 0, multiplicity = 1:

       Center              X                  Y                   Z               Mass
    ------------   -----------------  -----------------  -----------------  -----------------
         O           -2.919992052091    -0.483212277744     1.017130477454    15.994914619570
         O           -2.975249052091     0.509719722256    -1.040174522546    15.994914619570
         O           -0.320098052091    -3.436069277744     0.467452477454    15.994914619570
         O           -0.266101052091     3.441846722256    -0.476859522546    15.994914619570
         O           -1.908323052091    -2.486938277744    -0.748781522546    15.994914619570
         O           -1.847836052091     2.515749722256     0.767791477454    15.994914619570
         O            3.952625947909    -1.143940277744    -0.020723522546    15.994914619570
         O            3.974831947909     1.064142722256     0.046271477454    15.994914619570
         N           -0.851049052091    -2.468823277744    -0.099260522546    14.003074004430
         N           -0.803832052091     2.483225722256     0.097635477454    14.003074004430
         N            3.399844947909    -0.034166277744     0.010132477454    14.003074004430
         C           -0.742878852091     0.079140322256    -0.005258022546    12.000000000000
         C           -0.141386052091    -1.181935277744    -0.020396522546    12.000000000000
         C           -0.116427052091     1.185163722256     0.008451477454    12.000000000000
         C            1.923478947909    -0.018853277744     0.003000477454    12.000000000000
         C            1.247028947909    -1.231486277744    -0.000294522546    12.000000000000
         C            1.271757947909     1.207866722256     0.005068477454    12.000000000000
         C           -2.373670052091     0.049127722256    -0.092525522546    12.000000000000
         H            1.776395947909    -2.177557277744     0.007108477454     1.007825032230
         H            1.819664947909     2.143440722256     0.005712477454     1.007825032230
         H           -3.892927052091    -0.454465277744     0.890780477454     1.007825032230

  Basis Set: AUG-CC-PVTZ
    Blend: AUG-CC-PVTZ
  Basis Set: (AUG-CC-PVTZ AUX)
    Blend: AUG-CC-PVTZ-JKFIT
	 Reference Energy          =   -1029.0256175993076795 [Eh]
	 Singles Energy            =      -0.0000000000000000 [Eh]
	 Same-Spin Energy          =      -1.0493343572977745 [Eh]
	 Opposite-Spin Energy      =      -2.9497972966738182 [Eh]
	 Correlation Energy        =      -3.9991316539715926 [Eh]
	 Total Energy              =   -1033.0247492532791966 [Eh]

	 ================> DF-SCS-MP2 Energies <==================
	-----------------------------------------------------------
	 SCS Same-Spin Scale       =       0.3333333333333333 [-]
	 SCS Opposite-Spin Scale   =       1.2000000000000000 [-]
	 SCS Same-Spin Energy      =      -0.3497781190992582 [Eh]
	 SCS Opposite-Spin Energy  =      -3.5397567560085816 [Eh]
	 SCS Correlation Energy    =      -3.8895348751078398 [Eh]
	 SCS Total Energy          =   -1032.9151524744154358 [Eh]
	-----------------------------------------------------------

  Dipole Moment: [D]
     X:    -0.3350      Y:    -0.6593      Z:     1.2028     Total:     1.4119

*** Psi4 exiting successfully. Buy a developer a beer!
