                               Psi4 1.4a3.dev225

  ==> Input File <==

--------------------------------------------------------------------------
#psi4
#
memory 32 gb

molecule  {
0 1
  O       -2.9128620    -0.4781290     1.0138340
  O       -2.9681190     0.5148030    -1.0434710
  O       -0.3129680    -3.4309860     0.4641560
  O       -0.2589710     3.4469300    -0.4801560
  O       -1.9011930    -2.4818550    -0.7520780
  O       -1.8407060     2.5208330     0.7644950
  O        3.9597560    -1.1388570    -0.0240200
  O        3.9819620     1.0692260     0.0429750
  N       -0.8439190    -2.4637400    -0.1025570
  N       -0.7967020     2.4883090     0.0943390
  N        3.4069750    -0.0290830     0.0068360
  C       -0.8642630     0.0144850    -0.0118450
  C       -0.1342560    -1.1768520    -0.0236930
  C       -0.1092970     1.1902470     0.0051550
  C        1.9306090    -0.0137700    -0.0002960
  C        1.3028752    -1.1390722    -0.0033537
  C        1.2788880     1.2129500     0.0017720
  C       -2.3665400     0.0542110    -0.0958220
  H        1.7835260    -2.1724740     0.0038120
  H        1.8267950     2.1485240     0.0024160
  H       -3.8857970    -0.4493820     0.8874840
units angstrom
no_reorient  #important for SAPT in psi4, default
symmetry c1  #important for SAPT in psi4, default
}

set PROPERTIES_ORIGIN ["COM"]
properties('MP2/aug-cc-pvtz', properties = ['dipole'])
--------------------------------------------------------------------------

    Molecular point group: c1
  Charge       = 0
  Multiplicity = 1
  Basis Set: AUG-CC-PVTZ
    Blend: AUG-CC-PVTZ
  Basis Set: (AUG-CC-PVTZ AUX)
    Blend: AUG-CC-PVTZ-JKFIT

    Orbital Energies [Eh]
    ---------------------

    Doubly Occupied:

       1A    -20.656866     2A    -20.653777     3A    -20.653138
       4A    -20.652398     5A    -20.651291     6A    -20.649441
       7A    -20.649228     8A    -20.595117     9A    -15.905118
      10A    -15.902108    11A    -15.899487    12A    -11.451283
      13A    -11.389225    14A    -11.383942    15A    -11.374221
      16A    -11.370244    17A    -11.356633    18A    -11.350639
      19A     -1.637108    20A     -1.635986    21A     -1.632973
      22A     -1.505343    23A     -1.437245    24A     -1.435869
      25A     -1.433539    26A     -1.404910    27A     -1.295733
      28A     -1.195219    29A     -1.175043    30A     -1.053310
      31A     -1.038336    32A     -1.029857    33A     -0.925832
      34A     -0.886342    35A     -0.867962    36A     -0.838548
      37A     -0.804144    38A     -0.796461    39A     -0.786740
      40A     -0.774853    41A     -0.766308    42A     -0.762763
      43A     -0.757860    44A     -0.753043    45A     -0.745933
      46A     -0.740946    47A     -0.716914    48A     -0.684888
      49A     -0.667370    50A     -0.639297    51A     -0.624436
      52A     -0.611695    53A     -0.556106    54A     -0.549586
      55A     -0.544837    56A     -0.540767    57A     -0.536921
      58A     -0.534247    59A     -0.522028    60A     -0.508344
      61A     -0.494603    62A     -0.492714    63A     -0.486400
      64A     -0.459382    65A     -0.438872

  @DF-RHF Final Energy: -1029.03566630016803

   => Energetics <=

    Nuclear Repulsion Energy =           1346.7124521631553762
    One-Electron Energy =               -4084.9526899046618382
    Two-Electron Energy =                1709.2045714413384303
    Total Energy =                      -1029.0356663001680317
  Basis Set: (AUG-CC-PVTZ AUX)
    Blend: AUG-CC-PVTZ-RI
    Molecular point group: c1

    Geometry (in Angstrom), charge = 0, multiplicity = 1:

       Center              X                  Y                   Z               Mass
    ------------   -----------------  -----------------  -----------------  -----------------
         O           -2.916265959654    -0.484033728950     1.017273043751    15.994914619570
         O           -2.971522959654     0.508898271050    -1.040031956249    15.994914619570
         O           -0.316371959654    -3.436890728950     0.467595043751    15.994914619570
         O           -0.262374959654     3.441025271050    -0.476716956249    15.994914619570
         O           -1.904596959654    -2.487759728950    -0.748638956249    15.994914619570
         O           -1.844109959654     2.514928271050     0.767934043751    15.994914619570
         O            3.956352040346    -1.144761728950    -0.020580956249    15.994914619570
         O            3.978558040346     1.063321271050     0.046414043751    15.994914619570
         N           -0.847322959654    -2.469644728950    -0.099117956249    14.003074004430
         N           -0.800105959654     2.482404271050     0.097778043751    14.003074004430
         N            3.403571040346    -0.034987728950     0.010275043751    14.003074004430
         C           -0.867666959654     0.008580271050    -0.008405956249    12.000000000000
         C           -0.137659959654    -1.182756728950    -0.020253956249    12.000000000000
         C           -0.112700959654     1.184342271050     0.008594043751    12.000000000000
         C            1.927205040346    -0.019674728950     0.003143043751    12.000000000000
         C            1.299471240346    -1.144976928950     0.000085343751    12.000000000000
         C            1.275484040346     1.207045271050     0.005211043751    12.000000000000
         C           -2.369943959654     0.048306271050    -0.092382956249    12.000000000000
         H            1.780122040346    -2.178378728950     0.007251043751     1.007825032230
         H            1.823391040346     2.142619271050     0.005855043751     1.007825032230
         H           -3.889200959654    -0.455286728950     0.890923043751     1.007825032230

  Basis Set: AUG-CC-PVTZ
    Blend: AUG-CC-PVTZ
  Basis Set: (AUG-CC-PVTZ AUX)
    Blend: AUG-CC-PVTZ-JKFIT
	 Reference Energy          =   -1029.0356663001680317 [Eh]
	 Singles Energy            =      -0.0000000000000000 [Eh]
	 Same-Spin Energy          =      -1.0499142886505721 [Eh]
	 Opposite-Spin Energy      =      -2.9506370362437315 [Eh]
	 Correlation Energy        =      -4.0005513248943032 [Eh]
	 Total Energy              =   -1033.0362176250623634 [Eh]

	 ================> DF-SCS-MP2 Energies <==================
	-----------------------------------------------------------
	 SCS Same-Spin Scale       =       0.3333333333333333 [-]
	 SCS Opposite-Spin Scale   =       1.2000000000000000 [-]
	 SCS Same-Spin Energy      =      -0.3499714295501907 [Eh]
	 SCS Opposite-Spin Energy  =      -3.5407644434924777 [Eh]
	 SCS Correlation Energy    =      -3.8907358730426682 [Eh]
	 SCS Total Energy          =   -1032.9264021732105903 [Eh]
	-----------------------------------------------------------

  Dipole Moment: [D]
     X:    -0.1704      Y:    -0.7108      Z:     1.1794     Total:     1.3876

*** Psi4 exiting successfully. Buy a developer a beer!
