                               Psi4 1.4a3.dev225

  ==> Input File <==

--------------------------------------------------------------------------
#psi4
#
memory 32 gb

molecule  {
0 1
  O       -2.9128620    -0.4781290     1.0138340
  O       -2.9681190     0.5148030    -1.0434710
  O       -0.3129680    -3.4309860     0.4641560
  O       -0.2589710     3.4469300    -0.4801560
  O       -1.9011930    -2.4818550    -0.7520780
  O       -1.8407060     2.5208330     0.7644950
  O        3.9597560    -1.1388570    -0.0240200
  O        3.9819620     1.0692260     0.0429750
  N       -0.8439190    -2.4637400    -0.1025570
  N       -0.7967020     2.4883090     0.0943390
  N        3.4069750    -0.0290830     0.0068360
  C       -0.8642630     0.0144850    -0.0118450
  C       -0.1342560    -1.1768520    -0.0236930
  C       -0.1092970     1.1902470     0.0051550
  C        1.9306090    -0.0137700    -0.0002960
  C        1.2541590    -1.2264030    -0.0035910
  C        1.2788880     1.2129500     0.0017720
  C       -2.3665400     0.0542110    -0.0958220
  H        1.7835260    -2.1724740     0.0038120
  H        1.8267950     2.1485240     0.0024160
  H       -3.8857970    -0.4493820     0.8874840
units angstrom
no_reorient  #important for SAPT in psi4, default
symmetry c1  #important for SAPT in psi4, default
}

set PROPERTIES_ORIGIN ["COM"]
properties('MP2/aug-cc-pvtz', properties = ['dipole'])
--------------------------------------------------------------------------

    Molecular point group: c1
  Charge       = 0
  Multiplicity = 1
  Basis Set: AUG-CC-PVTZ
    Blend: AUG-CC-PVTZ
  Basis Set: (AUG-CC-PVTZ AUX)
    Blend: AUG-CC-PVTZ-JKFIT

    Orbital Energies [Eh]
    ---------------------

    Doubly Occupied:

       1A    -20.657712     2A    -20.652793     3A    -20.652590
       4A    -20.650694     5A    -20.650624     6A    -20.650202
       7A    -20.650050     8A    -20.596064     9A    -15.902846
      10A    -15.902068    11A    -15.900123    12A    -11.452625
      13A    -11.386684    14A    -11.385455    15A    -11.380274
      16A    -11.375984    17A    -11.356006    18A    -11.355699
      19A     -1.636700    20A     -1.634832    21A     -1.633697
      22A     -1.506229    23A     -1.436770    24A     -1.434817
      25A     -1.434255    26A     -1.405773    27A     -1.290533
      28A     -1.184443    29A     -1.181401    30A     -1.056592
      31A     -1.035855    32A     -1.028199    33A     -0.924269
      34A     -0.883873    35A     -0.871170    36A     -0.837242
      37A     -0.802885    38A     -0.790061    39A     -0.788337
      40A     -0.777488    41A     -0.766028    42A     -0.763248
      43A     -0.757364    44A     -0.753642    45A     -0.745828
      46A     -0.741479    47A     -0.716014    48A     -0.691512
      49A     -0.667698    50A     -0.646322    51A     -0.629925
      52A     -0.608465    53A     -0.555420    54A     -0.549941
      55A     -0.544271    56A     -0.540337    57A     -0.536214
      58A     -0.534396    59A     -0.522454    60A     -0.509274
      61A     -0.494004    62A     -0.492312    63A     -0.486961
      64A     -0.447709    65A     -0.446036

  @DF-RHF Final Energy: -1029.04943784612738

   => Energetics <=

    Nuclear Repulsion Energy =           1345.8196625913603839
    One-Electron Energy =               -4083.1766716617817110
    Two-Electron Energy =                1708.3075712242941790
    Total Energy =                      -1029.0494378461273755
  Basis Set: (AUG-CC-PVTZ AUX)
    Blend: AUG-CC-PVTZ-RI
    Molecular point group: c1

    Geometry (in Angstrom), charge = 0, multiplicity = 1:

       Center              X                  Y                   Z               Mass
    ------------   -----------------  -----------------  -----------------  -----------------
         O           -2.913991202587    -0.479955899513     1.017284124251    15.994914619570
         O           -2.969248202587     0.512976100487    -1.040020875749    15.994914619570
         O           -0.314097202587    -3.432812899513     0.467606124251    15.994914619570
         O           -0.260100202587     3.445103100487    -0.476705875749    15.994914619570
         O           -1.902322202587    -2.483681899513    -0.748627875749    15.994914619570
         O           -1.841835202587     2.519006100487     0.767945124251    15.994914619570
         O            3.958626797413    -1.140683899513    -0.020569875749    15.994914619570
         O            3.980832797413     1.067399100487     0.046425124251    15.994914619570
         N           -0.845048202587    -2.465566899513    -0.099106875749    14.003074004430
         N           -0.797831202587     2.486482100487     0.097789124251    14.003074004430
         N            3.405845797413    -0.030909899513     0.010286124251    14.003074004430
         C           -0.865392202587     0.012658100487    -0.008394875749    12.000000000000
         C           -0.135385202587    -1.178678899513    -0.020242875749    12.000000000000
         C           -0.110426202587     1.188420100487     0.008605124251    12.000000000000
         C            1.929479797413    -0.015596899513     0.003154124251    12.000000000000
         C            1.253029797413    -1.228229899513    -0.000140875749    12.000000000000
         C            1.277758797413     1.211123100487     0.005222124251    12.000000000000
         C           -2.367669202587     0.052384100487    -0.092371875749    12.000000000000
         H            1.782396797413    -2.174300899513     0.007262124251     1.007825032230
         H            1.825665797413     2.146697100487     0.005866124251     1.007825032230
         H           -3.886926202587    -0.451208899513     0.890934124251     1.007825032230

  Basis Set: AUG-CC-PVTZ
    Blend: AUG-CC-PVTZ
  Basis Set: (AUG-CC-PVTZ AUX)
    Blend: AUG-CC-PVTZ-JKFIT
	 Reference Energy          =   -1029.0494378461273755 [Eh]
	 Singles Energy            =      -0.0000000000000000 [Eh]
	 Same-Spin Energy          =      -1.0499818285982534 [Eh]
	 Opposite-Spin Energy      =      -2.9503100592722364 [Eh]
	 Correlation Energy        =      -4.0002918878704898 [Eh]
	 Total Energy              =   -1033.0497297339977649 [Eh]

	 ================> DF-SCS-MP2 Energies <==================
	-----------------------------------------------------------
	 SCS Same-Spin Scale       =       0.3333333333333333 [-]
	 SCS Opposite-Spin Scale   =       1.2000000000000000 [-]
	 SCS Same-Spin Energy      =      -0.3499939428660844 [Eh]
	 SCS Opposite-Spin Energy  =      -3.5403720711266837 [Eh]
	 SCS Correlation Energy    =      -3.8903660139927680 [Eh]
	 SCS Total Energy          =   -1032.9398038601200369 [Eh]
	-----------------------------------------------------------

  Dipole Moment: [D]
     X:    -0.1371      Y:    -0.6179      Z:     1.1905     Total:     1.3483

*** Psi4 exiting successfully. Buy a developer a beer!
