                               Psi4 1.4a3.dev225

  ==> Input File <==

--------------------------------------------------------------------------
#psi4
#
memory 32 gb

molecule  {
0 1
  O       -2.9128620    -0.4781290     1.0138340
  O       -2.9681190     0.5148030    -1.0434710
  O       -0.3129680    -3.4309860     0.4641560
  O       -0.2589710     3.4469300    -0.4801560
  O       -1.9011930    -2.4818550    -0.7520780
  O       -1.8407060     2.5208330     0.7644950
  O        3.9597560    -1.1388570    -0.0240200
  O        3.9819620     1.0692260     0.0429750
  N       -0.8439190    -2.4637400    -0.1025570
  N       -0.7967020     2.4883090     0.0943390
  N        3.4069750    -0.0290830     0.0068360
  C       -0.8642630     0.0144850    -0.0118450
  C       -0.1342560    -1.1768520    -0.0236930
  C       -0.1092970     1.1902470     0.0051550
  C        1.9506077    -0.0139774    -0.0001994
  C        1.2541590    -1.2264030    -0.0035910
  C        1.2788880     1.2129500     0.0017720
  C       -2.3665400     0.0542110    -0.0958220
  H        1.7835260    -2.1724740     0.0038120
  H        1.8267950     2.1485240     0.0024160
  H       -3.8857970    -0.4493820     0.8874840
units angstrom
no_reorient  #important for SAPT in psi4, default
symmetry c1  #important for SAPT in psi4, default
}

set PROPERTIES_ORIGIN ["COM"]
properties('MP2/aug-cc-pvtz', properties = ['dipole'])
--------------------------------------------------------------------------

    Molecular point group: c1
  Charge       = 0
  Multiplicity = 1
  Basis Set: AUG-CC-PVTZ
    Blend: AUG-CC-PVTZ
  Basis Set: (AUG-CC-PVTZ AUX)
    Blend: AUG-CC-PVTZ-JKFIT

    Orbital Energies [Eh]
    ---------------------

    Doubly Occupied:

       1A    -20.657914     2A    -20.652735     3A    -20.652543
       4A    -20.650586     5A    -20.650514     6A    -20.650147
       7A    -20.650002     8A    -20.596330     9A    -15.902912
      10A    -15.902580    11A    -15.900187    12A    -11.452886
      13A    -11.386504    14A    -11.385263    15A    -11.380322
      16A    -11.376813    17A    -11.357380    18A    -11.357053
      19A     -1.636823    20A     -1.636486    21A     -1.633682
      22A     -1.506446    23A     -1.436742    24A     -1.435474
      25A     -1.434232    26A     -1.405999    27A     -1.289027
      28A     -1.186024    29A     -1.180946    30A     -1.058238
      31A     -1.038256    32A     -1.026334    33A     -0.924748
      34A     -0.883728    35A     -0.870956    36A     -0.837601
      37A     -0.802607    38A     -0.790520    39A     -0.788537
      40A     -0.777693    41A     -0.766189    42A     -0.763220
      43A     -0.758485    44A     -0.754701    45A     -0.745798
      46A     -0.741541    47A     -0.715541    48A     -0.692113
      49A     -0.667084    50A     -0.642973    51A     -0.630149
      52A     -0.606829    53A     -0.555809    54A     -0.549991
      55A     -0.544375    56A     -0.540298    57A     -0.537771
      58A     -0.534522    59A     -0.522543    60A     -0.509376
      61A     -0.494281    62A     -0.492294    63A     -0.486954
      64A     -0.446750    65A     -0.445517

  @DF-RHF Final Energy: -1029.04917792742913

   => Energetics <=

    Nuclear Repulsion Energy =           1345.6554377013233079
    One-Electron Energy =               -4082.8314898338612693
    Two-Electron Energy =                1708.1268742051086065
    Total Energy =                      -1029.0491779274291275
  Basis Set: (AUG-CC-PVTZ AUX)
    Blend: AUG-CC-PVTZ-RI
    Molecular point group: c1

    Geometry (in Angstrom), charge = 0, multiplicity = 1:

       Center              X                  Y                   Z               Mass
    ------------   -----------------  -----------------  -----------------  -----------------
         O           -2.914925023044    -0.479946215166     1.017279613605    15.994914619570
         O           -2.970182023044     0.512985784834    -1.040025386395    15.994914619570
         O           -0.315031023044    -3.432803215166     0.467601613605    15.994914619570
         O           -0.261034023044     3.445112784834    -0.476710386395    15.994914619570
         O           -1.903256023044    -2.483672215166    -0.748632386395    15.994914619570
         O           -1.842769023044     2.519015784834     0.767940613605    15.994914619570
         O            3.957692976956    -1.140674215166    -0.020574386395    15.994914619570
         O            3.979898976956     1.067408784834     0.046420613605    15.994914619570
         N           -0.845982023044    -2.465557215166    -0.099111386395    14.003074004430
         N           -0.798765023044     2.486491784834     0.097784613605    14.003074004430
         N            3.404911976956    -0.030900215166     0.010281613605    14.003074004430
         C           -0.866326023044     0.012667784834    -0.008399386395    12.000000000000
         C           -0.136319023044    -1.178669215166    -0.020247386395    12.000000000000
         C           -0.111360023044     1.188429784834     0.008600613605    12.000000000000
         C            1.948544676956    -0.015794615166     0.003246213605    12.000000000000
         C            1.252095976956    -1.228220215166    -0.000145386395    12.000000000000
         C            1.276824976956     1.211132784834     0.005217613605    12.000000000000
         C           -2.368603023044     0.052393784834    -0.092376386395    12.000000000000
         H            1.781462976956    -2.174291215166     0.007257613605     1.007825032230
         H            1.824731976956     2.146706784834     0.005861613605     1.007825032230
         H           -3.887860023044    -0.451199215166     0.890929613605     1.007825032230

  Basis Set: AUG-CC-PVTZ
    Blend: AUG-CC-PVTZ
  Basis Set: (AUG-CC-PVTZ AUX)
    Blend: AUG-CC-PVTZ-JKFIT
	 Reference Energy          =   -1029.0491779274291275 [Eh]
	 Singles Energy            =      -0.0000000000000000 [Eh]
	 Same-Spin Energy          =      -1.0499127247673767 [Eh]
	 Opposite-Spin Energy      =      -2.9502087665783487 [Eh]
	 Correlation Energy        =      -4.0001214913457250 [Eh]
	 Total Energy              =   -1033.0492994187748081 [Eh]

	 ================> DF-SCS-MP2 Energies <==================
	-----------------------------------------------------------
	 SCS Same-Spin Scale       =       0.3333333333333333 [-]
	 SCS Opposite-Spin Scale   =       1.2000000000000000 [-]
	 SCS Same-Spin Energy      =      -0.3499709082557922 [Eh]
	 SCS Opposite-Spin Energy  =      -3.5402505198940184 [Eh]
	 SCS Correlation Energy    =      -3.8902214281498106 [Eh]
	 SCS Total Energy          =   -1032.9393993555788711 [Eh]
	-----------------------------------------------------------

  Dipole Moment: [D]
     X:    -0.1314      Y:    -0.6180      Z:     1.1902     Total:     1.3475

*** Psi4 exiting successfully. Buy a developer a beer!
