                               Psi4 1.4a3.dev225

  ==> Input File <==

--------------------------------------------------------------------------
#psi4
#
memory 32 gb

molecule  {
0 1
  O       -2.9128620    -0.4781290     1.0138340
  O       -2.9681190     0.5148030    -1.0434710
  O       -0.3129680    -3.4309860     0.4641560
  O       -0.2589710     3.4469300    -0.4801560
  O       -1.9011930    -2.4818550    -0.7520780
  O       -1.8407060     2.5208330     0.7644950
  O        3.9597560    -1.1388570    -0.0240200
  O        3.9819620     1.0692260     0.0429750
  N       -0.8225169    -2.5027287    -0.0797134
  N       -0.7967020     2.4883090     0.0943390
  N        3.4069750    -0.0290830     0.0068360
  C       -0.8642630     0.0144850    -0.0118450
  C       -0.1342560    -1.1768520    -0.0236930
  C       -0.1092970     1.1902470     0.0051550
  C        1.9306090    -0.0137700    -0.0002960
  C        1.2541590    -1.2264030    -0.0035910
  C        1.2788880     1.2129500     0.0017720
  C       -2.3665400     0.0542110    -0.0958220
  H        1.7835260    -2.1724740     0.0038120
  H        1.8267950     2.1485240     0.0024160
  H       -3.8857970    -0.4493820     0.8874840
units angstrom
no_reorient  #important for SAPT in psi4, default
symmetry c1  #important for SAPT in psi4, default
}

set PROPERTIES_ORIGIN ["COM"]
properties('MP2/aug-cc-pvtz', properties = ['dipole'])
--------------------------------------------------------------------------

    Molecular point group: c1
  Charge       = 0
  Multiplicity = 1
  Basis Set: AUG-CC-PVTZ
    Blend: AUG-CC-PVTZ
  Basis Set: (AUG-CC-PVTZ AUX)
    Blend: AUG-CC-PVTZ-JKFIT

    Orbital Energies [Eh]
    ---------------------

    Doubly Occupied:

       1A    -20.670811     2A    -20.655050     3A    -20.650334
       4A    -20.650252     5A    -20.649337     6A    -20.649199
       7A    -20.636600     8A    -20.593408     9A    -15.903589
      10A    -15.901618    11A    -15.899291    12A    -11.450271
      13A    -11.386313    14A    -11.384659    15A    -11.379494
      16A    -11.374919    17A    -11.354546    18A    -11.354282
      19A     -1.654761    20A     -1.634471    21A     -1.632846
      22A     -1.503711    23A     -1.439474    24A     -1.434473
      25A     -1.433382    26A     -1.403161    27A     -1.288619
      28A     -1.182590    29A     -1.177343    30A     -1.055256
      31A     -1.033100    32A     -1.024016    33A     -0.922533
      34A     -0.885121    35A     -0.870925    36A     -0.838404
      37A     -0.802862    38A     -0.792052    39A     -0.788175
      40A     -0.776070    41A     -0.770427    42A     -0.762951
      43A     -0.757691    44A     -0.754008    45A     -0.746483
      46A     -0.740758    47A     -0.718063    48A     -0.690695
      49A     -0.665470    50A     -0.645288    51A     -0.627983
      52A     -0.608376    53A     -0.555950    54A     -0.550566
      55A     -0.542191    56A     -0.539899    57A     -0.534385
      58A     -0.532597    59A     -0.519596    60A     -0.506789
      61A     -0.494392    62A     -0.493724    63A     -0.485850
      64A     -0.446023    65A     -0.445522

  @DF-RHF Final Energy: -1029.04871030149502

   => Energetics <=

    Nuclear Repulsion Energy =           1345.3656825606201437
    One-Electron Energy =               -4082.3227931760002321
    Two-Electron Energy =                1707.9084003138848402
    Total Energy =                      -1029.0487103014950208
  Basis Set: (AUG-CC-PVTZ AUX)
    Blend: AUG-CC-PVTZ-RI
    Molecular point group: c1

    Geometry (in Angstrom), charge = 0, multiplicity = 1:

       Center              X                  Y                   Z               Mass
    ------------   -----------------  -----------------  -----------------  -----------------
         O           -2.915157367969    -0.477831469097     1.016039413895    15.994914619570
         O           -2.970414367969     0.515100530903    -1.041265586105    15.994914619570
         O           -0.315263367969    -3.430688469097     0.466361413895    15.994914619570
         O           -0.261266367969     3.447227530903    -0.477950586105    15.994914619570
         O           -1.903488367969    -2.481557469097    -0.749872586105    15.994914619570
         O           -1.843001367969     2.521130530903     0.766700413895    15.994914619570
         O            3.957460632031    -1.138559469097    -0.021814586105    15.994914619570
         O            3.979666632031     1.069523530903     0.045180413895    15.994914619570
         N           -0.824812267969    -2.502431169097    -0.077507986105    14.003074004430
         N           -0.798997367969     2.488606530903     0.096544413895    14.003074004430
         N            3.404679632031    -0.028785469097     0.009041413895    14.003074004430
         C           -0.866558367969     0.014782530903    -0.009639586105    12.000000000000
         C           -0.136551367969    -1.176554469097    -0.021487586105    12.000000000000
         C           -0.111592367969     1.190544530903     0.007360413895    12.000000000000
         C            1.928313632031    -0.013472469097     0.001909413895    12.000000000000
         C            1.251863632031    -1.226105469097    -0.001385586105    12.000000000000
         C            1.276592632031     1.213247530903     0.003977413895    12.000000000000
         C           -2.368835367969     0.054508530903    -0.093616586105    12.000000000000
         H            1.781230632031    -2.172176469097     0.006017413895     1.007825032230
         H            1.824499632031     2.148821530903     0.004621413895     1.007825032230
         H           -3.888092367969    -0.449084469097     0.889689413895     1.007825032230

  Basis Set: AUG-CC-PVTZ
    Blend: AUG-CC-PVTZ
  Basis Set: (AUG-CC-PVTZ AUX)
    Blend: AUG-CC-PVTZ-JKFIT
	 Reference Energy          =   -1029.0487103014950208 [Eh]
	 Singles Energy            =      -0.0000000000000000 [Eh]
	 Same-Spin Energy          =      -1.0490477013161197 [Eh]
	 Opposite-Spin Energy      =      -2.9481468238398243 [Eh]
	 Correlation Energy        =      -3.9971945251559440 [Eh]
	 Total Energy              =   -1033.0459048266509399 [Eh]

	 ================> DF-SCS-MP2 Energies <==================
	-----------------------------------------------------------
	 SCS Same-Spin Scale       =       0.3333333333333333 [-]
	 SCS Opposite-Spin Scale   =       1.2000000000000000 [-]
	 SCS Same-Spin Energy      =      -0.3496825671053732 [Eh]
	 SCS Opposite-Spin Energy  =      -3.5377761886077890 [Eh]
	 SCS Correlation Energy    =      -3.8874587557131624 [Eh]
	 SCS Total Energy          =   -1032.9361690572081898 [Eh]
	-----------------------------------------------------------

  Dipole Moment: [D]
     X:    -0.0587      Y:    -0.8261      Z:     1.3113     Total:     1.5509

*** Psi4 exiting successfully. Buy a developer a beer!
