                               Psi4 1.4a3.dev225

  ==> Input File <==

--------------------------------------------------------------------------
#psi4
#
memory 32 gb

molecule  {
0 1
  O       -2.9128620    -0.4781290     1.0138340
  O       -2.9681190     0.5148030    -1.0434710
  O       -0.3129680    -3.4309860     0.4641560
  O       -0.2589710     3.4469300    -0.4801560
  O       -1.9011930    -2.4818550    -0.7520780
  O       -1.8407060     2.5208330     0.7644950
  O        3.9597560    -1.1388570    -0.0240200
  O        3.9819620     1.0692260     0.0429750
  N       -0.8439190    -2.4637400    -0.1025570
  N       -0.7967020     2.4883090     0.0943390
  N        3.4069750    -0.0290830     0.0068360
  C       -0.8642630     0.0144850    -0.0118450
  C       -0.1342560    -1.1768520    -0.0236930
  C       -0.2173513     1.0219664     0.0027219
  C        1.9306090    -0.0137700    -0.0002960
  C        1.2541590    -1.2264030    -0.0035910
  C        1.2788880     1.2129500     0.0017720
  C       -2.3665400     0.0542110    -0.0958220
  H        1.7835260    -2.1724740     0.0038120
  H        1.8267950     2.1485240     0.0024160
  H       -3.8857970    -0.4493820     0.8874840
units angstrom
no_reorient  #important for SAPT in psi4, default
symmetry c1  #important for SAPT in psi4, default
}

set PROPERTIES_ORIGIN ["COM"]
properties('MP2/aug-cc-pvtz', properties = ['dipole'])
--------------------------------------------------------------------------

    Molecular point group: c1
  Charge       = 0
  Multiplicity = 1
  Basis Set: AUG-CC-PVTZ
    Blend: AUG-CC-PVTZ
  Basis Set: (AUG-CC-PVTZ AUX)
    Blend: AUG-CC-PVTZ-JKFIT

    Orbital Energies [Eh]
    ---------------------

    Doubly Occupied:

       1A    -20.657925     2A    -20.653281     3A    -20.651482
       4A    -20.651273     5A    -20.650505     6A    -20.649975
       7A    -20.646984     8A    -20.596283     9A    -15.902340
      10A    -15.900929    11A    -15.895236    12A    -11.453361
      13A    -11.385253    14A    -11.383134    15A    -11.381167
      16A    -11.370124    17A    -11.353686    18A    -11.345226
      19A     -1.636113    20A     -1.634477    21A     -1.624521
      22A     -1.506728    23A     -1.436155    24A     -1.434588
      25A     -1.430398    26A     -1.406145    27A     -1.306872
      28A     -1.201053    29A     -1.167187    30A     -1.053433
      31A     -1.033944    32A     -1.007330    33A     -0.938381
      34A     -0.895133    35A     -0.863271    36A     -0.836866
      37A     -0.805640    38A     -0.789726    39A     -0.781916
      40A     -0.773558    41A     -0.764461    42A     -0.758626
      43A     -0.757207    44A     -0.752881    45A     -0.743183
      46A     -0.738449    47A     -0.716758    48A     -0.690628
      49A     -0.666359    50A     -0.655311    51A     -0.630047
      52A     -0.620516    53A     -0.553983    54A     -0.547953
      55A     -0.544012    56A     -0.540235    57A     -0.535471
      58A     -0.525524    59A     -0.517804    60A     -0.506708
      61A     -0.495017    62A     -0.490706    63A     -0.486089
      64A     -0.475738    65A     -0.431794

  @DF-RHF Final Energy: -1028.98708501519104

   => Energetics <=

    Nuclear Repulsion Energy =           1347.7232317476764365
    One-Electron Energy =               -4086.9465128376095890
    Two-Electron Energy =                1710.2361960747421108
    Total Energy =                      -1028.9870850151910417
  Basis Set: (AUG-CC-PVTZ AUX)
    Blend: AUG-CC-PVTZ-RI
    Molecular point group: c1

    Geometry (in Angstrom), charge = 0, multiplicity = 1:

       Center              X                  Y                   Z               Mass
    ------------   -----------------  -----------------  -----------------  -----------------
         O           -2.908945708840    -0.472098195423     1.017397735564    15.994914619570
         O           -2.964202708840     0.520833804577    -1.039907264436    15.994914619570
         O           -0.309051708840    -3.424955195423     0.467719735564    15.994914619570
         O           -0.255054708840     3.452960804577    -0.476592264436    15.994914619570
         O           -1.897276708840    -2.475824195423    -0.748514264436    15.994914619570
         O           -1.836789708840     2.526863804577     0.768058735564    15.994914619570
         O            3.963672291160    -1.132826195423    -0.020456264436    15.994914619570
         O            3.985878291160     1.075256804577     0.046538735564    15.994914619570
         N           -0.840002708840    -2.457709195423    -0.098993264436    14.003074004430
         N           -0.792785708840     2.494339804577     0.097902735564    14.003074004430
         N            3.410891291160    -0.023052195423     0.010399735564    14.003074004430
         C           -0.860346708840     0.020515804577    -0.008281264436    12.000000000000
         C           -0.130339708840    -1.170821195423    -0.020129264436    12.000000000000
         C           -0.213435008840     1.027997204577     0.006285635564    12.000000000000
         C            1.934525291160    -0.007739195423     0.003267735564    12.000000000000
         C            1.258075291160    -1.220372195423    -0.000027264436    12.000000000000
         C            1.282804291160     1.218980804577     0.005335735564    12.000000000000
         C           -2.362623708840     0.060241804577    -0.092258264436    12.000000000000
         H            1.787442291160    -2.166443195423     0.007375735564     1.007825032230
         H            1.830711291160     2.154554804577     0.005979735564     1.007825032230
         H           -3.881880708840    -0.443351195423     0.891047735564     1.007825032230

  Basis Set: AUG-CC-PVTZ
    Blend: AUG-CC-PVTZ
  Basis Set: (AUG-CC-PVTZ AUX)
    Blend: AUG-CC-PVTZ-JKFIT
	 Reference Energy          =   -1028.9870850151910417 [Eh]
	 Singles Energy            =      -0.0000000000000000 [Eh]
	 Same-Spin Energy          =      -1.0494354796527801 [Eh]
	 Opposite-Spin Energy      =      -2.9526606408061529 [Eh]
	 Correlation Energy        =      -4.0020961204589334 [Eh]
	 Total Energy              =   -1032.9891811356499147 [Eh]

	 ================> DF-SCS-MP2 Energies <==================
	-----------------------------------------------------------
	 SCS Same-Spin Scale       =       0.3333333333333333 [-]
	 SCS Opposite-Spin Scale   =       1.2000000000000000 [-]
	 SCS Same-Spin Energy      =      -0.3498118265509267 [Eh]
	 SCS Opposite-Spin Energy  =      -3.5431927689673834 [Eh]
	 SCS Correlation Energy    =      -3.8930045955183101 [Eh]
	 SCS Total Energy          =   -1032.8800896107093195 [Eh]
	-----------------------------------------------------------

  Dipole Moment: [D]
     X:    -0.2810      Y:    -0.7074      Z:     1.1466     Total:     1.3763

*** Psi4 exiting successfully. Buy a developer a beer!
