                               Psi4 1.4a3.dev225

  ==> Input File <==

--------------------------------------------------------------------------
#psi4
#
memory 32 gb

molecule  {
0 1
  S        0.0000010    -0.1881120     0.0000010
  O        0.0000160    -0.9194390     1.2797270
  O       -0.0000150    -0.9194810    -1.2797010
  C        1.4546707     0.9468642    -0.0000350
  C       -1.4152530     0.9161080     0.0000010
  C        2.7011840     0.0971020    -0.0000240
  C       -2.7011840     0.0971000     0.0000310
  H        1.3332210     1.5433360    -0.8926410
  H        1.3332340     1.5433780     0.8925450
  H       -1.3332180     1.5433720     0.8925830
  H       -1.3332410     1.5433430    -0.8926030
  H        3.5632600     0.7678990    -0.0000510
  H        2.7479010    -0.5366180     0.8874790
  H        2.7478840    -0.5366650    -0.8874950
  H       -3.5632640     0.7678940     0.0000250
  H       -2.7479010    -0.5366620    -0.8874420
  H       -2.7478840    -0.5366250     0.8875310
units angstrom
no_reorient  #important for SAPT in psi4, default
symmetry c1  #important for SAPT in psi4, default
}

set PROPERTIES_ORIGIN ["COM"]
properties('MP2/aug-cc-pvtz', properties = ['dipole'])
--------------------------------------------------------------------------

    Molecular point group: c1
  Charge       = 0
  Multiplicity = 1
  Basis Set: AUG-CC-PVTZ
    Blend: AUG-CC-PVTZ
  Basis Set: (AUG-CC-PVTZ AUX)
    Blend: AUG-CC-PVTZ-JKFIT

    Orbital Energies [Eh]
    ---------------------

    Doubly Occupied:

       1A    -92.169592     2A    -20.537191     3A    -20.537171
       4A    -11.280659     5A    -11.279608     6A    -11.238885
       7A    -11.237957     8A     -9.140117     9A     -6.824449
      10A     -6.823976    11A     -6.823872    12A     -1.426406
      13A     -1.317964    14A     -1.093088    15A     -1.068397
      16A     -0.940227    17A     -0.871191    18A     -0.793207
      19A     -0.693752    20A     -0.674507    21A     -0.649829
      22A     -0.643814    23A     -0.607172    24A     -0.590236
      25A     -0.557405    26A     -0.548718    27A     -0.540557
      28A     -0.532760    29A     -0.524269    30A     -0.485773
      31A     -0.473882    32A     -0.458379    33A     -0.420121

  @DF-RHF Final Energy:  -704.64104909054686

   => Energetics <=

    Nuclear Repulsion Energy =            435.1536387403968433
    One-Electron Energy =               -1831.9791102576202775
    Two-Electron Energy =                 692.1844224266765195
    Total Energy =                       -704.6410490905468578
  Basis Set: (AUG-CC-PVTZ AUX)
    Blend: AUG-CC-PVTZ-RI
    Molecular point group: c1

    Geometry (in Angstrom), charge = 0, multiplicity = 1:

       Center              X                  Y                   Z               Mass
    ------------   -----------------  -----------------  -----------------  -----------------
         S           -0.003875202230    -0.146032173952     0.000000555065    31.972071174400
         O           -0.003860202230    -0.877359173952     1.279726555065    15.994914619570
         O           -0.003891202230    -0.877401173952    -1.279701444935    15.994914619570
         C            1.450794497770     0.988944026048    -0.000035444935    12.000000000000
         C           -1.419129202230     0.958187826048     0.000000555065    12.000000000000
         C            2.697307797770     0.139181826048    -0.000024444935    12.000000000000
         C           -2.705060202230     0.139179826048     0.000030555065    12.000000000000
         H            1.329344797770     1.585415826048    -0.892641444935     1.007825032230
         H            1.329357797770     1.585457826048     0.892544555065     1.007825032230
         H           -1.337094202230     1.585451826048     0.892582555065     1.007825032230
         H           -1.337117202230     1.585422826048    -0.892603444935     1.007825032230
         H            3.559383797770     0.809978826048    -0.000051444935     1.007825032230
         H            2.744024797770    -0.494538173952     0.887478555065     1.007825032230
         H            2.744007797770    -0.494585173952    -0.887495444935     1.007825032230
         H           -3.567140202230     0.809973826048     0.000024555065     1.007825032230
         H           -2.751777202230    -0.494582173952    -0.887442444935     1.007825032230
         H           -2.751760202230    -0.494545173952     0.887530555065     1.007825032230

  Basis Set: AUG-CC-PVTZ
    Blend: AUG-CC-PVTZ
  Basis Set: (AUG-CC-PVTZ AUX)
    Blend: AUG-CC-PVTZ-JKFIT
	 Reference Energy          =    -704.6410490905468578 [Eh]
	 Singles Energy            =      -0.0000000000000000 [Eh]
	 Same-Spin Energy          =      -0.3707639894112491 [Eh]
	 Opposite-Spin Energy      =      -1.1828324552214835 [Eh]
	 Correlation Energy        =      -1.5535964446327326 [Eh]
	 Total Energy              =    -706.1946455351795748 [Eh]

	 ================> DF-SCS-MP2 Energies <==================
	-----------------------------------------------------------
	 SCS Same-Spin Scale       =       0.3333333333333333 [-]
	 SCS Opposite-Spin Scale   =       1.2000000000000000 [-]
	 SCS Same-Spin Energy      =      -0.1235879964704164 [Eh]
	 SCS Opposite-Spin Energy  =      -1.4193989462657801 [Eh]
	 SCS Correlation Energy    =      -1.5429869427361964 [Eh]
	 SCS Total Energy          =    -706.1840360332830642 [Eh]
	-----------------------------------------------------------

  Dipole Moment: [D]
     X:    -0.0320      Y:     4.3489      Z:    -0.0001     Total:     4.3490

*** Psi4 exiting successfully. Buy a developer a beer!
