                               Psi4 1.4a3.dev225

  ==> Input File <==

--------------------------------------------------------------------------
#psi4
#
memory 32 gb

molecule  {
0 1
  S        0.0000010    -0.1881120     0.0000010
  O        0.0000155    -0.8946306     1.2363156
  O       -0.0000150    -0.9194810    -1.2797010
  C        1.4152500     0.9161070    -0.0000340
  C       -1.4152530     0.9161080     0.0000010
  C        2.7011840     0.0971020    -0.0000240
  C       -2.7011840     0.0971000     0.0000310
  H        1.3332210     1.5433360    -0.8926410
  H        1.3332340     1.5433780     0.8925450
  H       -1.3332180     1.5433720     0.8925830
  H       -1.3332410     1.5433430    -0.8926030
  H        3.5632600     0.7678990    -0.0000510
  H        2.7479010    -0.5366180     0.8874790
  H        2.7478840    -0.5366650    -0.8874950
  H       -3.5632640     0.7678940     0.0000250
  H       -2.7479010    -0.5366620    -0.8874420
  H       -2.7478840    -0.5366250     0.8875310
units angstrom
no_reorient  #important for SAPT in psi4, default
symmetry c1  #important for SAPT in psi4, default
}

set PROPERTIES_ORIGIN ["COM"]
properties('MP2/aug-cc-pvtz', properties = ['dipole'])
--------------------------------------------------------------------------

    Molecular point group: c1
  Charge       = 0
  Multiplicity = 1
  Basis Set: AUG-CC-PVTZ
    Blend: AUG-CC-PVTZ
  Basis Set: (AUG-CC-PVTZ AUX)
    Blend: AUG-CC-PVTZ-JKFIT

    Orbital Energies [Eh]
    ---------------------

    Doubly Occupied:

       1A    -92.167145     2A    -20.538430     3A    -20.533395
       4A    -11.276405     5A    -11.276390     6A    -11.238193
       7A    -11.238193     8A     -9.138621     9A     -6.822957
      10A     -6.822927    11A     -6.822406    12A     -1.447172
      13A     -1.328682    14A     -1.092505    15A     -1.065976
      16A     -0.940649    17A     -0.870467    18A     -0.789755
      19A     -0.700423    20A     -0.672979    21A     -0.651887
      22A     -0.645902    23A     -0.611858    24A     -0.589989
      25A     -0.553377    26A     -0.550637    27A     -0.536725
      28A     -0.531409    29A     -0.521701    30A     -0.490533
      31A     -0.480166    32A     -0.461528    33A     -0.425658

  @DF-RHF Final Energy:  -704.64533942551225

   => Energetics <=

    Nuclear Repulsion Energy =            438.5213380020594514
    One-Electron Energy =               -1838.6632720958880327
    Two-Electron Energy =                 695.4965946683164475
    Total Energy =                       -704.6453394255122475
  Basis Set: (AUG-CC-PVTZ AUX)
    Blend: AUG-CC-PVTZ-RI
    Molecular point group: c1

    Geometry (in Angstrom), charge = 0, multiplicity = 1:

       Center              X                  Y                   Z               Mass
    ------------   -----------------  -----------------  -----------------  -----------------
         S            0.000001033539    -0.146259327391     0.005690073083    31.972071174400
         O            0.000015533539    -0.852777927391     1.242004673083    15.994914619570
         O           -0.000014966461    -0.877628327391    -1.274011926917    15.994914619570
         C            1.415250033539     0.957959672609     0.005655073083    12.000000000000
         C           -1.415252966461     0.957960672609     0.005690073083    12.000000000000
         C            2.701184033539     0.138954672609     0.005665073083    12.000000000000
         C           -2.701183966461     0.138952672609     0.005720073083    12.000000000000
         H            1.333221033539     1.585188672609    -0.886951926917     1.007825032230
         H            1.333234033539     1.585230672609     0.898234073083     1.007825032230
         H           -1.333217966461     1.585224672609     0.898272073083     1.007825032230
         H           -1.333240966461     1.585195672609    -0.886913926917     1.007825032230
         H            3.563260033539     0.809751672609     0.005638073083     1.007825032230
         H            2.747901033539    -0.494765327391     0.893168073083     1.007825032230
         H            2.747884033539    -0.494812327391    -0.881805926917     1.007825032230
         H           -3.563263966461     0.809746672609     0.005714073083     1.007825032230
         H           -2.747900966461    -0.494809327391    -0.881752926917     1.007825032230
         H           -2.747883966461    -0.494772327391     0.893220073083     1.007825032230

  Basis Set: AUG-CC-PVTZ
    Blend: AUG-CC-PVTZ
  Basis Set: (AUG-CC-PVTZ AUX)
    Blend: AUG-CC-PVTZ-JKFIT
	 Reference Energy          =    -704.6453394255122475 [Eh]
	 Singles Energy            =      -0.0000000000000000 [Eh]
	 Same-Spin Energy          =      -0.3696867882401381 [Eh]
	 Opposite-Spin Energy      =      -1.1799950428270032 [Eh]
	 Correlation Energy        =      -1.5496818310671414 [Eh]
	 Total Energy              =    -706.1950212565793663 [Eh]

	 ================> DF-SCS-MP2 Energies <==================
	-----------------------------------------------------------
	 SCS Same-Spin Scale       =       0.3333333333333333 [-]
	 SCS Opposite-Spin Scale   =       1.2000000000000000 [-]
	 SCS Same-Spin Energy      =      -0.1232289294133794 [Eh]
	 SCS Opposite-Spin Energy  =      -1.4159940513924039 [Eh]
	 SCS Correlation Energy    =      -1.5392229808057831 [Eh]
	 SCS Total Energy          =    -706.1845624063180367 [Eh]
	-----------------------------------------------------------

  Dipole Moment: [D]
     X:     0.0000      Y:     4.2225      Z:     0.2248     Total:     4.2285

*** Psi4 exiting successfully. Buy a developer a beer!
