                               Psi4 1.3.2 release

  ==> Input File <==

--------------------------------------------------------------------------
#psi4
#
memory 32 gb

molecule  {
0 1
  S        0.0000110     0.1881670    -0.0000010
  O       -0.0000345     0.8743799     1.3044631
  O       -0.0000020     0.9195190    -1.2797030
  C       -1.4151770    -0.9160910    -0.0000330
  C        1.4152210    -0.9161260     0.0000050
  C       -2.7012720    -0.0971660    -0.0000200
  C        2.7012500    -0.0971450     0.0000350
  H       -1.3330610    -1.5433750    -0.8926060
  H       -1.3330690    -1.5434170     0.8925110
  H        1.3330570    -1.5434210     0.8925650
  H        1.3330850    -1.5433980    -0.8925740
  H       -3.5631930    -0.7681330    -0.0000520
  H       -2.7480190     0.5365090     0.8875020
  H       -2.7480000     0.5365670    -0.8875020
  H        3.5632380    -0.7680250     0.0000210
  H        2.7479810     0.5365920    -0.8874510
  H        2.7479710     0.5365460     0.8875530
units angstrom
no_reorient  #important for SAPT in psi4, default
symmetry c1  #important for SAPT in psi4, default
}

set PROPERTIES_ORIGIN ["COM"]
properties('MP2/aug-cc-pvtz', properties = ['dipole'])
--------------------------------------------------------------------------

    Molecular point group: c1
  Charge       = 0
  Multiplicity = 1
  Basis Set: AUG-CC-PVTZ
    Blend: AUG-CC-PVTZ
  Basis Set: (AUG-CC-PVTZ AUX)
    Blend: AUG-CC-PVTZ-JKFIT

    Orbital Energies [Eh]
    ---------------------

    Doubly Occupied:

       1A    -92.171817     2A    -20.540353     3A    -20.537733
       4A    -11.278669     5A    -11.278652     6A    -11.238802
       7A    -11.238801     8A     -9.142435     9A     -6.826845
      10A     -6.826429    11A     -6.826178    12A     -1.428861
      13A     -1.321553    14A     -1.093554    15A     -1.066869
      16A     -0.942191    17A     -0.871220    18A     -0.793126
      19A     -0.697051    20A     -0.673172    21A     -0.646736
      22A     -0.645323    23A     -0.607949    24A     -0.590717
      25A     -0.552413    26A     -0.548892    27A     -0.537289
      28A     -0.531531    29A     -0.522476    30A     -0.488299
      31A     -0.476473    32A     -0.460387    33A     -0.426312

  @DF-RHF Final Energy:  -704.64205551307407

   => Energetics <=

    Nuclear Repulsion Energy =            436.2462916721314627
    One-Electron Energy =               -1834.1184809258832047
    Two-Electron Energy =                 693.2301337406776156
    Total Energy =                       -704.6420555130740695
  Basis Set: (AUG-CC-PVTZ AUX)
    Blend: AUG-CC-PVTZ-RI
    Molecular point group: c1

    Geometry (in Angstrom), charge = 0, multiplicity = 1:

       Center              X                  Y                   Z               Mass
    ------------   -----------------  -----------------  -----------------  -----------------
         S            0.000010821369     0.148967421564    -0.003244313391    31.972071174400
         O           -0.000034678631     0.835180321564     1.301219786609    15.994914619570
         O           -0.000002178631     0.880319421564    -1.282946313391    15.994914619570
         C           -1.415177178631    -0.955290578436    -0.003276313391    12.000000000000
         C            1.415220821369    -0.955325578436    -0.003238313391    12.000000000000
         C           -2.701272178631    -0.136365578436    -0.003263313391    12.000000000000
         C            2.701249821369    -0.136344578436    -0.003208313391    12.000000000000
         H           -1.333061178631    -1.582574578436    -0.895849313391     1.007825032230
         H           -1.333069178631    -1.582616578436     0.889267686609     1.007825032230
         H            1.333056821369    -1.582620578436     0.889321686609     1.007825032230
         H            1.333084821369    -1.582597578436    -0.895817313391     1.007825032230
         H           -3.563193178631    -0.807332578436    -0.003295313391     1.007825032230
         H           -2.748019178631     0.497309421564     0.884258686609     1.007825032230
         H           -2.748000178631     0.497367421564    -0.890745313391     1.007825032230
         H            3.563237821369    -0.807224578436    -0.003222313391     1.007825032230
         H            2.747980821369     0.497392421564    -0.890694313391     1.007825032230
         H            2.747970821369     0.497346421564     0.884309686609     1.007825032230

  Basis Set: AUG-CC-PVTZ
    Blend: AUG-CC-PVTZ
  Basis Set: (AUG-CC-PVTZ AUX)
    Blend: AUG-CC-PVTZ-JKFIT
	 Reference Energy          =    -704.6420555130740695 [Eh]
	 Singles Energy            =      -0.0000000000000000 [Eh]
	 Same-Spin Energy          =      -0.3707974152627176 [Eh]
	 Opposite-Spin Energy      =      -1.1827840344322282 [Eh]
	 Correlation Energy        =      -1.5535814496949458 [Eh]
	 Total Energy              =    -706.1956369627690719 [Eh]

	 ================> DF-SCS-MP2 Energies <==================
	-----------------------------------------------------------
	 SCS Same-Spin Scale       =       0.3333333333333333 [-]
	 SCS Opposite-Spin Scale   =       1.2000000000000000 [-]
	 SCS Same-Spin Energy      =      -0.1235991384209059 [Eh]
	 SCS Opposite-Spin Energy  =      -1.4193408413186739 [Eh]
	 SCS Correlation Energy    =      -1.5429399797395797 [Eh]
	 SCS Total Energy          =    -706.1849954928136412 [Eh]
	-----------------------------------------------------------

  Dipole Moment: [D]
     X:     0.0001      Y:    -4.2642      Z:    -0.0615     Total:     4.2646

*** Psi4 exiting successfully. Buy a developer a beer!
