                               Psi4 1.3.2 release

  ==> Input File <==

--------------------------------------------------------------------------
#psi4
#
memory 32 gb

molecule  {
0 1
  S        0.0190674     0.1633004    -0.0000015
  O       -0.0000360     0.9194870     1.2797200
  O       -0.0000020     0.9195190    -1.2797030
  C       -1.4151770    -0.9160910    -0.0000330
  C        1.4152210    -0.9161260     0.0000050
  C       -2.7012720    -0.0971660    -0.0000200
  C        2.7012500    -0.0971450     0.0000350
  H       -1.3330610    -1.5433750    -0.8926060
  H       -1.3330690    -1.5434170     0.8925110
  H        1.3330570    -1.5434210     0.8925650
  H        1.3330850    -1.5433980    -0.8925740
  H       -3.5631930    -0.7681330    -0.0000520
  H       -2.7480190     0.5365090     0.8875020
  H       -2.7480000     0.5365670    -0.8875020
  H        3.5632380    -0.7680250     0.0000210
  H        2.7479810     0.5365920    -0.8874510
  H        2.7479710     0.5365460     0.8875530
units angstrom
no_reorient  #important for SAPT in psi4, default
symmetry c1  #important for SAPT in psi4, default
}

set PROPERTIES_ORIGIN ["COM"]
properties('MP2/aug-cc-pvtz', properties = ['dipole'])
--------------------------------------------------------------------------

    Molecular point group: c1
  Charge       = 0
  Multiplicity = 1
  Basis Set: AUG-CC-PVTZ
    Blend: AUG-CC-PVTZ
  Basis Set: (AUG-CC-PVTZ AUX)
    Blend: AUG-CC-PVTZ-JKFIT

    Orbital Energies [Eh]
    ---------------------

    Doubly Occupied:

       1A    -92.171693     2A    -20.534910     3A    -20.534890
       4A    -11.282687     5A    -11.280574     6A    -11.241760
       7A    -11.238879     8A     -9.142619     9A     -6.827021
      10A     -6.826560    11A     -6.826232    12A     -1.419994
      13A     -1.309267    14A     -1.100110    15A     -1.069852
      16A     -0.946999    17A     -0.874933    18A     -0.793111
      19A     -0.697123    20A     -0.675892    21A     -0.648753
      22A     -0.642167    23A     -0.601881    24A     -0.592568
      25A     -0.553041    26A     -0.548164    27A     -0.539237
      28A     -0.532199    29A     -0.524074    30A     -0.480789
      31A     -0.474830    32A     -0.452663    33A     -0.430228

  @DF-RHF Final Energy:  -704.64023936532749

   => Energetics <=

    Nuclear Repulsion Energy =            436.0167073469342540
    One-Electron Energy =               -1833.6824899273340179
    Two-Electron Energy =                 693.0255432150722754
    Total Energy =                       -704.6402393653274885
  Basis Set: (AUG-CC-PVTZ AUX)
    Blend: AUG-CC-PVTZ-RI
    Molecular point group: c1

    Geometry (in Angstrom), charge = 0, multiplicity = 1:

       Center              X                  Y                   Z               Mass
    ------------   -----------------  -----------------  -----------------  -----------------
         S            0.014075023465     0.124703512493    -0.000001784310    31.972071174400
         O           -0.005028376535     0.880890112493     1.279719715690    15.994914619570
         O           -0.004994376535     0.880922112493    -1.279703284310    15.994914619570
         C           -1.420169376535    -0.954687887507    -0.000033284310    12.000000000000
         C            1.410228623465    -0.954722887507     0.000004715690    12.000000000000
         C           -2.706264376535    -0.135762887507    -0.000020284310    12.000000000000
         C            2.696257623465    -0.135741887507     0.000034715690    12.000000000000
         H           -1.338053376535    -1.581971887507    -0.892606284310     1.007825032230
         H           -1.338061376535    -1.582013887507     0.892510715690     1.007825032230
         H            1.328064623465    -1.582017887507     0.892564715690     1.007825032230
         H            1.328092623465    -1.581994887507    -0.892574284310     1.007825032230
         H           -3.568185376535    -0.806729887507    -0.000052284310     1.007825032230
         H           -2.753011376535     0.497912112493     0.887501715690     1.007825032230
         H           -2.752992376535     0.497970112493    -0.887502284310     1.007825032230
         H            3.558245623465    -0.806621887507     0.000020715690     1.007825032230
         H            2.742988623465     0.497995112493    -0.887451284310     1.007825032230
         H            2.742978623465     0.497949112493     0.887552715690     1.007825032230

  Basis Set: AUG-CC-PVTZ
    Blend: AUG-CC-PVTZ
  Basis Set: (AUG-CC-PVTZ AUX)
    Blend: AUG-CC-PVTZ-JKFIT
	 Reference Energy          =    -704.6402393653274885 [Eh]
	 Singles Energy            =      -0.0000000000000000 [Eh]
	 Same-Spin Energy          =      -0.3711828462881582 [Eh]
	 Opposite-Spin Energy      =      -1.1832404811312269 [Eh]
	 Correlation Energy        =      -1.5544233274193850 [Eh]
	 Total Energy              =    -706.1946626927468742 [Eh]

	 ================> DF-SCS-MP2 Energies <==================
	-----------------------------------------------------------
	 SCS Same-Spin Scale       =       0.3333333333333333 [-]
	 SCS Opposite-Spin Scale   =       1.2000000000000000 [-]
	 SCS Same-Spin Energy      =      -0.1237276154293861 [Eh]
	 SCS Opposite-Spin Energy  =      -1.4198885773574723 [Eh]
	 SCS Correlation Energy    =      -1.5436161927868584 [Eh]
	 SCS Total Energy          =    -706.1838555581143737 [Eh]
	-----------------------------------------------------------

  Dipole Moment: [D]
     X:     0.1551      Y:    -4.5503      Z:    -0.0001     Total:     4.5530

*** Psi4 exiting successfully. Buy a developer a beer!
