                               Psi4 1.3.2 release

  ==> Input File <==

--------------------------------------------------------------------------
#psi4
#
memory 32 gb

molecule  {
0 1
  S        0.0000110     0.1881670    -0.0000010
  O       -0.0000375     0.9637031     1.2534177
  O       -0.0000020     0.9195190    -1.2797030
  C       -1.4151770    -0.9160910    -0.0000330
  C        1.4152210    -0.9161260     0.0000050
  C       -2.7012720    -0.0971660    -0.0000200
  C        2.7012500    -0.0971450     0.0000350
  H       -1.3330610    -1.5433750    -0.8926060
  H       -1.3330690    -1.5434170     0.8925110
  H        1.3330570    -1.5434210     0.8925650
  H        1.3330850    -1.5433980    -0.8925740
  H       -3.5631930    -0.7681330    -0.0000520
  H       -2.7480190     0.5365090     0.8875020
  H       -2.7480000     0.5365670    -0.8875020
  H        3.5632380    -0.7680250     0.0000210
  H        2.7479810     0.5365920    -0.8874510
  H        2.7479710     0.5365460     0.8875530
units angstrom
no_reorient  #important for SAPT in psi4, default
symmetry c1  #important for SAPT in psi4, default
}

set PROPERTIES_ORIGIN ["COM"]
properties('MP2/aug-cc-pvtz', properties = ['dipole'])
--------------------------------------------------------------------------

    Molecular point group: c1
  Charge       = 0
  Multiplicity = 1
  Basis Set: AUG-CC-PVTZ
    Blend: AUG-CC-PVTZ
  Basis Set: (AUG-CC-PVTZ AUX)
    Blend: AUG-CC-PVTZ-JKFIT

    Orbital Energies [Eh]
    ---------------------

    Doubly Occupied:

       1A    -92.170935     2A    -20.536908     3A    -20.534277
       4A    -11.280968     5A    -11.280950     6A    -11.239398
       7A    -11.239397     8A     -9.141682     9A     -6.826113
      10A     -6.825586    11A     -6.825475    12A     -1.427568
      13A     -1.315701    14A     -1.096222    15A     -1.068042
      16A     -0.943675    17A     -0.872246    18A     -0.792794
      19A     -0.697091    20A     -0.673872    21A     -0.647556
      22A     -0.645553    23A     -0.605111    24A     -0.591262
      25A     -0.553344    26A     -0.548979    27A     -0.538352
      28A     -0.531752    29A     -0.523451    30A     -0.483684
      31A     -0.476792    32A     -0.455702    33A     -0.428021

  @DF-RHF Final Energy:  -704.64302721156685

   => Energetics <=

    Nuclear Repulsion Energy =            436.1025406812758547
    One-Electron Energy =               -1833.8542223302256389
    Two-Electron Energy =                 693.1086544373828247
    Total Energy =                       -704.6430272115668458
  Basis Set: (AUG-CC-PVTZ AUX)
    Blend: AUG-CC-PVTZ-RI
    Molecular point group: c1

    Geometry (in Angstrom), charge = 0, multiplicity = 1:

       Center              X                  Y                   Z               Mass
    ------------   -----------------  -----------------  -----------------  -----------------
         S            0.000011214557     0.137260479636     0.003445835791    31.972071174400
         O           -0.000037285443     0.912796579636     1.256864535791    15.994914619570
         O           -0.000001785443     0.868612479636    -1.276256164209    15.994914619570
         C           -1.415176785443    -0.966997520364     0.003413835791    12.000000000000
         C            1.415221214557    -0.967032520364     0.003451835791    12.000000000000
         C           -2.701271785443    -0.148072520364     0.003426835791    12.000000000000
         C            2.701250214557    -0.148051520364     0.003481835791    12.000000000000
         H           -1.333060785443    -1.594281520364    -0.889159164209     1.007825032230
         H           -1.333068785443    -1.594323520364     0.895957835791     1.007825032230
         H            1.333057214557    -1.594327520364     0.896011835791     1.007825032230
         H            1.333085214557    -1.594304520364    -0.889127164209     1.007825032230
         H           -3.563192785443    -0.819039520364     0.003394835791     1.007825032230
         H           -2.748018785443     0.485602479636     0.890948835791     1.007825032230
         H           -2.747999785443     0.485660479636    -0.884055164209     1.007825032230
         H            3.563238214557    -0.818931520364     0.003467835791     1.007825032230
         H            2.747981214557     0.485685479636    -0.884004164209     1.007825032230
         H            2.747971214557     0.485639479636     0.890999835791     1.007825032230

  Basis Set: AUG-CC-PVTZ
    Blend: AUG-CC-PVTZ
  Basis Set: (AUG-CC-PVTZ AUX)
    Blend: AUG-CC-PVTZ-JKFIT
	 Reference Energy          =    -704.6430272115668458 [Eh]
	 Singles Energy            =      -0.0000000000000000 [Eh]
	 Same-Spin Energy          =      -0.3706120171607591 [Eh]
	 Opposite-Spin Energy      =      -1.1822926079549290 [Eh]
	 Correlation Energy        =      -1.5529046251156879 [Eh]
	 Total Energy              =    -706.1959318366825755 [Eh]

	 ================> DF-SCS-MP2 Energies <==================
	-----------------------------------------------------------
	 SCS Same-Spin Scale       =       0.3333333333333333 [-]
	 SCS Opposite-Spin Scale   =       1.2000000000000000 [-]
	 SCS Same-Spin Energy      =      -0.1235373390535864 [Eh]
	 SCS Opposite-Spin Energy  =      -1.4187511295459148 [Eh]
	 SCS Correlation Energy    =      -1.5422884685995011 [Eh]
	 SCS Total Energy          =    -706.1853156801663545 [Eh]
	-----------------------------------------------------------

  Dipole Moment: [D]
     X:     0.0002      Y:    -4.4839      Z:     0.0650     Total:     4.4844

*** Psi4 exiting successfully. Buy a developer a beer!
