                               Psi4 1.3.2 release

  ==> Input File <==

--------------------------------------------------------------------------
#psi4
#
memory 32 gb

molecule  {
0 1
  S        0.0000110     0.1881670    -0.0000010
  O       -0.0000360     0.9194870     1.2797200
  O       -0.0000020     0.9195190    -1.2797030
  C       -1.3757769    -0.9648077    -0.0000330
  C        1.4152210    -0.9161260     0.0000050
  C       -2.7012720    -0.0971660    -0.0000200
  C        2.7012500    -0.0971450     0.0000350
  H       -1.3330610    -1.5433750    -0.8926060
  H       -1.3330690    -1.5434170     0.8925110
  H        1.3330570    -1.5434210     0.8925650
  H        1.3330850    -1.5433980    -0.8925740
  H       -3.5631930    -0.7681330    -0.0000520
  H       -2.7480190     0.5365090     0.8875020
  H       -2.7480000     0.5365670    -0.8875020
  H        3.5632380    -0.7680250     0.0000210
  H        2.7479810     0.5365920    -0.8874510
  H        2.7479710     0.5365460     0.8875530
units angstrom
no_reorient  #important for SAPT in psi4, default
symmetry c1  #important for SAPT in psi4, default
}

set PROPERTIES_ORIGIN ["COM"]
properties('MP2/aug-cc-pvtz', properties = ['dipole'])
--------------------------------------------------------------------------

    Molecular point group: c1
  Charge       = 0
  Multiplicity = 1
  Basis Set: AUG-CC-PVTZ
    Blend: AUG-CC-PVTZ
  Basis Set: (AUG-CC-PVTZ AUX)
    Blend: AUG-CC-PVTZ-JKFIT

    Orbital Energies [Eh]
    ---------------------

    Doubly Occupied:

       1A    -92.172025     2A    -20.538873     3A    -20.538853
       4A    -11.277690     5A    -11.277431     6A    -11.242630
       7A    -11.237698     8A     -9.142549     9A     -6.827083
      10A     -6.826425    11A     -6.826364    12A     -1.428815
      13A     -1.319615    14A     -1.093202    15A     -1.061717
      16A     -0.940846    17A     -0.873170    18A     -0.795780
      19A     -0.696088    20A     -0.677618    21A     -0.649057
      22A     -0.646613    23A     -0.607211    24A     -0.585158
      25A     -0.551763    26A     -0.548325    27A     -0.538030
      28A     -0.525154    29A     -0.525061    30A     -0.486944
      31A     -0.478878    32A     -0.459968    33A     -0.427003

  @DF-RHF Final Energy:  -704.63967342488195

   => Energetics <=

    Nuclear Repulsion Energy =            435.8280210735690616
    One-Electron Energy =               -1833.2881105699132149
    Two-Electron Energy =                 692.8204160714622049
    Total Energy =                       -704.6396734248819484
  Basis Set: (AUG-CC-PVTZ AUX)
    Blend: AUG-CC-PVTZ-RI
    Molecular point group: c1

    Geometry (in Angstrom), charge = 0, multiplicity = 1:

       Center              X                  Y                   Z               Mass
    ------------   -----------------  -----------------  -----------------  -----------------
         S           -0.003863126711     0.147845792228    -0.000001415300    31.972071174400
         O           -0.003910126711     0.879165792228     1.279719584700    15.994914619570
         O           -0.003876126711     0.879197792228    -1.279703415300    15.994914619570
         C           -1.379651026711    -1.005128907772    -0.000033415300    12.000000000000
         C            1.411346873289    -0.956447207772     0.000004584700    12.000000000000
         C           -2.705146126711    -0.137487207772    -0.000020415300    12.000000000000
         C            2.697375873289    -0.137466207772     0.000034584700    12.000000000000
         H           -1.336935126711    -1.583696207772    -0.892606415300     1.007825032230
         H           -1.336943126711    -1.583738207772     0.892510584700     1.007825032230
         H            1.329182873289    -1.583742207772     0.892564584700     1.007825032230
         H            1.329210873289    -1.583719207772    -0.892574415300     1.007825032230
         H           -3.567067126711    -0.808454207772    -0.000052415300     1.007825032230
         H           -2.751893126711     0.496187792228     0.887501584700     1.007825032230
         H           -2.751874126711     0.496245792228    -0.887502415300     1.007825032230
         H            3.559363873289    -0.808346207772     0.000020584700     1.007825032230
         H            2.744106873289     0.496270792228    -0.887451415300     1.007825032230
         H            2.744096873289     0.496224792228     0.887552584700     1.007825032230

  Basis Set: AUG-CC-PVTZ
    Blend: AUG-CC-PVTZ
  Basis Set: (AUG-CC-PVTZ AUX)
    Blend: AUG-CC-PVTZ-JKFIT
	 Reference Energy          =    -704.6396734248819484 [Eh]
	 Singles Energy            =      -0.0000000000000000 [Eh]
	 Same-Spin Energy          =      -0.3705145868767866 [Eh]
	 Opposite-Spin Energy      =      -1.1826303194330072 [Eh]
	 Correlation Energy        =      -1.5531449063097937 [Eh]
	 Total Energy              =    -706.1928183311916882 [Eh]

	 ================> DF-SCS-MP2 Energies <==================
	-----------------------------------------------------------
	 SCS Same-Spin Scale       =       0.3333333333333333 [-]
	 SCS Opposite-Spin Scale   =       1.2000000000000000 [-]
	 SCS Same-Spin Energy      =      -0.1235048622922622 [Eh]
	 SCS Opposite-Spin Energy  =      -1.4191563833196086 [Eh]
	 SCS Correlation Energy    =      -1.5426612456118707 [Eh]
	 SCS Total Energy          =    -706.1823346704937876 [Eh]
	-----------------------------------------------------------

  Dipole Moment: [D]
     X:    -0.0428      Y:    -4.3480      Z:    -0.0001     Total:     4.3483

*** Psi4 exiting successfully. Buy a developer a beer!
