                               Psi4 1.3.2 release

  ==> Input File <==

--------------------------------------------------------------------------
#psi4
#
memory 32 gb

molecule  {
0 1
  S        0.0098399     0.1751269    -0.0267376
  O       -0.0000360     0.9194870     1.2797200
  O       -0.0000020     0.9195190    -1.2797030
  C       -1.4151770    -0.9160910    -0.0000330
  C        1.4152210    -0.9161260     0.0000050
  C       -2.7012720    -0.0971660    -0.0000200
  C        2.7012500    -0.0971450     0.0000350
  H       -1.3330610    -1.5433750    -0.8926060
  H       -1.3330690    -1.5434170     0.8925110
  H        1.3330570    -1.5434210     0.8925650
  H        1.3330850    -1.5433980    -0.8925740
  H       -3.5631930    -0.7681330    -0.0000520
  H       -2.7480190     0.5365090     0.8875020
  H       -2.7480000     0.5365670    -0.8875020
  H        3.5632380    -0.7680250     0.0000210
  H        2.7479810     0.5365920    -0.8874510
  H        2.7479710     0.5365460     0.8875530
units angstrom
no_reorient  #important for SAPT in psi4, default
symmetry c1  #important for SAPT in psi4, default
}

set PROPERTIES_ORIGIN ["COM"]
properties('MP2/aug-cc-pvtz', properties = ['dipole'])
--------------------------------------------------------------------------

    Molecular point group: c1
  Charge       = 0
  Multiplicity = 1
  Basis Set: AUG-CC-PVTZ
    Blend: AUG-CC-PVTZ
  Basis Set: (AUG-CC-PVTZ AUX)
    Blend: AUG-CC-PVTZ-JKFIT

    Orbital Energies [Eh]
    ---------------------

    Doubly Occupied:

       1A    -92.171346     2A    -20.541200     3A    -20.530903
       4A    -11.281346     5A    -11.280202     6A    -11.240469
       7A    -11.238981     8A     -9.142251     9A     -6.826643
      10A     -6.826249    11A     -6.825890    12A     -1.426781
      13A     -1.311367    14A     -1.097378    15A     -1.068815
      16A     -0.945027    17A     -0.873421    18A     -0.793055
      19A     -0.697430    20A     -0.674735    21A     -0.647906
      22A     -0.644583    23A     -0.604602    24A     -0.591470
      25A     -0.553066    26A     -0.548992    27A     -0.538749
      28A     -0.531806    29A     -0.523611    30A     -0.483371
      31A     -0.475916    32A     -0.453993    33A     -0.428309

  @DF-RHF Final Energy:  -704.64065975658343

   => Energetics <=

    Nuclear Repulsion Energy =            436.0990954450063555
    One-Electron Energy =               -1833.8397863897278057
    Two-Electron Energy =                 693.1000311881379048
    Total Energy =                       -704.6406597565834318
  Basis Set: (AUG-CC-PVTZ AUX)
    Blend: AUG-CC-PVTZ-RI
    Molecular point group: c1

    Geometry (in Angstrom), charge = 0, multiplicity = 1:

       Center              X                  Y                   Z               Mass
    ------------   -----------------  -----------------  -----------------  -----------------
         S            0.007264943346     0.133431706751    -0.019733562478    31.972071174400
         O           -0.002610956654     0.877791806751     1.286724037522    15.994914619570
         O           -0.002576956654     0.877823806751    -1.272698962478    15.994914619570
         C           -1.417751956654    -0.957786193249     0.006971037522    12.000000000000
         C            1.412646043346    -0.957821193249     0.007009037522    12.000000000000
         C           -2.703846956654    -0.138861193249     0.006984037522    12.000000000000
         C            2.698675043346    -0.138840193249     0.007039037522    12.000000000000
         H           -1.335635956654    -1.585070193249    -0.885601962478     1.007825032230
         H           -1.335643956654    -1.585112193249     0.899515037522     1.007825032230
         H            1.330482043346    -1.585116193249     0.899569037522     1.007825032230
         H            1.330510043346    -1.585093193249    -0.885569962478     1.007825032230
         H           -3.565767956654    -0.809828193249     0.006952037522     1.007825032230
         H           -2.750593956654     0.494813806751     0.894506037522     1.007825032230
         H           -2.750574956654     0.494871806751    -0.880497962478     1.007825032230
         H            3.560663043346    -0.809720193249     0.007025037522     1.007825032230
         H            2.745406043346     0.494896806751    -0.880446962478     1.007825032230
         H            2.745396043346     0.494850806751     0.894557037522     1.007825032230

  Basis Set: AUG-CC-PVTZ
    Blend: AUG-CC-PVTZ
  Basis Set: (AUG-CC-PVTZ AUX)
    Blend: AUG-CC-PVTZ-JKFIT
	 Reference Energy          =    -704.6406597565834318 [Eh]
	 Singles Energy            =      -0.0000000000000000 [Eh]
	 Same-Spin Energy          =      -0.3709123588861588 [Eh]
	 Opposite-Spin Energy      =      -1.1828512287836346 [Eh]
	 Correlation Energy        =      -1.5537635876697933 [Eh]
	 Total Energy              =    -706.1944233442532095 [Eh]

	 ================> DF-SCS-MP2 Energies <==================
	-----------------------------------------------------------
	 SCS Same-Spin Scale       =       0.3333333333333333 [-]
	 SCS Opposite-Spin Scale   =       1.2000000000000000 [-]
	 SCS Same-Spin Energy      =      -0.1236374529620529 [Eh]
	 SCS Opposite-Spin Energy  =      -1.4194214745403615 [Eh]
	 SCS Correlation Energy    =      -1.5430589275024145 [Eh]
	 SCS Total Energy          =    -706.1837186840858749 [Eh]
	-----------------------------------------------------------

  Dipole Moment: [D]
     X:     0.0805      Y:    -4.4683      Z:    -0.2243     Total:     4.4747

*** Psi4 exiting successfully. Buy a developer a beer!
