                               Psi4 1.3.2 release

  ==> Input File <==

--------------------------------------------------------------------------
#psi4
#
memory 32 gb

molecule  {
0 1
  S        0.0000110     0.1881670    -0.0000010
  O       -0.0000360     0.9194870     1.2797200
  O       -0.0425891     0.8940240    -1.2932388
  C       -1.4151770    -0.9160910    -0.0000330
  C        1.4152210    -0.9161260     0.0000050
  C       -2.7012720    -0.0971660    -0.0000200
  C        2.7012500    -0.0971450     0.0000350
  H       -1.3330610    -1.5433750    -0.8926060
  H       -1.3330690    -1.5434170     0.8925110
  H        1.3330570    -1.5434210     0.8925650
  H        1.3330850    -1.5433980    -0.8925740
  H       -3.5631930    -0.7681330    -0.0000520
  H       -2.7480190     0.5365090     0.8875020
  H       -2.7480000     0.5365670    -0.8875020
  H        3.5632380    -0.7680250     0.0000210
  H        2.7479810     0.5365920    -0.8874510
  H        2.7479710     0.5365460     0.8875530
units angstrom
no_reorient  #important for SAPT in psi4, default
symmetry c1  #important for SAPT in psi4, default
}

set PROPERTIES_ORIGIN ["COM"]
properties('MP2/aug-cc-pvtz', properties = ['dipole'])
--------------------------------------------------------------------------

    Molecular point group: c1
  Charge       = 0
  Multiplicity = 1
  Basis Set: AUG-CC-PVTZ
    Blend: AUG-CC-PVTZ
  Basis Set: (AUG-CC-PVTZ AUX)
    Blend: AUG-CC-PVTZ-JKFIT

    Orbital Energies [Eh]
    ---------------------

    Doubly Occupied:

       1A    -92.171630     2A    -20.539050     3A    -20.537553
       4A    -11.280946     5A    -11.277382     6A    -11.240239
       7A    -11.237594     8A     -9.142277     9A     -6.826694
      10A     -6.826249    11A     -6.826030    12A     -1.428581
      13A     -1.320312    14A     -1.094235    15A     -1.067009
      16A     -0.942543    17A     -0.871416    18A     -0.793047
      19A     -0.697063    20A     -0.673374    21A     -0.647017
      22A     -0.645224    23A     -0.607362    24A     -0.590873
      25A     -0.552859    26A     -0.548697    27A     -0.537429
      28A     -0.531739    29A     -0.522488    30A     -0.487285
      31A     -0.476562    32A     -0.459457    33A     -0.426629

  @DF-RHF Final Energy:  -704.64227310217325

   => Energetics <=

    Nuclear Repulsion Energy =            436.2190923686559927
    One-Electron Energy =               -1834.0690393434076668
    Two-Electron Energy =                 693.2076738725784253
    Total Energy =                       -704.6422731021732488
  Basis Set: (AUG-CC-PVTZ AUX)
    Blend: AUG-CC-PVTZ-RI
    Molecular point group: c1

    Geometry (in Angstrom), charge = 0, multiplicity = 1:

       Center              X                  Y                   Z               Mass
    ------------   -----------------  -----------------  -----------------  -----------------
         S            0.005592599306     0.146397006310     0.001772623523    31.972071174400
         O            0.005545599306     0.877717006310     1.281493623523    15.994914619570
         O           -0.037007500694     0.852254006310    -1.291465176477    15.994914619570
         C           -1.409595400694    -0.957860993690     0.001740623523    12.000000000000
         C            1.420802599306    -0.957895993690     0.001778623523    12.000000000000
         C           -2.695690400694    -0.138935993690     0.001753623523    12.000000000000
         C            2.706831599306    -0.138914993690     0.001808623523    12.000000000000
         H           -1.327479400694    -1.585144993690    -0.890832376477     1.007825032230
         H           -1.327487400694    -1.585186993690     0.894284623523     1.007825032230
         H            1.338638599306    -1.585190993690     0.894338623523     1.007825032230
         H            1.338666599306    -1.585167993690    -0.890800376477     1.007825032230
         H           -3.557611400694    -0.809902993690     0.001721623523     1.007825032230
         H           -2.742437400694     0.494739006310     0.889275623523     1.007825032230
         H           -2.742418400694     0.494797006310    -0.885728376477     1.007825032230
         H            3.568819599306    -0.809794993690     0.001794623523     1.007825032230
         H            2.753562599306     0.494822006310    -0.885677376477     1.007825032230
         H            2.753552599306     0.494776006310     0.889326623523     1.007825032230

  Basis Set: AUG-CC-PVTZ
    Blend: AUG-CC-PVTZ
  Basis Set: (AUG-CC-PVTZ AUX)
    Blend: AUG-CC-PVTZ-JKFIT
	 Reference Energy          =    -704.6422731021732488 [Eh]
	 Singles Energy            =      -0.0000000000000000 [Eh]
	 Same-Spin Energy          =      -0.3707588362213092 [Eh]
	 Opposite-Spin Energy      =      -1.1826773348013120 [Eh]
	 Correlation Energy        =      -1.5534361710226212 [Eh]
	 Total Energy              =    -706.1957092731959165 [Eh]

	 ================> DF-SCS-MP2 Energies <==================
	-----------------------------------------------------------
	 SCS Same-Spin Scale       =       0.3333333333333333 [-]
	 SCS Opposite-Spin Scale   =       1.2000000000000000 [-]
	 SCS Same-Spin Energy      =      -0.1235862787404364 [Eh]
	 SCS Opposite-Spin Energy  =      -1.4192128017615744 [Eh]
	 SCS Correlation Energy    =      -1.5427990805020109 [Eh]
	 SCS Total Energy          =    -706.1850721826752988 [Eh]
	-----------------------------------------------------------

  Dipole Moment: [D]
     X:     0.1386      Y:    -4.3119      Z:     0.0335     Total:     4.3143

*** Psi4 exiting successfully. Buy a developer a beer!
