                               Psi4 1.3.2 release

  ==> Input File <==

--------------------------------------------------------------------------
#psi4
#
memory 32 gb

molecule  {
0 1
  S        0.0000110     0.1881670    -0.0000010
  O       -0.0000424     1.0187200     1.4533657
  O       -0.0000020     0.9195190    -1.2797030
  C       -1.4151770    -0.9160910    -0.0000330
  C        1.4152210    -0.9161260     0.0000050
  C       -2.7012720    -0.0971660    -0.0000200
  C        2.7012500    -0.0971450     0.0000350
  H       -1.3330610    -1.5433750    -0.8926060
  H       -1.3330690    -1.5434170     0.8925110
  H        1.3330570    -1.5434210     0.8925650
  H        1.3330850    -1.5433980    -0.8925740
  H       -3.5631930    -0.7681330    -0.0000520
  H       -2.7480190     0.5365090     0.8875020
  H       -2.7480000     0.5365670    -0.8875020
  H        3.5632380    -0.7680250     0.0000210
  H        2.7479810     0.5365920    -0.8874510
  H        2.7479710     0.5365460     0.8875530
units angstrom
no_reorient  #important for SAPT in psi4, default
symmetry c1  #important for SAPT in psi4, default
}

set PROPERTIES_ORIGIN ["COM"]
properties('MP2/aug-cc-pvtz', properties = ['dipole'])
--------------------------------------------------------------------------

    Molecular point group: c1
  Charge       = 0
  Multiplicity = 1
  Basis Set: AUG-CC-PVTZ
    Blend: AUG-CC-PVTZ
  Basis Set: (AUG-CC-PVTZ AUX)
    Blend: AUG-CC-PVTZ-JKFIT

    Orbital Energies [Eh]
    ---------------------

    Doubly Occupied:

       1A    -92.174984     2A    -20.548793     3A    -20.537413
       4A    -11.290227     5A    -11.290210     6A    -11.242141
       7A    -11.242139     8A     -9.146914     9A     -6.830919
      10A     -6.830512    11A     -6.829573    12A     -1.401936
      13A     -1.253016    14A     -1.102979    15A     -1.072393
      16A     -0.951040    17A     -0.875974    18A     -0.804686
      19A     -0.691744    20A     -0.678251    21A     -0.650970
      22A     -0.632927    23A     -0.597669    24A     -0.586151
      25A     -0.552509    26A     -0.548993    27A     -0.541422
      28A     -0.531142    29A     -0.527083    30A     -0.470515
      31A     -0.459259    32A     -0.440658    33A     -0.429232

  @DF-RHF Final Energy:  -704.59969943687770

   => Energetics <=

    Nuclear Repulsion Energy =            427.8302028641498964
    One-Electron Energy =               -1817.3310613906890012
    Two-Electron Energy =                 684.9011590896614052
    Total Energy =                       -704.5996994368776996
  Basis Set: (AUG-CC-PVTZ AUX)
    Blend: AUG-CC-PVTZ-RI
    Molecular point group: c1

    Geometry (in Angstrom), charge = 0, multiplicity = 1:

       Center              X                  Y                   Z               Mass
    ------------   -----------------  -----------------  -----------------  -----------------
         S            0.000011856765     0.130049814844    -0.022759893791    31.972071174400
         O           -0.000041543235     0.960602814844     1.430606806209    15.994914619570
         O           -0.000001143235     0.861401814844    -1.302461893791    15.994914619570
         C           -1.415176143235    -0.974208185156    -0.022791893791    12.000000000000
         C            1.415221856765    -0.974243185156    -0.022753893791    12.000000000000
         C           -2.701271143235    -0.155283185156    -0.022778893791    12.000000000000
         C            2.701250856765    -0.155262185156    -0.022723893791    12.000000000000
         H           -1.333060143235    -1.601492185156    -0.915364893791     1.007825032230
         H           -1.333068143235    -1.601534185156     0.869752106209     1.007825032230
         H            1.333057856765    -1.601538185156     0.869806106209     1.007825032230
         H            1.333085856765    -1.601515185156    -0.915332893791     1.007825032230
         H           -3.563192143235    -0.826250185156    -0.022810893791     1.007825032230
         H           -2.748018143235     0.478391814844     0.864743106209     1.007825032230
         H           -2.747999143235     0.478449814844    -0.910260893791     1.007825032230
         H            3.563238856765    -0.826142185156    -0.022737893791     1.007825032230
         H            2.747981856765     0.478474814844    -0.910209893791     1.007825032230
         H            2.747971856765     0.478428814844     0.864794106209     1.007825032230

  Basis Set: AUG-CC-PVTZ
    Blend: AUG-CC-PVTZ
  Basis Set: (AUG-CC-PVTZ AUX)
    Blend: AUG-CC-PVTZ-JKFIT
	 Reference Energy          =    -704.5996994368776996 [Eh]
	 Singles Energy            =      -0.0000000000000000 [Eh]
	 Same-Spin Energy          =      -0.3725766687134567 [Eh]
	 Opposite-Spin Energy      =      -1.1897283093612450 [Eh]
	 Correlation Energy        =      -1.5623049780747018 [Eh]
	 Total Energy              =    -706.1620044149524347 [Eh]

	 ================> DF-SCS-MP2 Energies <==================
	-----------------------------------------------------------
	 SCS Same-Spin Scale       =       0.3333333333333333 [-]
	 SCS Opposite-Spin Scale   =       1.2000000000000000 [-]
	 SCS Same-Spin Energy      =      -0.1241922229044856 [Eh]
	 SCS Opposite-Spin Energy  =      -1.4276739712334938 [Eh]
	 SCS Correlation Energy    =      -1.5518661941379794 [Eh]
	 SCS Total Energy          =    -706.1515656310157283 [Eh]
	-----------------------------------------------------------

  Dipole Moment: [D]
     X:     0.0002      Y:    -4.9874      Z:    -0.9285     Total:     5.0731

*** Psi4 exiting successfully. Buy a developer a beer!
