                               Psi4 1.4a3.dev225

  ==> Input File <==

--------------------------------------------------------------------------
#psi4
#
memory 32 gb

molecule  {
0 1
  S        0.0000010    -0.1881120     0.0000010
  O        0.0000158    -0.9095157     1.2623625
  O       -0.0000150    -0.9194810    -1.2797010
  C        1.4152500     0.9161070    -0.0000340
  C       -1.4152530     0.9161080     0.0000010
  C        2.7011840     0.0971020    -0.0000240
  C       -2.7011840     0.0971000     0.0000310
  H        1.3332210     1.5433360    -0.8926410
  H        1.3332340     1.5433780     0.8925450
  H       -1.3332180     1.5433720     0.8925830
  H       -1.3332410     1.5433430    -0.8926030
  H        3.5632600     0.7678990    -0.0000510
  H        2.7479010    -0.5366180     0.8874790
  H        2.7478840    -0.5366650    -0.8874950
  H       -3.5632640     0.7678940     0.0000250
  H       -2.7479010    -0.5366620    -0.8874420
  H       -2.7478840    -0.5366250     0.8875310
units angstrom
no_reorient  #important for SAPT in psi4, default
symmetry c1  #important for SAPT in psi4, default
}

set PROPERTIES_ORIGIN ["COM"]
properties('MP2/aug-cc-pvtz', properties = ['dipole'])
--------------------------------------------------------------------------

    Molecular point group: c1
  Charge       = 0
  Multiplicity = 1
  Basis Set: AUG-CC-PVTZ
    Blend: AUG-CC-PVTZ
  Basis Set: (AUG-CC-PVTZ AUX)
    Blend: AUG-CC-PVTZ-JKFIT

    Orbital Energies [Eh]
    ---------------------

    Doubly Occupied:

       1A    -92.169866     2A    -20.537763     3A    -20.535810
       4A    -11.278486     5A    -11.278471     6A    -11.238737
       7A    -11.238736     8A     -9.140788     9A     -6.825190
      10A     -6.824818    11A     -6.824626    12A     -1.434961
      13A     -1.323239    14A     -1.093964    15A     -1.066885
      16A     -0.942028    17A     -0.871225    18A     -0.791665
      19A     -0.698261    20A     -0.673237    21A     -0.647822
      22A     -0.646668    23A     -0.608648    24A     -0.590621
      25A     -0.553058    26A     -0.549455    27A     -0.537409
      28A     -0.531554    29A     -0.522460    30A     -0.487900
      31A     -0.478041    32A     -0.459710    33A     -0.426646

  @DF-RHF Final Energy:  -704.64450890852265

   => Energetics <=

    Nuclear Repulsion Energy =            437.0962538439073910
    One-Electron Energy =               -1835.8240268733318317
    Two-Electron Energy =                 694.0832641209018448
    Total Energy =                       -704.6445089085226527
  Basis Set: (AUG-CC-PVTZ AUX)
    Blend: AUG-CC-PVTZ-RI
    Molecular point group: c1

    Geometry (in Angstrom), charge = 0, multiplicity = 1:

       Center              X                  Y                   Z               Mass
    ------------   -----------------  -----------------  -----------------  -----------------
         S            0.000000994220    -0.144308445634     0.002276295411    31.972071174400
         O            0.000015794220    -0.865712145634     1.264637795411    15.994914619570
         O           -0.000015005780    -0.875677445634    -1.277425704589    15.994914619570
         C            1.415249994220     0.959910554366     0.002241295411    12.000000000000
         C           -1.415253005780     0.959911554366     0.002276295411    12.000000000000
         C            2.701183994220     0.140905554366     0.002251295411    12.000000000000
         C           -2.701184005780     0.140903554366     0.002306295411    12.000000000000
         H            1.333220994220     1.587139554366    -0.890365704589     1.007825032230
         H            1.333233994220     1.587181554366     0.894820295411     1.007825032230
         H           -1.333218005780     1.587175554366     0.894858295411     1.007825032230
         H           -1.333241005780     1.587146554366    -0.890327704589     1.007825032230
         H            3.563259994220     0.811702554366     0.002224295411     1.007825032230
         H            2.747900994220    -0.492814445634     0.889754295411     1.007825032230
         H            2.747883994220    -0.492861445634    -0.885219704589     1.007825032230
         H           -3.563264005780     0.811697554366     0.002300295411     1.007825032230
         H           -2.747901005780    -0.492858445634    -0.885166704589     1.007825032230
         H           -2.747884005780    -0.492821445634     0.889806295411     1.007825032230

  Basis Set: AUG-CC-PVTZ
    Blend: AUG-CC-PVTZ
  Basis Set: (AUG-CC-PVTZ AUX)
    Blend: AUG-CC-PVTZ-JKFIT
	 Reference Energy          =    -704.6445089085226527 [Eh]
	 Singles Energy            =      -0.0000000000000000 [Eh]
	 Same-Spin Energy          =      -0.3703053078548777 [Eh]
	 Opposite-Spin Energy      =      -1.1815215635637033 [Eh]
	 Correlation Energy        =      -1.5518268714185810 [Eh]
	 Total Energy              =    -706.1963357799412506 [Eh]

	 ================> DF-SCS-MP2 Energies <==================
	-----------------------------------------------------------
	 SCS Same-Spin Scale       =       0.3333333333333333 [-]
	 SCS Opposite-Spin Scale   =       1.2000000000000000 [-]
	 SCS Same-Spin Energy      =      -0.1234351026182926 [Eh]
	 SCS Opposite-Spin Energy  =      -1.4178258762764440 [Eh]
	 SCS Correlation Energy    =      -1.5412609788947365 [Eh]
	 SCS Total Energy          =    -706.1857698874173366 [Eh]
	-----------------------------------------------------------

  Dipole Moment: [D]
     X:     0.0000      Y:     4.3144      Z:     0.0898     Total:     4.3153

*** Psi4 exiting successfully. Buy a developer a beer!
