                               Psi4 1.3.2 release

  ==> Input File <==

--------------------------------------------------------------------------
#psi4
#
memory 32 gb

molecule  {
0 1
  S        0.0000110     0.1881670    -0.0000010
  O       -0.0000389     1.0069744     1.2255884
  O       -0.0000020     0.9195190    -1.2797030
  C       -1.4151770    -0.9160910    -0.0000330
  C        1.4152210    -0.9161260     0.0000050
  C       -2.7012720    -0.0971660    -0.0000200
  C        2.7012500    -0.0971450     0.0000350
  H       -1.3330610    -1.5433750    -0.8926060
  H       -1.3330690    -1.5434170     0.8925110
  H        1.3330570    -1.5434210     0.8925650
  H        1.3330850    -1.5433980    -0.8925740
  H       -3.5631930    -0.7681330    -0.0000520
  H       -2.7480190     0.5365090     0.8875020
  H       -2.7480000     0.5365670    -0.8875020
  H        3.5632380    -0.7680250     0.0000210
  H        2.7479810     0.5365920    -0.8874510
  H        2.7479710     0.5365460     0.8875530
units angstrom
no_reorient  #important for SAPT in psi4, default
symmetry c1  #important for SAPT in psi4, default
}

set PROPERTIES_ORIGIN ["COM"]
properties('MP2/aug-cc-pvtz', properties = ['dipole'])
--------------------------------------------------------------------------

    Molecular point group: c1
  Charge       = 0
  Multiplicity = 1
  Basis Set: AUG-CC-PVTZ
    Blend: AUG-CC-PVTZ
  Basis Set: (AUG-CC-PVTZ AUX)
    Blend: AUG-CC-PVTZ-JKFIT

    Orbital Energies [Eh]
    ---------------------

    Doubly Occupied:

       1A    -92.170421     2A    -20.536381     3A    -20.531110
       4A    -11.282087     5A    -11.282069     6A    -11.239690
       7A    -11.239688     8A     -9.141254     9A     -6.825689
      10A     -6.825126    11A     -6.825051    12A     -1.426962
      13A     -1.312557    14A     -1.097496    15A     -1.068611
      16A     -0.944382    17A     -0.872745    18A     -0.792677
      19A     -0.697084    20A     -0.674206    21A     -0.647975
      22A     -0.645612    23A     -0.603534    24A     -0.591543
      25A     -0.553772    26A     -0.549024    27A     -0.538864
      28A     -0.531898    29A     -0.523930    30A     -0.481242
      31A     -0.476853    32A     -0.452904    33A     -0.428761

  @DF-RHF Final Energy:  -704.64258062615932

   => Energetics <=

    Nuclear Repulsion Energy =            436.0527628038819898
    One-Electron Energy =               -1833.7682950825776516
    Two-Electron Energy =                 693.0729516525364033
    Total Energy =                       -704.6425806261593152
  Basis Set: (AUG-CC-PVTZ AUX)
    Blend: AUG-CC-PVTZ-RI
    Molecular point group: c1

    Geometry (in Angstrom), charge = 0, multiplicity = 1:

       Center              X                  Y                   Z               Mass
    ------------   -----------------  -----------------  -----------------  -----------------
         S            0.000011398045     0.131589225177     0.007093219663    31.972071174400
         O           -0.000038501955     0.950396625177     1.232682619663    15.994914619570
         O           -0.000001601955     0.862941225177    -1.272608780337    15.994914619570
         C           -1.415176601955    -0.972668774823     0.007061219663    12.000000000000
         C            1.415221398045    -0.972703774823     0.007099219663    12.000000000000
         C           -2.701271601955    -0.153743774823     0.007074219663    12.000000000000
         C            2.701250398045    -0.153722774823     0.007129219663    12.000000000000
         H           -1.333060601955    -1.599952774823    -0.885511780337     1.007825032230
         H           -1.333068601955    -1.599994774823     0.899605219663     1.007825032230
         H            1.333057398045    -1.599998774823     0.899659219663     1.007825032230
         H            1.333085398045    -1.599975774823    -0.885479780337     1.007825032230
         H           -3.563192601955    -0.824710774823     0.007042219663     1.007825032230
         H           -2.748018601955     0.479931225177     0.894596219663     1.007825032230
         H           -2.747999601955     0.479989225177    -0.880407780337     1.007825032230
         H            3.563238398045    -0.824602774823     0.007115219663     1.007825032230
         H            2.747981398045     0.480014225177    -0.880356780337     1.007825032230
         H            2.747971398045     0.479968225177     0.894647219663     1.007825032230

  Basis Set: AUG-CC-PVTZ
    Blend: AUG-CC-PVTZ
  Basis Set: (AUG-CC-PVTZ AUX)
    Blend: AUG-CC-PVTZ-JKFIT
	 Reference Energy          =    -704.6425806261593152 [Eh]
	 Singles Energy            =      -0.0000000000000000 [Eh]
	 Same-Spin Energy          =      -0.3705597141262459 [Eh]
	 Opposite-Spin Energy      =      -1.1821346893025018 [Eh]
	 Correlation Energy        =      -1.5526944034287478 [Eh]
	 Total Energy              =    -706.1952750295880605 [Eh]

	 ================> DF-SCS-MP2 Energies <==================
	-----------------------------------------------------------
	 SCS Same-Spin Scale       =       0.3333333333333333 [-]
	 SCS Opposite-Spin Scale   =       1.2000000000000000 [-]
	 SCS Same-Spin Energy      =      -0.1235199047087486 [Eh]
	 SCS Opposite-Spin Energy  =      -1.4185616271630022 [Eh]
	 SCS Correlation Energy    =      -1.5420815318717509 [Eh]
	 SCS Total Energy          =    -706.1846621580310739 [Eh]
	-----------------------------------------------------------

  Dipole Moment: [D]
     X:     0.0002      Y:    -4.5900      Z:     0.1334     Total:     4.5919

*** Psi4 exiting successfully. Buy a developer a beer!
