                               Psi4 1.4a3.dev225

  ==> Input File <==

--------------------------------------------------------------------------
#psi4
#
memory 32 gb

molecule  {
0 1
  S        0.0000010    -0.1881120     0.0000010
  O        0.0000162    -0.9293623     1.2970915
  O       -0.0000150    -0.9194810    -1.2797010
  C        1.4152500     0.9161070    -0.0000340
  C       -1.4152530     0.9161080     0.0000010
  C        2.7011840     0.0971020    -0.0000240
  C       -2.7011840     0.0971000     0.0000310
  H        1.3332210     1.5433360    -0.8926410
  H        1.3332340     1.5433780     0.8925450
  H       -1.3332180     1.5433720     0.8925830
  H       -1.3332410     1.5433430    -0.8926030
  H        3.5632600     0.7678990    -0.0000510
  H        2.7479010    -0.5366180     0.8874790
  H        2.7478840    -0.5366650    -0.8874950
  H       -3.5632640     0.7678940     0.0000250
  H       -2.7479010    -0.5366620    -0.8874420
  H       -2.7478840    -0.5366250     0.8875310
units angstrom
no_reorient  #important for SAPT in psi4, default
symmetry c1  #important for SAPT in psi4, default
}

set PROPERTIES_ORIGIN ["COM"]
properties('MP2/aug-cc-pvtz', properties = ['dipole'])
--------------------------------------------------------------------------

    Molecular point group: c1
  Charge       = 0
  Multiplicity = 1
  Basis Set: AUG-CC-PVTZ
    Blend: AUG-CC-PVTZ
  Basis Set: (AUG-CC-PVTZ AUX)
    Blend: AUG-CC-PVTZ-JKFIT

    Orbital Energies [Eh]
    ---------------------

    Doubly Occupied:

       1A    -92.172719     2A    -20.538851     3A    -20.536998
       4A    -11.281116     5A    -11.281101     6A    -11.239446
       7A    -11.239445     8A     -9.143238     9A     -6.827663
      10A     -6.827175    11A     -6.826870    12A     -1.422511
      13A     -1.313454    14A     -1.095853    15A     -1.068073
      16A     -0.943842    17A     -0.872229    18A     -0.794222
      19A     -0.696095    20A     -0.673910    21A     -0.647638
      22A     -0.643361    23A     -0.604612    24A     -0.591306
      25A     -0.552749    26A     -0.548553    27A     -0.538269
      28A     -0.531650    29A     -0.523442    30A     -0.484145
      31A     -0.475276    32A     -0.456503    33A     -0.427688

  @DF-RHF Final Energy:  -704.64044027370710

   => Energetics <=

    Nuclear Repulsion Energy =            435.2631867618748061
    One-Electron Energy =               -1832.1672442379945096
    Two-Electron Energy =                 692.2636172024126608
    Total Energy =                       -704.6404402737070995
  Basis Set: (AUG-CC-PVTZ AUX)
    Blend: AUG-CC-PVTZ-RI
    Molecular point group: c1

    Geometry (in Angstrom), charge = 0, multiplicity = 1:

       Center              X                  Y                   Z               Mass
    ------------   -----------------  -----------------  -----------------  -----------------
         S            0.000000941795    -0.141707296172    -0.002275381938    31.972071174400
         O            0.000016141795    -0.882957596172     1.294815118062    15.994914619570
         O           -0.000015058205    -0.873076296172    -1.281977381938    15.994914619570
         C            1.415249941795     0.962511703828    -0.002310381938    12.000000000000
         C           -1.415253058205     0.962512703828    -0.002275381938    12.000000000000
         C            2.701183941795     0.143506703828    -0.002300381938    12.000000000000
         C           -2.701184058205     0.143504703828    -0.002245381938    12.000000000000
         H            1.333220941795     1.589740703828    -0.894917381938     1.007825032230
         H            1.333233941795     1.589782703828     0.890268618062     1.007825032230
         H           -1.333218058205     1.589776703828     0.890306618062     1.007825032230
         H           -1.333241058205     1.589747703828    -0.894879381938     1.007825032230
         H            3.563259941795     0.814303703828    -0.002327381938     1.007825032230
         H            2.747900941795    -0.490213296172     0.885202618062     1.007825032230
         H            2.747883941795    -0.490260296172    -0.889771381938     1.007825032230
         H           -3.563264058205     0.814298703828    -0.002251381938     1.007825032230
         H           -2.747901058205    -0.490257296172    -0.889718381938     1.007825032230
         H           -2.747884058205    -0.490220296172     0.885254618062     1.007825032230

  Basis Set: AUG-CC-PVTZ
    Blend: AUG-CC-PVTZ
  Basis Set: (AUG-CC-PVTZ AUX)
    Blend: AUG-CC-PVTZ-JKFIT
	 Reference Energy          =    -704.6404402737070995 [Eh]
	 Singles Energy            =      -0.0000000000000000 [Eh]
	 Same-Spin Energy          =      -0.3710566896039208 [Eh]
	 Opposite-Spin Energy      =      -1.1834696124416555 [Eh]
	 Correlation Energy        =      -1.5545263020455762 [Eh]
	 Total Energy              =    -706.1949665757526873 [Eh]

	 ================> DF-SCS-MP2 Energies <==================
	-----------------------------------------------------------
	 SCS Same-Spin Scale       =       0.3333333333333333 [-]
	 SCS Opposite-Spin Scale   =       1.2000000000000000 [-]
	 SCS Same-Spin Energy      =      -0.1236855632013069 [Eh]
	 SCS Opposite-Spin Energy  =      -1.4201635349299866 [Eh]
	 SCS Correlation Energy    =      -1.5438490981312936 [Eh]
	 SCS Total Energy          =    -706.1842893718384175 [Eh]
	-----------------------------------------------------------

  Dipole Moment: [D]
     X:     0.0000      Y:     4.4356      Z:    -0.0899     Total:     4.4365

*** Psi4 exiting successfully. Buy a developer a beer!
