                               Psi4 1.4a3.dev225

  ==> Input File <==

--------------------------------------------------------------------------
#psi4
#
memory 32 gb

molecule  {
0 1
  S        0.0000010    -0.1881120     0.0000010
  O        0.0000160    -0.9194390     1.2797270
  O       -0.0000150    -0.9194810    -1.2797010
  C        1.3758293     0.8853498    -0.0000330
  C       -1.4152530     0.9161080     0.0000010
  C        2.7011840     0.0971020    -0.0000240
  C       -2.7011840     0.0971000     0.0000310
  H        1.3332210     1.5433360    -0.8926410
  H        1.3332340     1.5433780     0.8925450
  H       -1.3332180     1.5433720     0.8925830
  H       -1.3332410     1.5433430    -0.8926030
  H        3.5632600     0.7678990    -0.0000510
  H        2.7479010    -0.5366180     0.8874790
  H        2.7478840    -0.5366650    -0.8874950
  H       -3.5632640     0.7678940     0.0000250
  H       -2.7479010    -0.5366620    -0.8874420
  H       -2.7478840    -0.5366250     0.8875310
units angstrom
no_reorient  #important for SAPT in psi4, default
symmetry c1  #important for SAPT in psi4, default
}

set PROPERTIES_ORIGIN ["COM"]
properties('MP2/aug-cc-pvtz', properties = ['dipole'])
--------------------------------------------------------------------------

    Molecular point group: c1
  Charge       = 0
  Multiplicity = 1
  Basis Set: AUG-CC-PVTZ
    Blend: AUG-CC-PVTZ
  Basis Set: (AUG-CC-PVTZ AUX)
    Blend: AUG-CC-PVTZ-JKFIT

    Orbital Energies [Eh]
    ---------------------

    Doubly Occupied:

       1A    -92.172420     2A    -20.537247     3A    -20.537227
       4A    -11.279729     5A    -11.279656     6A    -11.240866
       7A    -11.239081     8A     -9.143440     9A     -6.827972
      10A     -6.827447    11A     -6.827201    12A     -1.429929
      13A     -1.319172    14A     -1.097300    15A     -1.066829
      16A     -0.945823    17A     -0.872620    18A     -0.792234
      19A     -0.700342    20A     -0.672966    21A     -0.647020
      22A     -0.644455    23A     -0.605471    24A     -0.591761
      25A     -0.550996    26A     -0.549553    27A     -0.532055
      28A     -0.530801    29A     -0.521160    30A     -0.485870
      31A     -0.479530    32A     -0.457616    33A     -0.432796

  @DF-RHF Final Energy:  -704.64072643570148

   => Energetics <=

    Nuclear Repulsion Energy =            437.2232789216619722
    One-Electron Energy =               -1836.0508392114052185
    Two-Electron Energy =                 694.1868338540418790
    Total Energy =                       -704.6407264357014810
  Basis Set: (AUG-CC-PVTZ AUX)
    Blend: AUG-CC-PVTZ-RI
    Molecular point group: c1

    Geometry (in Angstrom), charge = 0, multiplicity = 1:

       Center              X                  Y                   Z               Mass
    ------------   -----------------  -----------------  -----------------  -----------------
         S            0.003877138244    -0.139983567854     0.000000358408    31.972071174400
         O            0.003892138244    -0.871310567854     1.279726358408    15.994914619570
         O            0.003861138244    -0.871352567854    -1.279701641592    15.994914619570
         C            1.379705438244     0.933478232146    -0.000033641592    12.000000000000
         C           -1.411376861756     0.964236432146     0.000000358408    12.000000000000
         C            2.705060138244     0.145230432146    -0.000024641592    12.000000000000
         C           -2.697307861756     0.145228432146     0.000030358408    12.000000000000
         H            1.337097138244     1.591464432146    -0.892641641592     1.007825032230
         H            1.337110138244     1.591506432146     0.892544358408     1.007825032230
         H           -1.329341861756     1.591500432146     0.892582358408     1.007825032230
         H           -1.329364861756     1.591471432146    -0.892603641592     1.007825032230
         H            3.567136138244     0.816027432146    -0.000051641592     1.007825032230
         H            2.751777138244    -0.488489567854     0.887478358408     1.007825032230
         H            2.751760138244    -0.488536567854    -0.887495641592     1.007825032230
         H           -3.559387861756     0.816022432146     0.000024358408     1.007825032230
         H           -2.744024861756    -0.488533567854    -0.887442641592     1.007825032230
         H           -2.744007861756    -0.488496567854     0.887530358408     1.007825032230

  Basis Set: AUG-CC-PVTZ
    Blend: AUG-CC-PVTZ
  Basis Set: (AUG-CC-PVTZ AUX)
    Blend: AUG-CC-PVTZ-JKFIT
	 Reference Energy          =    -704.6407264357014810 [Eh]
	 Singles Energy            =      -0.0000000000000000 [Eh]
	 Same-Spin Energy          =      -0.3708096215253435 [Eh]
	 Opposite-Spin Energy      =      -1.1825007358110380 [Eh]
	 Correlation Energy        =      -1.5533103573363816 [Eh]
	 Total Energy              =    -706.1940367930378670 [Eh]

	 ================> DF-SCS-MP2 Energies <==================
	-----------------------------------------------------------
	 SCS Same-Spin Scale       =       0.3333333333333333 [-]
	 SCS Opposite-Spin Scale   =       1.2000000000000000 [-]
	 SCS Same-Spin Energy      =      -0.1236032071751145 [Eh]
	 SCS Opposite-Spin Energy  =      -1.4190008829732454 [Eh]
	 SCS Correlation Energy    =      -1.5426040901483600 [Eh]
	 SCS Total Energy          =    -706.1833305258498967 [Eh]
	-----------------------------------------------------------

  Dipole Moment: [D]
     X:     0.0510      Y:     4.4056      Z:    -0.0001     Total:     4.4059

*** Psi4 exiting successfully. Buy a developer a beer!
