                               Psi4 1.3.2 release

  ==> Input File <==

--------------------------------------------------------------------------
#psi4
#
memory 32 gb

molecule  {
0 1
  S        0.0000110     0.1881670    -0.0000010
  O       -0.0000360     0.9194870     1.2797200
  O       -0.0000020     0.9195190    -1.2797030
  C       -1.2574988    -0.7930561    -0.0000294
  C        1.4152210    -0.9161260     0.0000050
  C       -2.7012720    -0.0971660    -0.0000200
  C        2.7012500    -0.0971450     0.0000350
  H       -1.3330610    -1.5433750    -0.8926060
  H       -1.3330690    -1.5434170     0.8925110
  H        1.3330570    -1.5434210     0.8925650
  H        1.3330850    -1.5433980    -0.8925740
  H       -3.5631930    -0.7681330    -0.0000520
  H       -2.7480190     0.5365090     0.8875020
  H       -2.7480000     0.5365670    -0.8875020
  H        3.5632380    -0.7680250     0.0000210
  H        2.7479810     0.5365920    -0.8874510
  H        2.7479710     0.5365460     0.8875530
units angstrom
no_reorient  #important for SAPT in psi4, default
symmetry c1  #important for SAPT in psi4, default
}

set PROPERTIES_ORIGIN ["COM"]
properties('MP2/aug-cc-pvtz', properties = ['dipole'])
--------------------------------------------------------------------------

    Molecular point group: c1
  Charge       = 0
  Multiplicity = 1
  Basis Set: AUG-CC-PVTZ
    Blend: AUG-CC-PVTZ
  Basis Set: (AUG-CC-PVTZ AUX)
    Blend: AUG-CC-PVTZ-JKFIT

    Orbital Energies [Eh]
    ---------------------

    Doubly Occupied:

       1A    -92.169926     2A    -20.534844     3A    -20.534825
       4A    -11.282003     5A    -11.277540     6A    -11.250134
       7A    -11.237596     8A     -9.143459     9A     -6.828556
      10A     -6.827332    11A     -6.826971    12A     -1.435001
      13A     -1.318886    14A     -1.109470    15A     -1.066065
      16A     -0.955279    17A     -0.876458    18A     -0.787160
      19A     -0.708482    20A     -0.672397    21A     -0.650937
      22A     -0.638320    23A     -0.599690    24A     -0.594166
      25A     -0.554140    26A     -0.548480    27A     -0.528607
      28A     -0.515450    29A     -0.511235    30A     -0.485017
      31A     -0.482005    32A     -0.452643    33A     -0.440777

  @DF-RHF Final Energy:  -704.60356171922774

   => Energetics <=

    Nuclear Repulsion Energy =            440.6618721246653081
    One-Electron Energy =               -1842.8431642681860012
    Two-Electron Energy =                 697.5777304242930086
    Total Energy =                       -704.6035617192277414
  Basis Set: (AUG-CC-PVTZ AUX)
    Blend: AUG-CC-PVTZ-RI
    Molecular point group: c1

    Geometry (in Angstrom), charge = 0, multiplicity = 1:

       Center              X                  Y                   Z               Mass
    ------------   -----------------  -----------------  -----------------  -----------------
         S           -0.015493210675     0.130957750157    -0.000001769282    31.972071174400
         O           -0.015540210675     0.862277750157     1.279719230718    15.994914619570
         O           -0.015506210675     0.862309750157    -1.279703769282    15.994914619570
         C           -1.273003010675    -0.850265349843    -0.000030169282    12.000000000000
         C            1.399716789325    -0.973335249843     0.000004230718    12.000000000000
         C           -2.716776210675    -0.154375249843    -0.000020769282    12.000000000000
         C            2.685745789325    -0.154354249843     0.000034230718    12.000000000000
         H           -1.348565210675    -1.600584249843    -0.892606769282     1.007825032230
         H           -1.348573210675    -1.600626249843     0.892510230718     1.007825032230
         H            1.317552789325    -1.600630249843     0.892564230718     1.007825032230
         H            1.317580789325    -1.600607249843    -0.892574769282     1.007825032230
         H           -3.578697210675    -0.825342249843    -0.000052769282     1.007825032230
         H           -2.763523210675     0.479299750157     0.887501230718     1.007825032230
         H           -2.763504210675     0.479357750157    -0.887502769282     1.007825032230
         H            3.547733789325    -0.825234249843     0.000020230718     1.007825032230
         H            2.732476789325     0.479382750157    -0.887451769282     1.007825032230
         H            2.732466789325     0.479336750157     0.887552230718     1.007825032230

  Basis Set: AUG-CC-PVTZ
    Blend: AUG-CC-PVTZ
  Basis Set: (AUG-CC-PVTZ AUX)
    Blend: AUG-CC-PVTZ-JKFIT
	 Reference Energy          =    -704.6035617192277414 [Eh]
	 Singles Energy            =      -0.0000000000000000 [Eh]
	 Same-Spin Energy          =      -0.3725131935102000 [Eh]
	 Opposite-Spin Energy      =      -1.1847186918190196 [Eh]
	 Correlation Energy        =      -1.5572318853292195 [Eh]
	 Total Energy              =    -706.1607936045569431 [Eh]

	 ================> DF-SCS-MP2 Energies <==================
	-----------------------------------------------------------
	 SCS Same-Spin Scale       =       0.3333333333333333 [-]
	 SCS Opposite-Spin Scale   =       1.2000000000000000 [-]
	 SCS Same-Spin Energy      =      -0.1241710645034000 [Eh]
	 SCS Opposite-Spin Energy  =      -1.4216624301828233 [Eh]
	 SCS Correlation Energy    =      -1.5458334946862233 [Eh]
	 SCS Total Energy          =    -706.1493952139139765 [Eh]
	-----------------------------------------------------------

  Dipole Moment: [D]
     X:    -0.3415      Y:    -4.5322      Z:    -0.0001     Total:     4.5451

*** Psi4 exiting successfully. Buy a developer a beer!
