                               Psi4 1.3.2 release

  ==> Input File <==

--------------------------------------------------------------------------
#psi4
#
memory 32 gb

molecule  {
0 1
  S        0.0000110     0.1881670    -0.0000010
  O       -0.0000360     0.9194870     1.2797200
  O       -0.0000020     0.9195190    -1.2797030
  C       -1.3363379    -0.8545736    -0.0000312
  C        1.4152210    -0.9161260     0.0000050
  C       -2.7012720    -0.0971660    -0.0000200
  C        2.7012500    -0.0971450     0.0000350
  H       -1.3330610    -1.5433750    -0.8926060
  H       -1.3330690    -1.5434170     0.8925110
  H        1.3330570    -1.5434210     0.8925650
  H        1.3330850    -1.5433980    -0.8925740
  H       -3.5631930    -0.7681330    -0.0000520
  H       -2.7480190     0.5365090     0.8875020
  H       -2.7480000     0.5365670    -0.8875020
  H        3.5632380    -0.7680250     0.0000210
  H        2.7479810     0.5365920    -0.8874510
  H        2.7479710     0.5365460     0.8875530
units angstrom
no_reorient  #important for SAPT in psi4, default
symmetry c1  #important for SAPT in psi4, default
}

set PROPERTIES_ORIGIN ["COM"]
properties('MP2/aug-cc-pvtz', properties = ['dipole'])
--------------------------------------------------------------------------

    Molecular point group: c1
  Charge       = 0
  Multiplicity = 1
  Basis Set: AUG-CC-PVTZ
    Blend: AUG-CC-PVTZ
  Basis Set: (AUG-CC-PVTZ AUX)
    Blend: AUG-CC-PVTZ-JKFIT

    Orbital Energies [Eh]
    ---------------------

    Doubly Occupied:

       1A    -92.172561     2A    -20.536800     3A    -20.536780
       4A    -11.280067     5A    -11.279335     6A    -11.243297
       7A    -11.238841     8A     -9.144148     9A     -6.828823
      10A     -6.828168    11A     -6.827870    12A     -1.431619
      13A     -1.319379    14A     -1.100376    15A     -1.066412
      16A     -0.948871    17A     -0.873797    18A     -0.791040
      19A     -0.703398    20A     -0.672639    21A     -0.648463
      22A     -0.641987    23A     -0.603861    24A     -0.592530
      25A     -0.550768    26A     -0.550119    27A     -0.530135
      28A     -0.524866    29A     -0.519169    30A     -0.485180
      31A     -0.482229    32A     -0.456553    33A     -0.436839

  @DF-RHF Final Energy:  -704.63399089177540

   => Energetics <=

    Nuclear Repulsion Energy =            438.3153473890510554
    One-Electron Energy =               -1838.2048370581323979
    Two-Electron Energy =                 695.2554987773058883
    Total Energy =                       -704.6339908917753974
  Basis Set: (AUG-CC-PVTZ AUX)
    Blend: AUG-CC-PVTZ-RI
    Molecular point group: c1

    Geometry (in Angstrom), charge = 0, multiplicity = 1:

       Center              X                  Y                   Z               Mass
    ------------   -----------------  -----------------  -----------------  -----------------
         S           -0.007741096356     0.137006661073    -0.000001592291    31.972071174400
         O           -0.007788096356     0.868326661073     1.279719407709    15.994914619570
         O           -0.007754096356     0.868358661073    -1.279703592291    15.994914619570
         C           -1.344089996356    -0.905733938927    -0.000031792291    12.000000000000
         C            1.407468903644    -0.967286338927     0.000004407709    12.000000000000
         C           -2.709024096356    -0.148326338927    -0.000020592291    12.000000000000
         C            2.693497903644    -0.148305338927     0.000034407709    12.000000000000
         H           -1.340813096356    -1.594535338927    -0.892606592291     1.007825032230
         H           -1.340821096356    -1.594577338927     0.892510407709     1.007825032230
         H            1.325304903644    -1.594581338927     0.892564407709     1.007825032230
         H            1.325332903644    -1.594558338927    -0.892574592291     1.007825032230
         H           -3.570945096356    -0.819293338927    -0.000052592291     1.007825032230
         H           -2.755771096356     0.485348661073     0.887501407709     1.007825032230
         H           -2.755752096356     0.485406661073    -0.887502592291     1.007825032230
         H            3.555485903644    -0.819185338927     0.000020407709     1.007825032230
         H            2.740228903644     0.485431661073    -0.887451592291     1.007825032230
         H            2.740218903644     0.485385661073     0.887552407709     1.007825032230

  Basis Set: AUG-CC-PVTZ
    Blend: AUG-CC-PVTZ
  Basis Set: (AUG-CC-PVTZ AUX)
    Blend: AUG-CC-PVTZ-JKFIT
	 Reference Energy          =    -704.6339908917753974 [Eh]
	 Singles Energy            =      -0.0000000000000000 [Eh]
	 Same-Spin Energy          =      -0.3711346455778916 [Eh]
	 Opposite-Spin Energy      =      -1.1828355734448457 [Eh]
	 Correlation Energy        =      -1.5539702190227374 [Eh]
	 Total Energy              =    -706.1879611107981418 [Eh]

	 ================> DF-SCS-MP2 Energies <==================
	-----------------------------------------------------------
	 SCS Same-Spin Scale       =       0.3333333333333333 [-]
	 SCS Opposite-Spin Scale   =       1.2000000000000000 [-]
	 SCS Same-Spin Energy      =      -0.1237115485259638 [Eh]
	 SCS Opposite-Spin Energy  =      -1.4194026881338149 [Eh]
	 SCS Correlation Energy    =      -1.5431142366597788 [Eh]
	 SCS Total Energy          =    -706.1771051284351870 [Eh]
	-----------------------------------------------------------

  Dipole Moment: [D]
     X:    -0.1236      Y:    -4.4417      Z:    -0.0001     Total:     4.4434

*** Psi4 exiting successfully. Buy a developer a beer!
