                               Psi4 1.3.2 release

  ==> Input File <==

--------------------------------------------------------------------------
#psi4
#
memory 32 gb

molecule  {
0 1
  S        0.0000110     0.1881670    -0.0000010
  O       -0.0000360     0.9194870     1.2797200
  O       -0.0000020     0.9195190    -1.2797030
  C       -1.2919981    -1.0579692    -0.0000330
  C        1.4152210    -0.9161260     0.0000050
  C       -2.7012720    -0.0971660    -0.0000200
  C        2.7012500    -0.0971450     0.0000350
  H       -1.3330610    -1.5433750    -0.8926060
  H       -1.3330690    -1.5434170     0.8925110
  H        1.3330570    -1.5434210     0.8925650
  H        1.3330850    -1.5433980    -0.8925740
  H       -3.5631930    -0.7681330    -0.0000520
  H       -2.7480190     0.5365090     0.8875020
  H       -2.7480000     0.5365670    -0.8875020
  H        3.5632380    -0.7680250     0.0000210
  H        2.7479810     0.5365920    -0.8874510
  H        2.7479710     0.5365460     0.8875530
units angstrom
no_reorient  #important for SAPT in psi4, default
symmetry c1  #important for SAPT in psi4, default
}

set PROPERTIES_ORIGIN ["COM"]
properties('MP2/aug-cc-pvtz', properties = ['dipole'])
--------------------------------------------------------------------------

    Molecular point group: c1
  Charge       = 0
  Multiplicity = 1
  Basis Set: AUG-CC-PVTZ
    Blend: AUG-CC-PVTZ
  Basis Set: (AUG-CC-PVTZ AUX)
    Blend: AUG-CC-PVTZ-JKFIT

    Orbital Energies [Eh]
    ---------------------

    Doubly Occupied:

       1A    -92.173969     2A    -20.541894     3A    -20.541874
       4A    -11.275012     5A    -11.273591     6A    -11.249484
       7A    -11.234874     8A     -9.144054     9A     -6.828800
      10A     -6.827960    11A     -6.827817    12A     -1.430169
      13A     -1.321518    14A     -1.091875    15A     -1.052719
      16A     -0.937191    17A     -0.876211    18A     -0.800000
      19A     -0.693978    20A     -0.691301    21A     -0.651651
      22A     -0.649686    23A     -0.608862    24A     -0.578583
      25A     -0.551377    26A     -0.550372    27A     -0.546569
      28A     -0.524217    29A     -0.493710    30A     -0.488530
      31A     -0.483208    32A     -0.462954    33A     -0.424602

  @DF-RHF Final Energy:  -704.61504068808767

   => Energetics <=

    Nuclear Repulsion Energy =            435.2394959690832366
    One-Electron Energy =               -1832.0518518183243941
    Two-Electron Energy =                 692.1973151611534831
    Total Energy =                       -704.6150406880876744
  Basis Set: (AUG-CC-PVTZ AUX)
    Blend: AUG-CC-PVTZ-RI
    Molecular point group: c1

    Geometry (in Angstrom), charge = 0, multiplicity = 1:

       Center              X                  Y                   Z               Mass
    ------------   -----------------  -----------------  -----------------  -----------------
         S           -0.012100953311     0.157006203726    -0.000001415300    31.972071174400
         O           -0.012147953311     0.888326203726     1.279719584700    15.994914619570
         O           -0.012113953311     0.888358203726    -1.279703415300    15.994914619570
         C           -1.304110053311    -1.089129996274    -0.000033415300    12.000000000000
         C            1.403109046689    -0.947286796274     0.000004584700    12.000000000000
         C           -2.713383953311    -0.128326796274    -0.000020415300    12.000000000000
         C            2.689138046689    -0.128305796274     0.000034584700    12.000000000000
         H           -1.345172953311    -1.574535796274    -0.892606415300     1.007825032230
         H           -1.345180953311    -1.574577796274     0.892510584700     1.007825032230
         H            1.320945046689    -1.574581796274     0.892564584700     1.007825032230
         H            1.320973046689    -1.574558796274    -0.892574415300     1.007825032230
         H           -3.575304953311    -0.799293796274    -0.000052415300     1.007825032230
         H           -2.760130953311     0.505348203726     0.887501584700     1.007825032230
         H           -2.760111953311     0.505406203726    -0.887502415300     1.007825032230
         H            3.551126046689    -0.799185796274     0.000020584700     1.007825032230
         H            2.735869046689     0.505431203726    -0.887451415300     1.007825032230
         H            2.735859046689     0.505385203726     0.887552584700     1.007825032230

  Basis Set: AUG-CC-PVTZ
    Blend: AUG-CC-PVTZ
  Basis Set: (AUG-CC-PVTZ AUX)
    Blend: AUG-CC-PVTZ-JKFIT
	 Reference Energy          =    -704.6150406880876744 [Eh]
	 Singles Energy            =      -0.0000000000000000 [Eh]
	 Same-Spin Energy          =      -0.3709331574488974 [Eh]
	 Opposite-Spin Energy      =      -1.1844166320743257 [Eh]
	 Correlation Energy        =      -1.5553497895232231 [Eh]
	 Total Energy              =    -706.1703904776109084 [Eh]

	 ================> DF-SCS-MP2 Energies <==================
	-----------------------------------------------------------
	 SCS Same-Spin Scale       =       0.3333333333333333 [-]
	 SCS Opposite-Spin Scale   =       1.2000000000000000 [-]
	 SCS Same-Spin Energy      =      -0.1236443858162991 [Eh]
	 SCS Opposite-Spin Energy  =      -1.4212999584891908 [Eh]
	 SCS Correlation Energy    =      -1.5449443443054900 [Eh]
	 SCS Total Energy          =    -706.1599850323931378 [Eh]
	-----------------------------------------------------------

  Dipole Moment: [D]
     X:    -0.1521      Y:    -4.2685      Z:    -0.0001     Total:     4.2712

*** Psi4 exiting successfully. Buy a developer a beer!
