                               Psi4 1.3.2 release

  ==> Input File <==

--------------------------------------------------------------------------
#psi4
#
memory 32 gb

molecule  {
0 1
  S       -0.0804655     0.2841956     0.0000008
  O       -0.0000360     0.9194870     1.2797200
  O       -0.0000020     0.9195190    -1.2797030
  C       -1.4151770    -0.9160910    -0.0000330
  C        1.4152210    -0.9161260     0.0000050
  C       -2.7012720    -0.0971660    -0.0000200
  C        2.7012500    -0.0971450     0.0000350
  H       -1.3330610    -1.5433750    -0.8926060
  H       -1.3330690    -1.5434170     0.8925110
  H        1.3330570    -1.5434210     0.8925650
  H        1.3330850    -1.5433980    -0.8925740
  H       -3.5631930    -0.7681330    -0.0000520
  H       -2.7480190     0.5365090     0.8875020
  H       -2.7480000     0.5365670    -0.8875020
  H        3.5632380    -0.7680250     0.0000210
  H        2.7479810     0.5365920    -0.8874510
  H        2.7479710     0.5365460     0.8875530
units angstrom
no_reorient  #important for SAPT in psi4, default
symmetry c1  #important for SAPT in psi4, default
}

set PROPERTIES_ORIGIN ["COM"]
properties('MP2/aug-cc-pvtz', properties = ['dipole'])
--------------------------------------------------------------------------

    Molecular point group: c1
  Charge       = 0
  Multiplicity = 1
  Basis Set: AUG-CC-PVTZ
    Blend: AUG-CC-PVTZ
  Basis Set: (AUG-CC-PVTZ AUX)
    Blend: AUG-CC-PVTZ-JKFIT

    Orbital Energies [Eh]
    ---------------------

    Doubly Occupied:

       1A    -92.170260     2A    -20.547636     3A    -20.547617
       4A    -11.278934     5A    -11.265354     6A    -11.240937
       7A    -11.228242     8A     -9.140898     9A     -6.825327
      10A     -6.825234    11A     -6.824714    12A     -1.458846
      13A     -1.353460    14A     -1.087618    15A     -1.049050
      16A     -0.929234    17A     -0.857157    18A     -0.794338
      19A     -0.698888    20A     -0.671392    21A     -0.658016
      22A     -0.638071    23A     -0.621396    24A     -0.585837
      25A     -0.556268    26A     -0.549776    27A     -0.533667
      28A     -0.529560    29A     -0.514079    30A     -0.505697
      31A     -0.483888    32A     -0.478600    33A     -0.404398

  @DF-RHF Final Energy:  -704.63158392627838

   => Energetics <=

    Nuclear Repulsion Energy =            436.5809164069513031
    One-Electron Energy =               -1834.7162241356534196
    Two-Electron Energy =                 693.5037238024237922
    Total Energy =                       -704.6315839262783811
  Basis Set: (AUG-CC-PVTZ AUX)
    Blend: AUG-CC-PVTZ-RI
    Molecular point group: c1

    Geometry (in Angstrom), charge = 0, multiplicity = 1:

       Center              X                  Y                   Z               Mass
    ------------   -----------------  -----------------  -----------------  -----------------
         S           -0.059382253523     0.213926595442    -0.000000086864    31.972071174400
         O            0.021047246477     0.849217995442     1.279719113136    15.994914619570
         O            0.021081246477     0.849249995442    -1.279703886864    15.994914619570
         C           -1.394093753523    -0.986360004558    -0.000033886864    12.000000000000
         C            1.436304246477    -0.986395004558     0.000004113136    12.000000000000
         C           -2.680188753523    -0.167435004558    -0.000020886864    12.000000000000
         C            2.722333246477    -0.167414004558     0.000034113136    12.000000000000
         H           -1.311977753523    -1.613644004558    -0.892606886864     1.007825032230
         H           -1.311985753523    -1.613686004558     0.892510113136     1.007825032230
         H            1.354140246477    -1.613690004558     0.892564113136     1.007825032230
         H            1.354168246477    -1.613667004558    -0.892574886864     1.007825032230
         H           -3.542109753523    -0.838402004558    -0.000052886864     1.007825032230
         H           -2.726935753523     0.466239995442     0.887501113136     1.007825032230
         H           -2.726916753523     0.466297995442    -0.887502886864     1.007825032230
         H            3.584321246477    -0.838294004558     0.000020113136     1.007825032230
         H            2.769064246477     0.466322995442    -0.887451886864     1.007825032230
         H            2.769054246477     0.466276995442     0.887552113136     1.007825032230

  Basis Set: AUG-CC-PVTZ
    Blend: AUG-CC-PVTZ
  Basis Set: (AUG-CC-PVTZ AUX)
    Blend: AUG-CC-PVTZ-JKFIT
	 Reference Energy          =    -704.6315839262783811 [Eh]
	 Singles Energy            =      -0.0000000000000000 [Eh]
	 Same-Spin Energy          =      -0.3696295258475530 [Eh]
	 Opposite-Spin Energy      =      -1.1814955496924320 [Eh]
	 Correlation Energy        =      -1.5511250755399850 [Eh]
	 Total Energy              =    -706.1827090018183526 [Eh]

	 ================> DF-SCS-MP2 Energies <==================
	-----------------------------------------------------------
	 SCS Same-Spin Scale       =       0.3333333333333333 [-]
	 SCS Opposite-Spin Scale   =       1.2000000000000000 [-]
	 SCS Same-Spin Energy      =      -0.1232098419491843 [Eh]
	 SCS Opposite-Spin Energy  =      -1.4177946596309183 [Eh]
	 SCS Correlation Energy    =      -1.5410045015801026 [Eh]
	 SCS Total Energy          =    -706.1725884278584999 [Eh]
	-----------------------------------------------------------

  Dipole Moment: [D]
     X:    -0.7059      Y:    -3.6703      Z:    -0.0000     Total:     3.7376

*** Psi4 exiting successfully. Buy a developer a beer!
