                               Psi4 1.4a3.dev225

  ==> Input File <==

--------------------------------------------------------------------------
#psi4
#
memory 32 gb

molecule  {
0 1
  S        0.0000010    -0.1881120     0.0000010
  O        0.0000165    -0.9442474     1.3231384
  O       -0.0000150    -0.9194810    -1.2797010
  C        1.4152500     0.9161070    -0.0000340
  C       -1.4152530     0.9161080     0.0000010
  C        2.7011840     0.0971020    -0.0000240
  C       -2.7011840     0.0971000     0.0000310
  H        1.3332210     1.5433360    -0.8926410
  H        1.3332340     1.5433780     0.8925450
  H       -1.3332180     1.5433720     0.8925830
  H       -1.3332410     1.5433430    -0.8926030
  H        3.5632600     0.7678990    -0.0000510
  H        2.7479010    -0.5366180     0.8874790
  H        2.7478840    -0.5366650    -0.8874950
  H       -3.5632640     0.7678940     0.0000250
  H       -2.7479010    -0.5366620    -0.8874420
  H       -2.7478840    -0.5366250     0.8875310
units angstrom
no_reorient  #important for SAPT in psi4, default
symmetry c1  #important for SAPT in psi4, default
}

set PROPERTIES_ORIGIN ["COM"]
properties('MP2/aug-cc-pvtz', properties = ['dipole'])
--------------------------------------------------------------------------

    Molecular point group: c1
  Charge       = 0
  Multiplicity = 1
  Basis Set: AUG-CC-PVTZ
    Blend: AUG-CC-PVTZ
  Basis Set: (AUG-CC-PVTZ AUX)
    Blend: AUG-CC-PVTZ-JKFIT

    Orbital Energies [Eh]
    ---------------------

    Doubly Occupied:

       1A    -92.174283     2A    -20.540971     3A    -20.536561
       4A    -11.282965     5A    -11.282951     6A    -11.239960
       7A    -11.239960     8A     -9.144715     9A     -6.829119
      10A     -6.828637    11A     -6.828140    12A     -1.415812
      13A     -1.304481    14A     -1.097213    15A     -1.068930
      16A     -0.945171    17A     -0.872962    18A     -0.796121
      19A     -0.694892    20A     -0.674566    21A     -0.648322
      22A     -0.640677    23A     -0.601917    24A     -0.591593
      25A     -0.552604    26A     -0.548263    27A     -0.538882
      28A     -0.531656    29A     -0.524149    30A     -0.481333
      31A     -0.473154    32A     -0.453712    33A     -0.428255

  @DF-RHF Final Energy:  -704.63566075867448

   => Energetics <=

    Nuclear Repulsion Energy =            433.9356537149052429
    One-Electron Energy =               -1829.5167793944740424
    Two-Electron Energy =                 690.9454649208942101
    Total Energy =                       -704.6356607586744758
  Basis Set: (AUG-CC-PVTZ AUX)
    Blend: AUG-CC-PVTZ-RI
    Molecular point group: c1

    Geometry (in Angstrom), charge = 0, multiplicity = 1:

       Center              X                  Y                   Z               Mass
    ------------   -----------------  -----------------  -----------------  -----------------
         S            0.000000902476    -0.139756414416    -0.005689159609    31.972071174400
         O            0.000016402476    -0.895891814416     1.317448240391    15.994914619570
         O           -0.000015097524    -0.871125414416    -1.285391159609    15.994914619570
         C            1.415249902476     0.964462585584    -0.005724159609    12.000000000000
         C           -1.415253097524     0.964463585584    -0.005689159609    12.000000000000
         C            2.701183902476     0.145457585584    -0.005714159609    12.000000000000
         C           -2.701184097524     0.145455585584    -0.005659159609    12.000000000000
         H            1.333220902476     1.591691585584    -0.898331159609     1.007825032230
         H            1.333233902476     1.591733585584     0.886854840391     1.007825032230
         H           -1.333218097524     1.591727585584     0.886892840391     1.007825032230
         H           -1.333241097524     1.591698585584    -0.898293159609     1.007825032230
         H            3.563259902476     0.816254585584    -0.005741159609     1.007825032230
         H            2.747900902476    -0.488262414416     0.881788840391     1.007825032230
         H            2.747883902476    -0.488309414416    -0.893185159609     1.007825032230
         H           -3.563264097524     0.816249585584    -0.005665159609     1.007825032230
         H           -2.747901097524    -0.488306414416    -0.893132159609     1.007825032230
         H           -2.747884097524    -0.488269414416     0.881840840391     1.007825032230

  Basis Set: AUG-CC-PVTZ
    Blend: AUG-CC-PVTZ
  Basis Set: (AUG-CC-PVTZ AUX)
    Blend: AUG-CC-PVTZ-JKFIT
	 Reference Energy          =    -704.6356607586744758 [Eh]
	 Singles Energy            =      -0.0000000000000000 [Eh]
	 Same-Spin Energy          =      -0.3715484892364604 [Eh]
	 Opposite-Spin Energy      =      -1.1848399498518800 [Eh]
	 Correlation Energy        =      -1.5563884390883405 [Eh]
	 Total Energy              =    -706.1920491977627989 [Eh]

	 ================> DF-SCS-MP2 Energies <==================
	-----------------------------------------------------------
	 SCS Same-Spin Scale       =       0.3333333333333333 [-]
	 SCS Opposite-Spin Scale   =       1.2000000000000000 [-]
	 SCS Same-Spin Energy      =      -0.1238494964121535 [Eh]
	 SCS Opposite-Spin Energy  =      -1.4218079398222561 [Eh]
	 SCS Correlation Energy    =      -1.5456574362344095 [Eh]
	 SCS Total Energy          =    -706.1813181949088403 [Eh]
	-----------------------------------------------------------

  Dipole Moment: [D]
     X:     0.0000      Y:     4.5259      Z:    -0.2250     Total:     4.5315

*** Psi4 exiting successfully. Buy a developer a beer!
