                               Psi4 1.3.2 release

  ==> Input File <==

--------------------------------------------------------------------------
#psi4
#
memory 32 gb

molecule  {
0 1
  S        0.0000110     0.1881670    -0.0000010
  O       -0.0000360     0.9194870     1.2797200
  O       -0.0000020     0.9195190    -1.2797030
  C       -1.5728552    -1.0391259    -0.0000366
  C        1.4152210    -0.9161260     0.0000050
  C       -2.7012720    -0.0971660    -0.0000200
  C        2.7012500    -0.0971450     0.0000350
  H       -1.3330610    -1.5433750    -0.8926060
  H       -1.3330690    -1.5434170     0.8925110
  H        1.3330570    -1.5434210     0.8925650
  H        1.3330850    -1.5433980    -0.8925740
  H       -3.5631930    -0.7681330    -0.0000520
  H       -2.7480190     0.5365090     0.8875020
  H       -2.7480000     0.5365670    -0.8875020
  H        3.5632380    -0.7680250     0.0000210
  H        2.7479810     0.5365920    -0.8874510
  H        2.7479710     0.5365460     0.8875530
units angstrom
no_reorient  #important for SAPT in psi4, default
symmetry c1  #important for SAPT in psi4, default
}

set PROPERTIES_ORIGIN ["COM"]
properties('MP2/aug-cc-pvtz', properties = ['dipole'])
--------------------------------------------------------------------------

    Molecular point group: c1
  Charge       = 0
  Multiplicity = 1
  Basis Set: AUG-CC-PVTZ
    Blend: AUG-CC-PVTZ
  Basis Set: (AUG-CC-PVTZ AUX)
    Blend: AUG-CC-PVTZ-JKFIT

    Orbital Energies [Eh]
    ---------------------

    Doubly Occupied:

       1A    -92.160310     2A    -20.535189     3A    -20.535169
       4A    -11.287827     5A    -11.277444     6A    -11.238045
       7A    -11.237107     8A     -9.131268     9A     -6.815352
      10A     -6.814882    11A     -6.814797    12A     -1.420616
      13A     -1.314558    14A     -1.090558    15A     -1.071529
      16A     -0.932973    17A     -0.871626    18A     -0.791782
      19A     -0.684176    20A     -0.680575    21A     -0.654459
      22A     -0.639047    23A     -0.606307    24A     -0.589033
      25A     -0.577896    26A     -0.547393    27A     -0.539253
      28A     -0.538255    29A     -0.524707    30A     -0.483136
      31A     -0.466863    32A     -0.457086    33A     -0.392424

  @DF-RHF Final Energy:  -704.61829593485925

   => Energetics <=

    Nuclear Repulsion Energy =            432.2583708273136267
    One-Electron Energy =               -1826.3100543579630539
    Two-Electron Energy =                 689.4333875957901228
    Total Energy =                       -704.6182959348592476
  Basis Set: (AUG-CC-PVTZ AUX)
    Blend: AUG-CC-PVTZ-RI
    Molecular point group: c1

    Geometry (in Angstrom), charge = 0, multiplicity = 1:

       Center              X                  Y                   Z               Mass
    ------------   -----------------  -----------------  -----------------  -----------------
         S            0.015515246601     0.155153374156    -0.000001061318    31.972071174400
         O            0.015468246601     0.886473374156     1.279719938682    15.994914619570
         O            0.015502246601     0.886505374156    -1.279703061318    15.994914619570
         C           -1.557350953399    -1.072139525844    -0.000036661318    12.000000000000
         C            1.430725246601    -0.949139625844     0.000004938682    12.000000000000
         C           -2.685767753399    -0.130179625844    -0.000020061318    12.000000000000
         C            2.716754246601    -0.130158625844     0.000034938682    12.000000000000
         H           -1.317556753399    -1.576388625844    -0.892606061318     1.007825032230
         H           -1.317564753399    -1.576430625844     0.892510938682     1.007825032230
         H            1.348561246601    -1.576434625844     0.892564938682     1.007825032230
         H            1.348589246601    -1.576411625844    -0.892574061318     1.007825032230
         H           -3.547688753399    -0.801146625844    -0.000052061318     1.007825032230
         H           -2.732514753399     0.503495374156     0.887501938682     1.007825032230
         H           -2.732495753399     0.503553374156    -0.887502061318     1.007825032230
         H            3.578742246601    -0.801038625844     0.000020938682     1.007825032230
         H            2.763485246601     0.503578374156    -0.887451061318     1.007825032230
         H            2.763475246601     0.503532374156     0.887552938682     1.007825032230

  Basis Set: AUG-CC-PVTZ
    Blend: AUG-CC-PVTZ
  Basis Set: (AUG-CC-PVTZ AUX)
    Blend: AUG-CC-PVTZ-JKFIT
	 Reference Energy          =    -704.6182959348592476 [Eh]
	 Singles Energy            =      -0.0000000000000000 [Eh]
	 Same-Spin Energy          =      -0.3718994616760208 [Eh]
	 Opposite-Spin Energy      =      -1.1854105052570452 [Eh]
	 Correlation Energy        =      -1.5573099669330661 [Eh]
	 Total Energy              =    -706.1756059017923235 [Eh]

	 ================> DF-SCS-MP2 Energies <==================
	-----------------------------------------------------------
	 SCS Same-Spin Scale       =       0.3333333333333333 [-]
	 SCS Opposite-Spin Scale   =       1.2000000000000000 [-]
	 SCS Same-Spin Energy      =      -0.1239664872253403 [Eh]
	 SCS Opposite-Spin Energy  =      -1.4224926063084542 [Eh]
	 SCS Correlation Energy    =      -1.5464590935337945 [Eh]
	 SCS Total Energy          =    -706.1647550283930741 [Eh]
	-----------------------------------------------------------

  Dipole Moment: [D]
     X:     0.0563      Y:    -4.2760      Z:    -0.0001     Total:     4.2764

*** Psi4 exiting successfully. Buy a developer a beer!
