                               Psi4 1.3.2 release

  ==> Input File <==

--------------------------------------------------------------------------
#psi4
#
memory 32 gb

molecule  {
0 1
  S        0.1076848     0.0341903    -0.0000041
  O       -0.0000360     0.9194870     1.2797200
  O       -0.0000020     0.9195190    -1.2797030
  C       -1.4151770    -0.9160910    -0.0000330
  C        1.4152210    -0.9161260     0.0000050
  C       -2.7012720    -0.0971660    -0.0000200
  C        2.7012500    -0.0971450     0.0000350
  H       -1.3330610    -1.5433750    -0.8926060
  H       -1.3330690    -1.5434170     0.8925110
  H        1.3330570    -1.5434210     0.8925650
  H        1.3330850    -1.5433980    -0.8925740
  H       -3.5631930    -0.7681330    -0.0000520
  H       -2.7480190     0.5365090     0.8875020
  H       -2.7480000     0.5365670    -0.8875020
  H        3.5632380    -0.7680250     0.0000210
  H        2.7479810     0.5365920    -0.8874510
  H        2.7479710     0.5365460     0.8875530
units angstrom
no_reorient  #important for SAPT in psi4, default
symmetry c1  #important for SAPT in psi4, default
}

set PROPERTIES_ORIGIN ["COM"]
properties('MP2/aug-cc-pvtz', properties = ['dipole'])
--------------------------------------------------------------------------

    Molecular point group: c1
  Charge       = 0
  Multiplicity = 1
  Basis Set: AUG-CC-PVTZ
    Blend: AUG-CC-PVTZ
  Basis Set: (AUG-CC-PVTZ AUX)
    Blend: AUG-CC-PVTZ-JKFIT

    Orbital Energies [Eh]
    ---------------------

    Doubly Occupied:

       1A    -92.169264     2A    -20.522691     3A    -20.522671
       4A    -11.293403     5A    -11.286427     6A    -11.255057
       7A    -11.238595     8A     -9.143569     9A     -6.827839
      10A     -6.827147    11A     -6.826294    12A     -1.378562
      13A     -1.259549    14A     -1.138949    15A     -1.074013
      16A     -0.968558    17A     -0.888494    18A     -0.795976
      19A     -0.698993    20A     -0.696740    21A     -0.652687
      22A     -0.629816    23A     -0.597838    24A     -0.578870
      25A     -0.558303    26A     -0.547033    27A     -0.539871
      28A     -0.537018    29A     -0.521851    30A     -0.464012
      31A     -0.453961    32A     -0.429656    33A     -0.424229

  @DF-RHF Final Energy:  -704.59120622312457

   => Energetics <=

    Nuclear Repulsion Energy =            435.1377545559130340
    One-Electron Energy =               -1831.9620508148884710
    Two-Electron Energy =                 692.2330900358508643
    Total Energy =                       -704.5912062231245727
  Basis Set: (AUG-CC-PVTZ AUX)
    Blend: AUG-CC-PVTZ-RI
    Molecular point group: c1

    Geometry (in Angstrom), charge = 0, multiplicity = 1:

       Center              X                  Y                   Z               Mass
    ------------   -----------------  -----------------  -----------------  -----------------
         S            0.079476442470     0.029417668540    -0.000003703162    31.972071174400
         O           -0.028244357530     0.914714368540     1.279720396838    15.994914619570
         O           -0.028210357530     0.914746368540    -1.279702603162    15.994914619570
         C           -1.443385357530    -0.920863631460    -0.000032603162    12.000000000000
         C            1.387012642470    -0.920898631460     0.000005396838    12.000000000000
         C           -2.729480357530    -0.101938631460    -0.000019603162    12.000000000000
         C            2.673041642470    -0.101917631460     0.000035396838    12.000000000000
         H           -1.361269357530    -1.548147631460    -0.892605603162     1.007825032230
         H           -1.361277357530    -1.548189631460     0.892511396838     1.007825032230
         H            1.304848642470    -1.548193631460     0.892565396838     1.007825032230
         H            1.304876642470    -1.548170631460    -0.892573603162     1.007825032230
         H           -3.591401357530    -0.772905631460    -0.000051603162     1.007825032230
         H           -2.776227357530     0.531736368540     0.887502396838     1.007825032230
         H           -2.776208357530     0.531794368540    -0.887501603162     1.007825032230
         H            3.535029642470    -0.772797631460     0.000021396838     1.007825032230
         H            2.719772642470     0.531819368540    -0.887450603162     1.007825032230
         H            2.719762642470     0.531773368540     0.887553396838     1.007825032230

  Basis Set: AUG-CC-PVTZ
    Blend: AUG-CC-PVTZ
  Basis Set: (AUG-CC-PVTZ AUX)
    Blend: AUG-CC-PVTZ-JKFIT
	 Reference Energy          =    -704.5912062231245727 [Eh]
	 Singles Energy            =      -0.0000000000000000 [Eh]
	 Same-Spin Energy          =      -0.3745040101232147 [Eh]
	 Opposite-Spin Energy      =      -1.1889930031312856 [Eh]
	 Correlation Energy        =      -1.5634970132545003 [Eh]
	 Total Energy              =    -706.1547032363790777 [Eh]

	 ================> DF-SCS-MP2 Energies <==================
	-----------------------------------------------------------
	 SCS Same-Spin Scale       =       0.3333333333333333 [-]
	 SCS Opposite-Spin Scale   =       1.2000000000000000 [-]
	 SCS Same-Spin Energy      =      -0.1248346700410715 [Eh]
	 SCS Opposite-Spin Energy  =      -1.4267916037575428 [Eh]
	 SCS Correlation Energy    =      -1.5516262737986144 [Eh]
	 SCS Total Energy          =    -706.1428324969232335 [Eh]
	-----------------------------------------------------------

  Dipole Moment: [D]
     X:     0.8432      Y:    -5.4351      Z:    -0.0001     Total:     5.5001

*** Psi4 exiting successfully. Buy a developer a beer!
