                               Psi4 1.3.2 release

  ==> Input File <==

--------------------------------------------------------------------------
#psi4
#
memory 32 gb

molecule  {
0 1
  S       -0.1231679     0.3300452     0.0000017
  O       -0.0000360     0.9194870     1.2797200
  O       -0.0000020     0.9195190    -1.2797030
  C       -1.4151770    -0.9160910    -0.0000330
  C        1.4152210    -0.9161260     0.0000050
  C       -2.7012720    -0.0971660    -0.0000200
  C        2.7012500    -0.0971450     0.0000350
  H       -1.3330610    -1.5433750    -0.8926060
  H       -1.3330690    -1.5434170     0.8925110
  H        1.3330570    -1.5434210     0.8925650
  H        1.3330850    -1.5433980    -0.8925740
  H       -3.5631930    -0.7681330    -0.0000520
  H       -2.7480190     0.5365090     0.8875020
  H       -2.7480000     0.5365670    -0.8875020
  H        3.5632380    -0.7680250     0.0000210
  H        2.7479810     0.5365920    -0.8874510
  H        2.7479710     0.5365460     0.8875530
units angstrom
no_reorient  #important for SAPT in psi4, default
symmetry c1  #important for SAPT in psi4, default
}

set PROPERTIES_ORIGIN ["COM"]
properties('MP2/aug-cc-pvtz', properties = ['dipole'])
--------------------------------------------------------------------------

    Molecular point group: c1
  Charge       = 0
  Multiplicity = 1
  Basis Set: AUG-CC-PVTZ
    Blend: AUG-CC-PVTZ
  Basis Set: (AUG-CC-PVTZ AUX)
    Blend: AUG-CC-PVTZ-JKFIT

    Orbital Energies [Eh]
    ---------------------

    Doubly Occupied:

       1A    -92.170732     2A    -20.553269     3A    -20.553249
       4A    -11.280088     5A    -11.256069     6A    -11.242597
       7A    -11.222543     8A     -9.141731     9A     -6.826292
      10A     -6.826142    11A     -6.825400    12A     -1.472405
      13A     -1.368676    14A     -1.088843    15A     -1.037724
      16A     -0.924378    17A     -0.848865    18A     -0.796494
      19A     -0.701270    20A     -0.673718    21A     -0.663439
      22A     -0.636891    23A     -0.622238    24A     -0.584699
      25A     -0.558215    26A     -0.550060    27A     -0.536176
      28A     -0.523791    29A     -0.514957    30A     -0.508739
      31A     -0.487059    32A     -0.486637    33A     -0.387899

  @DF-RHF Final Energy:  -704.61434957535346

   => Energetics <=

    Nuclear Repulsion Energy =            436.6307241312148335
    One-Electron Energy =               -1834.7475738887412717
    Two-Electron Energy =                 693.5025001821728665
    Total Energy =                       -704.6143495753534580
  Basis Set: (AUG-CC-PVTZ AUX)
    Blend: AUG-CC-PVTZ-RI
    Molecular point group: c1

    Geometry (in Angstrom), charge = 0, multiplicity = 1:

       Center              X                  Y                   Z               Mass
    ------------   -----------------  -----------------  -----------------  -----------------
         S           -0.090897481400     0.247764520057     0.000000577354    31.972071174400
         O            0.032234418600     0.837206320057     1.279718877354    15.994914619570
         O            0.032268418600     0.837238320057    -1.279704122646    15.994914619570
         C           -1.382906581400    -0.998371679943    -0.000034122646    12.000000000000
         C            1.447491418600    -0.998406679943     0.000003877354    12.000000000000
         C           -2.669001581400    -0.179446679943    -0.000021122646    12.000000000000
         C            2.733520418600    -0.179425679943     0.000033877354    12.000000000000
         H           -1.300790581400    -1.625655679943    -0.892607122646     1.007825032230
         H           -1.300798581400    -1.625697679943     0.892509877354     1.007825032230
         H            1.365327418600    -1.625701679943     0.892563877354     1.007825032230
         H            1.365355418600    -1.625678679943    -0.892575122646     1.007825032230
         H           -3.530922581400    -0.850413679943    -0.000053122646     1.007825032230
         H           -2.715748581400     0.454228320057     0.887500877354     1.007825032230
         H           -2.715729581400     0.454286320057    -0.887503122646     1.007825032230
         H            3.595508418600    -0.850305679943     0.000019877354     1.007825032230
         H            2.780251418600     0.454311320057    -0.887452122646     1.007825032230
         H            2.780241418600     0.454265320057     0.887551877354     1.007825032230

  Basis Set: AUG-CC-PVTZ
    Blend: AUG-CC-PVTZ
  Basis Set: (AUG-CC-PVTZ AUX)
    Blend: AUG-CC-PVTZ-JKFIT
	 Reference Energy          =    -704.6143495753534580 [Eh]
	 Singles Energy            =      -0.0000000000000000 [Eh]
	 Same-Spin Energy          =      -0.3697232838239549 [Eh]
	 Opposite-Spin Energy      =      -1.1822671007142849 [Eh]
	 Correlation Energy        =      -1.5519903845382399 [Eh]
	 Total Energy              =    -706.1663399598917294 [Eh]

	 ================> DF-SCS-MP2 Energies <==================
	-----------------------------------------------------------
	 SCS Same-Spin Scale       =       0.3333333333333333 [-]
	 SCS Opposite-Spin Scale   =       1.2000000000000000 [-]
	 SCS Same-Spin Energy      =      -0.1232410946079850 [Eh]
	 SCS Opposite-Spin Energy  =      -1.4187205208571418 [Eh]
	 SCS Correlation Energy    =      -1.5419616154651268 [Eh]
	 SCS Total Energy          =    -706.1563111908185419 [Eh]
	-----------------------------------------------------------

  Dipole Moment: [D]
     X:    -1.1199      Y:    -3.3129      Z:    -0.0000     Total:     3.4971

*** Psi4 exiting successfully. Buy a developer a beer!
