                               Psi4 1.3.2 release

  ==> Input File <==

--------------------------------------------------------------------------
#psi4
#
memory 32 gb

molecule  {
0 1
  S        0.0000110     0.1881670    -0.0000010
  O       -0.0000367     0.9417098     1.2667618
  O       -0.0000020     0.9195190    -1.2797030
  C       -1.4151770    -0.9160910    -0.0000330
  C        1.4152210    -0.9161260     0.0000050
  C       -2.7012720    -0.0971660    -0.0000200
  C        2.7012500    -0.0971450     0.0000350
  H       -1.3330610    -1.5433750    -0.8926060
  H       -1.3330690    -1.5434170     0.8925110
  H        1.3330570    -1.5434210     0.8925650
  H        1.3330850    -1.5433980    -0.8925740
  H       -3.5631930    -0.7681330    -0.0000520
  H       -2.7480190     0.5365090     0.8875020
  H       -2.7480000     0.5365670    -0.8875020
  H        3.5632380    -0.7680250     0.0000210
  H        2.7479810     0.5365920    -0.8874510
  H        2.7479710     0.5365460     0.8875530
units angstrom
no_reorient  #important for SAPT in psi4, default
symmetry c1  #important for SAPT in psi4, default
}

set PROPERTIES_ORIGIN ["COM"]
properties('MP2/aug-cc-pvtz', properties = ['dipole'])
--------------------------------------------------------------------------

    Molecular point group: c1
  Charge       = 0
  Multiplicity = 1
  Basis Set: AUG-CC-PVTZ
    Blend: AUG-CC-PVTZ
  Basis Set: (AUG-CC-PVTZ AUX)
    Blend: AUG-CC-PVTZ-JKFIT

    Orbital Energies [Eh]
    ---------------------

    Doubly Occupied:

       1A    -92.171173     2A    -20.537143     3A    -20.535828
       4A    -11.280400     5A    -11.280383     6A    -11.239251
       7A    -11.239249     8A     -9.141884     9A     -6.826310
      10A     -6.825809    11A     -6.825666    12A     -1.427882
      13A     -1.317217    14A     -1.095570    15A     -1.067753
      16A     -0.943313    17A     -0.871993    18A     -0.792864
      19A     -0.697088    20A     -0.673701    21A     -0.647348
      22A     -0.645509    23A     -0.605860    24A     -0.591123
      25A     -0.553121    26A     -0.548956    27A     -0.538091
      28A     -0.531687    29A     -0.523208    30A     -0.484873
      31A     -0.476735    32A     -0.456990    33A     -0.427622

  @DF-RHF Final Energy:  -704.64301591114088

   => Energetics <=

    Nuclear Repulsion Energy =            436.1329820846283951
    One-Electron Energy =               -1833.9087945356427554
    Two-Electron Energy =                 693.1327965398735387
    Total Energy =                       -704.6430159111408784
  Basis Set: (AUG-CC-PVTZ AUX)
    Blend: AUG-CC-PVTZ-RI
    Molecular point group: c1

    Geometry (in Angstrom), charge = 0, multiplicity = 1:

       Center              X                  Y                   Z               Mass
    ------------   -----------------  -----------------  -----------------  -----------------
         S            0.000011109707     0.140142981448     0.001696921693    31.972071174400
         O           -0.000036590293     0.893685781448     1.268459721693    15.994914619570
         O           -0.000001890293     0.871494981448    -1.278005078307    15.994914619570
         C           -1.415176890293    -0.964115018552     0.001664921693    12.000000000000
         C            1.415221109707    -0.964150018552     0.001702921693    12.000000000000
         C           -2.701271890293    -0.145190018552     0.001677921693    12.000000000000
         C            2.701250109707    -0.145169018552     0.001732921693    12.000000000000
         H           -1.333060890293    -1.591399018552    -0.890908078307     1.007825032230
         H           -1.333068890293    -1.591441018552     0.894208921693     1.007825032230
         H            1.333057109707    -1.591445018552     0.894262921693     1.007825032230
         H            1.333085109707    -1.591422018552    -0.890876078307     1.007825032230
         H           -3.563192890293    -0.816157018552     0.001645921693     1.007825032230
         H           -2.748018890293     0.488484981448     0.889199921693     1.007825032230
         H           -2.747999890293     0.488542981448    -0.885804078307     1.007825032230
         H            3.563238109707    -0.816049018552     0.001718921693     1.007825032230
         H            2.747981109707     0.488567981448    -0.885753078307     1.007825032230
         H            2.747971109707     0.488521981448     0.889250921693     1.007825032230

  Basis Set: AUG-CC-PVTZ
    Blend: AUG-CC-PVTZ
  Basis Set: (AUG-CC-PVTZ AUX)
    Blend: AUG-CC-PVTZ-JKFIT
	 Reference Energy          =    -704.6430159111408784 [Eh]
	 Singles Energy            =      -0.0000000000000000 [Eh]
	 Same-Spin Energy          =      -0.3706483913055211 [Eh]
	 Opposite-Spin Energy      =      -1.1823935907739243 [Eh]
	 Correlation Energy        =      -1.5530419820794454 [Eh]
	 Total Energy              =    -706.1960578932203134 [Eh]

	 ================> DF-SCS-MP2 Energies <==================
	-----------------------------------------------------------
	 SCS Same-Spin Scale       =       0.3333333333333333 [-]
	 SCS Opposite-Spin Scale   =       1.2000000000000000 [-]
	 SCS Same-Spin Energy      =      -0.1235494637685070 [Eh]
	 SCS Opposite-Spin Energy  =      -1.4188723089287090 [Eh]
	 SCS Correlation Energy    =      -1.5424217726972160 [Eh]
	 SCS Total Energy          =    -706.1854376838381313 [Eh]
	-----------------------------------------------------------

  Dipole Moment: [D]
     X:     0.0002      Y:    -4.4299      Z:     0.0320     Total:     4.4300

*** Psi4 exiting successfully. Buy a developer a beer!
