                               Psi4 1.3.2 release

  ==> Input File <==

--------------------------------------------------------------------------
#psi4
#
memory 32 gb

molecule  {
0 1
  S        0.0000110     0.1881670    -0.0000010
  O       -0.0000360     0.9194870     1.2797200
  O       -0.0000020     0.9195190    -1.2797030
  C       -1.3347005    -1.0121196    -0.0000331
  C        1.4152210    -0.9161260     0.0000050
  C       -2.7012720    -0.0971660    -0.0000200
  C        2.7012500    -0.0971450     0.0000350
  H       -1.3330610    -1.5433750    -0.8926060
  H       -1.3330690    -1.5434170     0.8925110
  H        1.3330570    -1.5434210     0.8925650
  H        1.3330850    -1.5433980    -0.8925740
  H       -3.5631930    -0.7681330    -0.0000520
  H       -2.7480190     0.5365090     0.8875020
  H       -2.7480000     0.5365670    -0.8875020
  H        3.5632380    -0.7680250     0.0000210
  H        2.7479810     0.5365920    -0.8874510
  H        2.7479710     0.5365460     0.8875530
units angstrom
no_reorient  #important for SAPT in psi4, default
symmetry c1  #important for SAPT in psi4, default
}

set PROPERTIES_ORIGIN ["COM"]
properties('MP2/aug-cc-pvtz', properties = ['dipole'])
--------------------------------------------------------------------------

    Molecular point group: c1
  Charge       = 0
  Multiplicity = 1
  Basis Set: AUG-CC-PVTZ
    Blend: AUG-CC-PVTZ
  Basis Set: (AUG-CC-PVTZ AUX)
    Blend: AUG-CC-PVTZ-JKFIT

    Orbital Energies [Eh]
    ---------------------

    Doubly Occupied:

       1A    -92.172898     2A    -20.540392     3A    -20.540372
       4A    -11.275806     5A    -11.275611     6A    -11.246086
       7A    -11.236290     8A     -9.143222     9A     -6.827865
      10A     -6.827082    11A     -6.827036    12A     -1.429478
      13A     -1.320564    14A     -1.092303    15A     -1.056810
      16A     -0.938888    17A     -0.874685    18A     -0.798136
      19A     -0.695064    20A     -0.683722    21A     -0.650661
      22A     -0.648067    23A     -0.608029    24A     -0.581231
      25A     -0.551456    26A     -0.547452    27A     -0.544868
      28A     -0.524898    29A     -0.509781    30A     -0.487759
      31A     -0.481082    32A     -0.461533    33A     -0.426180

  @DF-RHF Final Energy:  -704.62995755658596

   => Energetics <=

    Nuclear Repulsion Energy =            435.5205621551807553
    One-Electron Energy =               -1832.6504262317264420
    Two-Electron Energy =                 692.4999065199598363
    Total Energy =                       -704.6299575565859641
  Basis Set: (AUG-CC-PVTZ AUX)
    Blend: AUG-CC-PVTZ-RI
    Molecular point group: c1

    Geometry (in Angstrom), charge = 0, multiplicity = 1:

       Center              X                  Y                   Z               Mass
    ------------   -----------------  -----------------  -----------------  -----------------
         S           -0.007902099107     0.152497890710    -0.000001405467    31.972071174400
         O           -0.007949099107     0.883817890710     1.279719594533    15.994914619570
         O           -0.007915099107     0.883849890710    -1.279703405467    15.994914619570
         C           -1.342613599107    -1.047788709290    -0.000033505467    12.000000000000
         C            1.407307900893    -0.951795109290     0.000004594533    12.000000000000
         C           -2.709185099107    -0.132835109290    -0.000020405467    12.000000000000
         C            2.693336900893    -0.132814109290     0.000034594533    12.000000000000
         H           -1.340974099107    -1.579044109290    -0.892606405467     1.007825032230
         H           -1.340982099107    -1.579086109290     0.892510594533     1.007825032230
         H            1.325143900893    -1.579090109290     0.892564594533     1.007825032230
         H            1.325171900893    -1.579067109290    -0.892574405467     1.007825032230
         H           -3.571106099107    -0.803802109290    -0.000052405467     1.007825032230
         H           -2.755932099107     0.500839890710     0.887501594533     1.007825032230
         H           -2.755913099107     0.500897890710    -0.887502405467     1.007825032230
         H            3.555324900893    -0.803694109290     0.000020594533     1.007825032230
         H            2.740067900893     0.500922890710    -0.887451405467     1.007825032230
         H            2.740057900893     0.500876890710     0.887552594533     1.007825032230

  Basis Set: AUG-CC-PVTZ
    Blend: AUG-CC-PVTZ
  Basis Set: (AUG-CC-PVTZ AUX)
    Blend: AUG-CC-PVTZ-JKFIT
	 Reference Energy          =    -704.6299575565859641 [Eh]
	 Singles Energy            =      -0.0000000000000000 [Eh]
	 Same-Spin Energy          =      -0.3705987242972291 [Eh]
	 Opposite-Spin Energy      =      -1.1832717080413118 [Eh]
	 Correlation Energy        =      -1.5538704323385408 [Eh]
	 Total Energy              =    -706.1838279889244632 [Eh]

	 ================> DF-SCS-MP2 Energies <==================
	-----------------------------------------------------------
	 SCS Same-Spin Scale       =       0.3333333333333333 [-]
	 SCS Opposite-Spin Scale   =       1.2000000000000000 [-]
	 SCS Same-Spin Energy      =      -0.1235329080990764 [Eh]
	 SCS Opposite-Spin Energy  =      -1.4199260496495740 [Eh]
	 SCS Correlation Energy    =      -1.5434589577486504 [Eh]
	 SCS Total Energy          =    -706.1734165143345763 [Eh]
	-----------------------------------------------------------

  Dipole Moment: [D]
     X:    -0.0934      Y:    -4.3118      Z:    -0.0001     Total:     4.3128

*** Psi4 exiting successfully. Buy a developer a beer!
