                               Psi4 1.3.2 release

  ==> Input File <==

--------------------------------------------------------------------------
#psi4
#
memory 32 gb

molecule  {
0 1
  S       -0.0393891     0.2368837    -0.0000001
  O       -0.0000360     0.9194870     1.2797200
  O       -0.0000020     0.9195190    -1.2797030
  C       -1.4151770    -0.9160910    -0.0000330
  C        1.4152210    -0.9161260     0.0000050
  C       -2.7012720    -0.0971660    -0.0000200
  C        2.7012500    -0.0971450     0.0000350
  H       -1.3330610    -1.5433750    -0.8926060
  H       -1.3330690    -1.5434170     0.8925110
  H        1.3330570    -1.5434210     0.8925650
  H        1.3330850    -1.5433980    -0.8925740
  H       -3.5631930    -0.7681330    -0.0000520
  H       -2.7480190     0.5365090     0.8875020
  H       -2.7480000     0.5365670    -0.8875020
  H        3.5632380    -0.7680250     0.0000210
  H        2.7479810     0.5365920    -0.8874510
  H        2.7479710     0.5365460     0.8875530
units angstrom
no_reorient  #important for SAPT in psi4, default
symmetry c1  #important for SAPT in psi4, default
}

set PROPERTIES_ORIGIN ["COM"]
properties('MP2/aug-cc-pvtz', properties = ['dipole'])
--------------------------------------------------------------------------

    Molecular point group: c1
  Charge       = 0
  Multiplicity = 1
  Basis Set: AUG-CC-PVTZ
    Blend: AUG-CC-PVTZ
  Basis Set: (AUG-CC-PVTZ AUX)
    Blend: AUG-CC-PVTZ-JKFIT

    Orbital Energies [Eh]
    ---------------------

    Doubly Occupied:

       1A    -92.170668     2A    -20.542383     3A    -20.542363
       4A    -11.278898     5A    -11.273228     6A    -11.239804
       7A    -11.233737     8A     -9.141161     9A     -6.825600
      10A     -6.825229    11A     -6.825073    12A     -1.444039
      13A     -1.336733    14A     -1.088945    15A     -1.059628
      16A     -0.935500    17A     -0.864806    18A     -0.793189
      19A     -0.697536    20A     -0.671096    21A     -0.651952
      22A     -0.642801    23A     -0.615074    24A     -0.588069
      25A     -0.554237    26A     -0.549430    27A     -0.534286
      28A     -0.532012    29A     -0.519025    30A     -0.496209
      31A     -0.480332    32A     -0.468851    33A     -0.417776

  @DF-RHF Final Energy:  -704.64138060967366

   => Energetics <=

    Nuclear Repulsion Energy =            436.4179741305002267
    One-Electron Energy =               -1834.4393685404968437
    Two-Electron Energy =                 693.3800138003230131
    Total Energy =                       -704.6413806096736607
  Basis Set: (AUG-CC-PVTZ AUX)
    Blend: AUG-CC-PVTZ-RI
    Molecular point group: c1

    Geometry (in Angstrom), charge = 0, multiplicity = 1:

       Center              X                  Y                   Z               Mass
    ------------   -----------------  -----------------  -----------------  -----------------
         S           -0.029067046265     0.179009464090    -0.000000751082    31.972071174400
         O            0.010286053735     0.861612764090     1.279719348918    15.994914619570
         O            0.010320053735     0.861644764090    -1.279703651082    15.994914619570
         C           -1.404854946265    -0.973965235910    -0.000033651082    12.000000000000
         C            1.425543053735    -0.974000235910     0.000004348918    12.000000000000
         C           -2.690949946265    -0.155040235910    -0.000020651082    12.000000000000
         C            2.711572053735    -0.155019235910     0.000034348918    12.000000000000
         H           -1.322738946265    -1.601249235910    -0.892606651082     1.007825032230
         H           -1.322746946265    -1.601291235910     0.892510348918     1.007825032230
         H            1.343379053735    -1.601295235910     0.892564348918     1.007825032230
         H            1.343407053735    -1.601272235910    -0.892574651082     1.007825032230
         H           -3.552870946265    -0.826007235910    -0.000052651082     1.007825032230
         H           -2.737696946265     0.478634764090     0.887501348918     1.007825032230
         H           -2.737677946265     0.478692764090    -0.887502651082     1.007825032230
         H            3.573560053735    -0.825899235910     0.000020348918     1.007825032230
         H            2.758303053735     0.478717764090    -0.887451651082     1.007825032230
         H            2.758293053735     0.478671764090     0.887552348918     1.007825032230

  Basis Set: AUG-CC-PVTZ
    Blend: AUG-CC-PVTZ
  Basis Set: (AUG-CC-PVTZ AUX)
    Blend: AUG-CC-PVTZ-JKFIT
	 Reference Energy          =    -704.6413806096736607 [Eh]
	 Singles Energy            =      -0.0000000000000000 [Eh]
	 Same-Spin Energy          =      -0.3699651324828688 [Eh]
	 Opposite-Spin Energy      =      -1.1815964055551818 [Eh]
	 Correlation Energy        =      -1.5515615380380505 [Eh]
	 Total Energy              =    -706.1929421477117330 [Eh]

	 ================> DF-SCS-MP2 Energies <==================
	-----------------------------------------------------------
	 SCS Same-Spin Scale       =       0.3333333333333333 [-]
	 SCS Opposite-Spin Scale   =       1.2000000000000000 [-]
	 SCS Same-Spin Energy      =      -0.1233217108276229 [Eh]
	 SCS Opposite-Spin Energy  =      -1.4179156866662181 [Eh]
	 SCS Correlation Energy    =      -1.5412373974938411 [Eh]
	 SCS Total Energy          =    -706.1826180071675481 [Eh]
	-----------------------------------------------------------

  Dipole Moment: [D]
     X:    -0.3341      Y:    -4.0241      Z:    -0.0000     Total:     4.0380

*** Psi4 exiting successfully. Buy a developer a beer!
