                               Psi4 1.3.2 release

  ==> Input File <==

--------------------------------------------------------------------------
#psi4
#
memory 32 gb

molecule  {
0 1
  S        0.0000110     0.1881670    -0.0000010
  O       -0.0000360     0.9194870     1.2797200
  O       -0.0851243     0.8676690    -1.3051990
  C       -1.4151770    -0.9160910    -0.0000330
  C        1.4152210    -0.9161260     0.0000050
  C       -2.7012720    -0.0971660    -0.0000200
  C        2.7012500    -0.0971450     0.0000350
  H       -1.3330610    -1.5433750    -0.8926060
  H       -1.3330690    -1.5434170     0.8925110
  H        1.3330570    -1.5434210     0.8925650
  H        1.3330850    -1.5433980    -0.8925740
  H       -3.5631930    -0.7681330    -0.0000520
  H       -2.7480190     0.5365090     0.8875020
  H       -2.7480000     0.5365670    -0.8875020
  H        3.5632380    -0.7680250     0.0000210
  H        2.7479810     0.5365920    -0.8874510
  H        2.7479710     0.5365460     0.8875530
units angstrom
no_reorient  #important for SAPT in psi4, default
symmetry c1  #important for SAPT in psi4, default
}

set PROPERTIES_ORIGIN ["COM"]
properties('MP2/aug-cc-pvtz', properties = ['dipole'])
--------------------------------------------------------------------------

    Molecular point group: c1
  Charge       = 0
  Multiplicity = 1
  Basis Set: AUG-CC-PVTZ
    Blend: AUG-CC-PVTZ
  Basis Set: (AUG-CC-PVTZ AUX)
    Blend: AUG-CC-PVTZ-JKFIT

    Orbital Energies [Eh]
    ---------------------

    Doubly Occupied:

       1A    -92.171824     2A    -20.540718     3A    -20.537673
       4A    -11.282074     5A    -11.274907     6A    -11.241348
       7A    -11.236043     8A     -9.142457     9A     -6.826870
      10A     -6.826451    11A     -6.826189    12A     -1.428989
      13A     -1.321876    14A     -1.093722    15A     -1.066301
      16A     -0.942171    17A     -0.871027    18A     -0.793174
      19A     -0.697033    20A     -0.673304    21A     -0.647091
      22A     -0.644672    23A     -0.608114    24A     -0.590841
      25A     -0.553189    26A     -0.548134    27A     -0.536831
      28A     -0.532138    29A     -0.521674    30A     -0.488429
      31A     -0.476454    32A     -0.460582    33A     -0.425851

  @DF-RHF Final Energy:  -704.64107793494418

   => Energetics <=

    Nuclear Repulsion Energy =            436.2946094723569104
    One-Electron Energy =               -1834.2150757436788808
    Two-Electron Energy =                 693.2793883363776786
    Total Energy =                       -704.6410779349441782
  Basis Set: (AUG-CC-PVTZ AUX)
    Blend: AUG-CC-PVTZ-RI
    Molecular point group: c1

    Geometry (in Angstrom), charge = 0, multiplicity = 1:

       Center              X                  Y                   Z               Mass
    ------------   -----------------  -----------------  -----------------  -----------------
         S            0.011167378493     0.149851164407     0.003340159917    31.972071174400
         O            0.011120378493     0.881171164407     1.283061159917    15.994914619570
         O           -0.073967921507     0.829353164407    -1.301857840083    15.994914619570
         C           -1.404020621507    -0.954406835593     0.003308159917    12.000000000000
         C            1.426377378493    -0.954441835593     0.003346159917    12.000000000000
         C           -2.690115621507    -0.135481835593     0.003321159917    12.000000000000
         C            2.712406378493    -0.135460835593     0.003376159917    12.000000000000
         H           -1.321904621507    -1.581690835593    -0.889264840083     1.007825032230
         H           -1.321912621507    -1.581732835593     0.895852159917     1.007825032230
         H            1.344213378493    -1.581736835593     0.895906159917     1.007825032230
         H            1.344241378493    -1.581713835593    -0.889232840083     1.007825032230
         H           -3.552036621507    -0.806448835593     0.003289159917     1.007825032230
         H           -2.736862621507     0.498193164407     0.890843159917     1.007825032230
         H           -2.736843621507     0.498251164407    -0.884160840083     1.007825032230
         H            3.574394378493    -0.806340835593     0.003362159917     1.007825032230
         H            2.759137378493     0.498276164407    -0.884109840083     1.007825032230
         H            2.759127378493     0.498230164407     0.890894159917     1.007825032230

  Basis Set: AUG-CC-PVTZ
    Blend: AUG-CC-PVTZ
  Basis Set: (AUG-CC-PVTZ AUX)
    Blend: AUG-CC-PVTZ-JKFIT
	 Reference Energy          =    -704.6410779349441782 [Eh]
	 Singles Energy            =      -0.0000000000000000 [Eh]
	 Same-Spin Energy          =      -0.3708571040174155 [Eh]
	 Opposite-Spin Energy      =      -1.1829063444520007 [Eh]
	 Correlation Energy        =      -1.5537634484694163 [Eh]
	 Total Energy              =    -706.1948413834136318 [Eh]

	 ================> DF-SCS-MP2 Energies <==================
	-----------------------------------------------------------
	 SCS Same-Spin Scale       =       0.3333333333333333 [-]
	 SCS Opposite-Spin Scale   =       1.2000000000000000 [-]
	 SCS Same-Spin Energy      =      -0.1236190346724718 [Eh]
	 SCS Opposite-Spin Energy  =      -1.4194876133424008 [Eh]
	 SCS Correlation Energy    =      -1.5431066480148727 [Eh]
	 SCS Total Energy          =    -706.1841845829590056 [Eh]
	-----------------------------------------------------------

  Dipole Moment: [D]
     X:     0.2780      Y:    -4.2454      Z:     0.0632     Total:     4.2550

*** Psi4 exiting successfully. Buy a developer a beer!
