                               Psi4 1.3.2 release

  ==> Input File <==

--------------------------------------------------------------------------
#psi4
#
memory 32 gb

molecule  {
0 1
  S        0.0000110     0.1881670    -0.0000010
  O       -0.0000392     0.9691035     1.3665428
  O       -0.0000020     0.9195190    -1.2797030
  C       -1.4151770    -0.9160910    -0.0000330
  C        1.4152210    -0.9161260     0.0000050
  C       -2.7012720    -0.0971660    -0.0000200
  C        2.7012500    -0.0971450     0.0000350
  H       -1.3330610    -1.5433750    -0.8926060
  H       -1.3330690    -1.5434170     0.8925110
  H        1.3330570    -1.5434210     0.8925650
  H        1.3330850    -1.5433980    -0.8925740
  H       -3.5631930    -0.7681330    -0.0000520
  H       -2.7480190     0.5365090     0.8875020
  H       -2.7480000     0.5365670    -0.8875020
  H        3.5632380    -0.7680250     0.0000210
  H        2.7479810     0.5365920    -0.8874510
  H        2.7479710     0.5365460     0.8875530
units angstrom
no_reorient  #important for SAPT in psi4, default
symmetry c1  #important for SAPT in psi4, default
}

set PROPERTIES_ORIGIN ["COM"]
properties('MP2/aug-cc-pvtz', properties = ['dipole'])
--------------------------------------------------------------------------

    Molecular point group: c1
  Charge       = 0
  Multiplicity = 1
  Basis Set: AUG-CC-PVTZ
    Blend: AUG-CC-PVTZ
  Basis Set: (AUG-CC-PVTZ AUX)
    Blend: AUG-CC-PVTZ-JKFIT

    Orbital Energies [Eh]
    ---------------------

    Doubly Occupied:

       1A    -92.175810     2A    -20.544139     3A    -20.536198
       4A    -11.285783     5A    -11.285765     6A    -11.240778
       7A    -11.240777     8A     -9.146435     9A     -6.830747
      10A     -6.830286    11A     -6.829560    12A     -1.408523
      13A     -1.287593    14A     -1.099335    15A     -1.070242
      16A     -0.947299    17A     -0.874118    18A     -0.799191
      19A     -0.693453    20A     -0.675792    21A     -0.649345
      22A     -0.637245    23A     -0.598681    24A     -0.591106
      25A     -0.552502    26A     -0.548271    27A     -0.539826
      28A     -0.531577    29A     -0.525260    30A     -0.476997
      31A     -0.469246    32A     -0.448851    33A     -0.428818

  @DF-RHF Final Energy:  -704.62533161825979

   => Energetics <=

    Nuclear Repulsion Energy =            431.8035963585968489
    One-Electron Energy =               -1825.2587566458919355
    Two-Electron Energy =                 688.8298286690352370
    Total Energy =                       -704.6253316182597928
  Basis Set: (AUG-CC-PVTZ AUX)
    Blend: AUG-CC-PVTZ-RI
    Molecular point group: c1

    Geometry (in Angstrom), charge = 0, multiplicity = 1:

       Center              X                  Y                   Z               Mass
    ------------   -----------------  -----------------  -----------------  -----------------
         S            0.000011437364     0.136552688500    -0.011380647992    31.972071174400
         O           -0.000038762636     0.917489188500     1.355163152008    15.994914619570
         O           -0.000001562636     0.867904688500    -1.291082647992    15.994914619570
         C           -1.415176562636    -0.967705311500    -0.011412647992    12.000000000000
         C            1.415221437364    -0.967740311500    -0.011374647992    12.000000000000
         C           -2.701271562636    -0.148780311500    -0.011399647992    12.000000000000
         C            2.701250437364    -0.148759311500    -0.011344647992    12.000000000000
         H           -1.333060562636    -1.594989311500    -0.903985647992     1.007825032230
         H           -1.333068562636    -1.595031311500     0.881131352008     1.007825032230
         H            1.333057437364    -1.595035311500     0.881185352008     1.007825032230
         H            1.333085437364    -1.595012311500    -0.903953647992     1.007825032230
         H           -3.563192562636    -0.819747311500    -0.011431647992     1.007825032230
         H           -2.748018562636     0.484894688500     0.876122352008     1.007825032230
         H           -2.747999562636     0.484952688500    -0.898881647992     1.007825032230
         H            3.563238437364    -0.819639311500    -0.011358647992     1.007825032230
         H            2.747981437364     0.484977688500    -0.898830647992     1.007825032230
         H            2.747971437364     0.484931688500     0.876173352008     1.007825032230

  Basis Set: AUG-CC-PVTZ
    Blend: AUG-CC-PVTZ
  Basis Set: (AUG-CC-PVTZ AUX)
    Blend: AUG-CC-PVTZ-JKFIT
	 Reference Energy          =    -704.6253316182597928 [Eh]
	 Singles Energy            =      -0.0000000000000000 [Eh]
	 Same-Spin Energy          =      -0.3721889958154537 [Eh]
	 Opposite-Spin Energy      =      -1.1868870712023047 [Eh]
	 Correlation Energy        =      -1.5590760670177586 [Eh]
	 Total Energy              =    -706.1844076852775061 [Eh]

	 ================> DF-SCS-MP2 Energies <==================
	-----------------------------------------------------------
	 SCS Same-Spin Scale       =       0.3333333333333333 [-]
	 SCS Opposite-Spin Scale   =       1.2000000000000000 [-]
	 SCS Same-Spin Energy      =      -0.1240629986051512 [Eh]
	 SCS Opposite-Spin Energy  =      -1.4242644854427657 [Eh]
	 SCS Correlation Energy    =      -1.5483274840479169 [Eh]
	 SCS Total Energy          =    -706.1736591023077381 [Eh]
	-----------------------------------------------------------

  Dipole Moment: [D]
     X:     0.0002      Y:    -4.6768      Z:    -0.4527     Total:     4.6987

*** Psi4 exiting successfully. Buy a developer a beer!
