                               Psi4 1.3.2 release

  ==> Input File <==

--------------------------------------------------------------------------
#psi4
#
memory 32 gb

molecule  {
0 1
  S        0.0000110     0.1881670    -0.0000010
  O       -0.0000360     0.9194870     1.2797200
  O       -0.0000020     0.9195190    -1.2797030
  C       -1.4151770    -0.9160910    -0.0000330
  C        1.4152210    -0.9161260     0.0000050
  C       -2.7012720    -0.0971660    -0.0000200
  C        2.7012500    -0.0971450     0.0000350
  H       -1.3330610    -1.5433750    -0.8926060
  H       -1.3330690    -1.5434170     0.8925110
  H        1.3330570    -1.5434210     0.8925650
  H        1.3330850    -1.5433980    -0.8925740
  H       -3.5631930    -0.7681330    -0.0000520
  H       -2.7480190     0.5365090     0.8875020
  H       -2.7480000     0.5365670    -0.8875020
  H        3.5632380    -0.7680250     0.0000210
  H        2.7479810     0.5365920    -0.8874510
  H        2.7479710     0.5365460     0.8875530
units angstrom
no_reorient  #important for SAPT in psi4, default
symmetry c1  #important for SAPT in psi4, default
}

set PROPERTIES_ORIGIN ["COM"]
properties('MP2/aug-cc-pvtz', properties = ['dipole'])
--------------------------------------------------------------------------

    Molecular point group: c1
  Charge       = 0
  Multiplicity = 1
  Basis Set: AUG-CC-PVTZ
    Blend: AUG-CC-PVTZ
  Basis Set: (AUG-CC-PVTZ AUX)
    Blend: AUG-CC-PVTZ-JKFIT

    Orbital Energies [Eh]
    ---------------------

    Doubly Occupied:

       1A    -92.171400     2A    -20.537368     3A    -20.537348
       4A    -11.279828     5A    -11.279810     6A    -11.239103
       7A    -11.239101     8A     -9.142076     9A     -6.826498
      10A     -6.826024    11A     -6.825847    12A     -1.428203
      13A     -1.318698    14A     -1.094908    15A     -1.067461
      16A     -0.942945    17A     -0.871737    18A     -0.792943
      19A     -0.697080    20A     -0.673527    21A     -0.647141
      22A     -0.645456    23A     -0.606582    24A     -0.590986
      25A     -0.552892    26A     -0.548934    27A     -0.537827
      28A     -0.531628    29A     -0.522965    30A     -0.486040
      31A     -0.476661    32A     -0.458202    33A     -0.427204

  @DF-RHF Final Energy:  -704.64284964052536

   => Energetics <=

    Nuclear Repulsion Energy =            436.1670996930326396
    One-Electron Energy =               -1833.9710535145820813
    Two-Electron Energy =                 693.1611041810240295
    Total Energy =                       -704.6428496405253554
  Basis Set: (AUG-CC-PVTZ AUX)
    Blend: AUG-CC-PVTZ-RI
    Molecular point group: c1

    Geometry (in Angstrom), charge = 0, multiplicity = 1:

       Center              X                  Y                   Z               Mass
    ------------   -----------------  -----------------  -----------------  -----------------
         S            0.000011017963     0.143055562156    -0.000001415300    31.972071174400
         O           -0.000035982037     0.874375562156     1.279719584700    15.994914619570
         O           -0.000001982037     0.874407562156    -1.279703415300    15.994914619570
         C           -1.415176982037    -0.961202437844    -0.000033415300    12.000000000000
         C            1.415221017963    -0.961237437844     0.000004584700    12.000000000000
         C           -2.701271982037    -0.142277437844    -0.000020415300    12.000000000000
         C            2.701250017963    -0.142256437844     0.000034584700    12.000000000000
         H           -1.333060982037    -1.588486437844    -0.892606415300     1.007825032230
         H           -1.333068982037    -1.588528437844     0.892510584700     1.007825032230
         H            1.333057017963    -1.588532437844     0.892564584700     1.007825032230
         H            1.333085017963    -1.588509437844    -0.892574415300     1.007825032230
         H           -3.563192982037    -0.813244437844    -0.000052415300     1.007825032230
         H           -2.748018982037     0.491397562156     0.887501584700     1.007825032230
         H           -2.747999982037     0.491455562156    -0.887502415300     1.007825032230
         H            3.563238017963    -0.813136437844     0.000020584700     1.007825032230
         H            2.747981017963     0.491480562156    -0.887451415300     1.007825032230
         H            2.747971017963     0.491434562156     0.887552584700     1.007825032230

  Basis Set: AUG-CC-PVTZ
    Blend: AUG-CC-PVTZ
  Basis Set: (AUG-CC-PVTZ AUX)
    Blend: AUG-CC-PVTZ-JKFIT
	 Reference Energy          =    -704.6428496405253554 [Eh]
	 Singles Energy            =      -0.0000000000000000 [Eh]
	 Same-Spin Energy          =      -0.3706914648727996 [Eh]
	 Opposite-Spin Energy      =      -1.1825091788488409 [Eh]
	 Correlation Energy        =      -1.5532006437216404 [Eh]
	 Total Energy              =    -706.1960502842470078 [Eh]

	 ================> DF-SCS-MP2 Energies <==================
	-----------------------------------------------------------
	 SCS Same-Spin Scale       =       0.3333333333333333 [-]
	 SCS Opposite-Spin Scale   =       1.2000000000000000 [-]
	 SCS Same-Spin Energy      =      -0.1235638216242665 [Eh]
	 SCS Opposite-Spin Energy  =      -1.4190110146186090 [Eh]
	 SCS Correlation Energy    =      -1.5425748362428755 [Eh]
	 SCS Total Energy          =    -706.1854244767682758 [Eh]
	-----------------------------------------------------------

  Dipole Moment: [D]
     X:     0.0002      Y:    -4.3752      Z:    -0.0001     Total:     4.3752

*** Psi4 exiting successfully. Buy a developer a beer!
