                               Psi4 1.3.2 release

  ==> Input File <==

--------------------------------------------------------------------------
#psi4
#
memory 32 gb

molecule  {
0 1
  S        0.0000110     0.1881670    -0.0000010
  O       -0.0000360     0.9194870     1.2797200
  O       -0.0000020     0.9195190    -1.2797030
  C       -1.4940161    -0.9776084    -0.0000348
  C        1.4152210    -0.9161260     0.0000050
  C       -2.7012720    -0.0971660    -0.0000200
  C        2.7012500    -0.0971450     0.0000350
  H       -1.3330610    -1.5433750    -0.8926060
  H       -1.3330690    -1.5434170     0.8925110
  H        1.3330570    -1.5434210     0.8925650
  H        1.3330850    -1.5433980    -0.8925740
  H       -3.5631930    -0.7681330    -0.0000520
  H       -2.7480190     0.5365090     0.8875020
  H       -2.7480000     0.5365670    -0.8875020
  H        3.5632380    -0.7680250     0.0000210
  H        2.7479810     0.5365920    -0.8874510
  H        2.7479710     0.5365460     0.8875530
units angstrom
no_reorient  #important for SAPT in psi4, default
symmetry c1  #important for SAPT in psi4, default
}

set PROPERTIES_ORIGIN ["COM"]
properties('MP2/aug-cc-pvtz', properties = ['dipole'])
--------------------------------------------------------------------------

    Molecular point group: c1
  Charge       = 0
  Multiplicity = 1
  Basis Set: AUG-CC-PVTZ
    Blend: AUG-CC-PVTZ
  Basis Set: (AUG-CC-PVTZ AUX)
    Blend: AUG-CC-PVTZ-JKFIT

    Orbital Energies [Eh]
    ---------------------

    Doubly Occupied:

       1A    -92.167072     2A    -20.536743     3A    -20.536724
       4A    -11.282261     5A    -11.279133     6A    -11.238479
       7A    -11.237436     8A     -9.137610     9A     -6.821859
      10A     -6.821365    11A     -6.821331    12A     -1.424543
      13A     -1.317013    14A     -1.091724    15A     -1.069466
      16A     -0.937683    17A     -0.871029    18A     -0.793060
      19A     -0.690429    20A     -0.676008    21A     -0.652075
      22A     -0.642141    23A     -0.607271    24A     -0.589512
      25A     -0.564141    26A     -0.548486    27A     -0.540832
      28A     -0.534345    29A     -0.524948    30A     -0.485155
      31A     -0.471329    32A     -0.458215    33A     -0.411739

  @DF-RHF Final Energy:  -704.63597636129884

   => Energetics <=

    Nuclear Repulsion Energy =            434.1634888026940757
    One-Electron Energy =               -1830.0366169436376822
    Two-Electron Energy =                 691.2371517796448188
    Total Energy =                       -704.6359763612988445
  Basis Set: (AUG-CC-PVTZ AUX)
    Blend: AUG-CC-PVTZ-RI
    Molecular point group: c1

    Geometry (in Angstrom), charge = 0, multiplicity = 1:

       Center              X                  Y                   Z               Mass
    ------------   -----------------  -----------------  -----------------  -----------------
         S            0.007763132282     0.149104463240    -0.000001238309    31.972071174400
         O            0.007716132282     0.880424463240     1.279719761691    15.994914619570
         O            0.007750132282     0.880456463240    -1.279703238309    15.994914619570
         C           -1.486263967718    -1.016670936760    -0.000035038309    12.000000000000
         C            1.422973132282    -0.955188536760     0.000004761691    12.000000000000
         C           -2.693519867718    -0.136228536760    -0.000020238309    12.000000000000
         C            2.709002132282    -0.136207536760     0.000034761691    12.000000000000
         H           -1.325308867718    -1.582437536760    -0.892606238309     1.007825032230
         H           -1.325316867718    -1.582479536760     0.892510761691     1.007825032230
         H            1.340809132282    -1.582483536760     0.892564761691     1.007825032230
         H            1.340837132282    -1.582460536760    -0.892574238309     1.007825032230
         H           -3.555440867718    -0.807195536760    -0.000052238309     1.007825032230
         H           -2.740266867718     0.497446463240     0.887501761691     1.007825032230
         H           -2.740247867718     0.497504463240    -0.887502238309     1.007825032230
         H            3.570990132282    -0.807087536760     0.000020761691     1.007825032230
         H            2.755733132282     0.497529463240    -0.887451238309     1.007825032230
         H            2.755723132282     0.497483463240     0.887552761691     1.007825032230

  Basis Set: AUG-CC-PVTZ
    Blend: AUG-CC-PVTZ
  Basis Set: (AUG-CC-PVTZ AUX)
    Blend: AUG-CC-PVTZ-JKFIT
	 Reference Energy          =    -704.6359763612988445 [Eh]
	 Singles Energy            =      -0.0000000000000000 [Eh]
	 Same-Spin Energy          =      -0.3710000416819160 [Eh]
	 Opposite-Spin Energy      =      -1.1834381095651110 [Eh]
	 Correlation Energy        =      -1.5544381512470271 [Eh]
	 Total Energy              =    -706.1904145125458854 [Eh]

	 ================> DF-SCS-MP2 Energies <==================
	-----------------------------------------------------------
	 SCS Same-Spin Scale       =       0.3333333333333333 [-]
	 SCS Opposite-Spin Scale   =       1.2000000000000000 [-]
	 SCS Same-Spin Energy      =      -0.1236666805606387 [Eh]
	 SCS Opposite-Spin Energy  =      -1.4201257314781330 [Eh]
	 SCS Correlation Energy    =      -1.5437924120387718 [Eh]
	 SCS Total Energy          =    -706.1797687733376279 [Eh]
	-----------------------------------------------------------

  Dipole Moment: [D]
     X:     0.0490      Y:    -4.3253      Z:    -0.0001     Total:     4.3256

*** Psi4 exiting successfully. Buy a developer a beer!
