                               Psi4 1.3.2 release

  ==> Input File <==

--------------------------------------------------------------------------
#psi4
#
memory 32 gb

molecule  {
0 1
  S        0.0000110     0.1881670    -0.0000010
  O       -0.0000360     0.9194870     1.2797200
  O       -0.0000020     0.9195190    -1.2797030
  C       -1.3956895    -0.9406213    -0.0000330
  C        1.4152210    -0.9161260     0.0000050
  C       -2.7012720    -0.0971660    -0.0000200
  C        2.7012500    -0.0971450     0.0000350
  H       -1.3330610    -1.5433750    -0.8926060
  H       -1.3330690    -1.5434170     0.8925110
  H        1.3330570    -1.5434210     0.8925650
  H        1.3330850    -1.5433980    -0.8925740
  H       -3.5631930    -0.7681330    -0.0000520
  H       -2.7480190     0.5365090     0.8875020
  H       -2.7480000     0.5365670    -0.8875020
  H        3.5632380    -0.7680250     0.0000210
  H        2.7479810     0.5365920    -0.8874510
  H        2.7479710     0.5365460     0.8875530
units angstrom
no_reorient  #important for SAPT in psi4, default
symmetry c1  #important for SAPT in psi4, default
}

set PROPERTIES_ORIGIN ["COM"]
properties('MP2/aug-cc-pvtz', properties = ['dipole'])
--------------------------------------------------------------------------

    Molecular point group: c1
  Charge       = 0
  Multiplicity = 1
  Basis Set: AUG-CC-PVTZ
    Blend: AUG-CC-PVTZ
  Basis Set: (AUG-CC-PVTZ AUX)
    Blend: AUG-CC-PVTZ-JKFIT

    Orbital Energies [Eh]
    ---------------------

    Doubly Occupied:

       1A    -92.171680     2A    -20.538117     3A    -20.538097
       4A    -11.278750     5A    -11.278535     6A    -11.240874
       7A    -11.238400     8A     -9.142286     9A     -6.826764
      10A     -6.826196    11A     -6.826078    12A     -1.428501
      13A     -1.319151    14A     -1.093921    15A     -1.064494
      16A     -0.941886    17A     -0.872439    18A     -0.794420
      19A     -0.696587    20A     -0.675319    21A     -0.648101
      22A     -0.645988    23A     -0.606861    24A     -0.587791
      25A     -0.552149    26A     -0.548692    27A     -0.534450
      28A     -0.531893    29A     -0.524690    30A     -0.486509
      31A     -0.477769    32A     -0.459117    33A     -0.427177

  @DF-RHF Final Energy:  -704.64215745500815

   => Energetics <=

    Nuclear Repulsion Energy =            435.9933006737847450
    One-Electron Energy =               -1833.6235549607279154
    Two-Electron Energy =                 692.9880968319350814
    Total Energy =                       -704.6421574550081459
  Basis Set: (AUG-CC-PVTZ AUX)
    Blend: AUG-CC-PVTZ-RI
    Molecular point group: c1

    Geometry (in Angstrom), charge = 0, multiplicity = 1:

       Center              X                  Y                   Z               Mass
    ------------   -----------------  -----------------  -----------------  -----------------
         S           -0.001905154695     0.145467584742    -0.000001415300    31.972071174400
         O           -0.001952154695     0.876787584742     1.279719584700    15.994914619570
         O           -0.001918154695     0.876819584742    -1.279703415300    15.994914619570
         C           -1.397605654695    -0.983320715258    -0.000033415300    12.000000000000
         C            1.413304845305    -0.958825415258     0.000004584700    12.000000000000
         C           -2.703188154695    -0.139865415258    -0.000020415300    12.000000000000
         C            2.699333845305    -0.139844415258     0.000034584700    12.000000000000
         H           -1.334977154695    -1.586074415258    -0.892606415300     1.007825032230
         H           -1.334985154695    -1.586116415258     0.892510584700     1.007825032230
         H            1.331140845305    -1.586120415258     0.892564584700     1.007825032230
         H            1.331168845305    -1.586097415258    -0.892574415300     1.007825032230
         H           -3.565109154695    -0.810832415258    -0.000052415300     1.007825032230
         H           -2.749935154695     0.493809584742     0.887501584700     1.007825032230
         H           -2.749916154695     0.493867584742    -0.887502415300     1.007825032230
         H            3.561321845305    -0.810724415258     0.000020584700     1.007825032230
         H            2.746064845305     0.493892584742    -0.887451415300     1.007825032230
         H            2.746054845305     0.493846584742     0.887552584700     1.007825032230

  Basis Set: AUG-CC-PVTZ
    Blend: AUG-CC-PVTZ
  Basis Set: (AUG-CC-PVTZ AUX)
    Blend: AUG-CC-PVTZ-JKFIT
	 Reference Energy          =    -704.6421574550081459 [Eh]
	 Singles Energy            =      -0.0000000000000000 [Eh]
	 Same-Spin Energy          =      -0.3705698059776318 [Eh]
	 Opposite-Spin Energy      =      -1.1825037524467672 [Eh]
	 Correlation Energy        =      -1.5530735584243991 [Eh]
	 Total Energy              =    -706.1952310134325899 [Eh]

	 ================> DF-SCS-MP2 Energies <==================
	-----------------------------------------------------------
	 SCS Same-Spin Scale       =       0.3333333333333333 [-]
	 SCS Opposite-Spin Scale   =       1.2000000000000000 [-]
	 SCS Same-Spin Energy      =      -0.1235232686592106 [Eh]
	 SCS Opposite-Spin Energy  =      -1.4190045029361207 [Eh]
	 SCS Correlation Energy    =      -1.5425277715953314 [Eh]
	 SCS Total Energy          =    -706.1846852266035057 [Eh]
	-----------------------------------------------------------

  Dipole Moment: [D]
     X:    -0.0204      Y:    -4.3629      Z:    -0.0001     Total:     4.3630

*** Psi4 exiting successfully. Buy a developer a beer!
