                               Psi4 1.3.2 release

  ==> Input File <==

--------------------------------------------------------------------------
#psi4
#
memory 32 gb

molecule  {
0 1
  S        0.0735928     0.0867586    -0.0000030
  O       -0.0000360     0.9194870     1.2797200
  O       -0.0000020     0.9195190    -1.2797030
  C       -1.4151770    -0.9160910    -0.0000330
  C        1.4152210    -0.9161260     0.0000050
  C       -2.7012720    -0.0971660    -0.0000200
  C        2.7012500    -0.0971450     0.0000350
  H       -1.3330610    -1.5433750    -0.8926060
  H       -1.3330690    -1.5434170     0.8925110
  H        1.3330570    -1.5434210     0.8925650
  H        1.3330850    -1.5433980    -0.8925740
  H       -3.5631930    -0.7681330    -0.0000520
  H       -2.7480190     0.5365090     0.8875020
  H       -2.7480000     0.5365670    -0.8875020
  H        3.5632380    -0.7680250     0.0000210
  H        2.7479810     0.5365920    -0.8874510
  H        2.7479710     0.5365460     0.8875530
units angstrom
no_reorient  #important for SAPT in psi4, default
symmetry c1  #important for SAPT in psi4, default
}

set PROPERTIES_ORIGIN ["COM"]
properties('MP2/aug-cc-pvtz', properties = ['dipole'])
--------------------------------------------------------------------------

    Molecular point group: c1
  Charge       = 0
  Multiplicity = 1
  Basis Set: AUG-CC-PVTZ
    Blend: AUG-CC-PVTZ
  Basis Set: (AUG-CC-PVTZ AUX)
    Blend: AUG-CC-PVTZ-JKFIT

    Orbital Energies [Eh]
    ---------------------

    Doubly Occupied:

       1A    -92.171313     2A    -20.527588     3A    -20.527568
       4A    -11.289765     5A    -11.283768     6A    -11.249722
       7A    -11.238589     8A     -9.143789     9A     -6.828105
      10A     -6.827590    11A     -6.826895    12A     -1.394878
      13A     -1.279775    14A     -1.121941    15A     -1.073145
      16A     -0.959872    17A     -0.883519    18A     -0.794509
      19A     -0.698007    20A     -0.686938    21A     -0.651648
      22A     -0.633272    23A     -0.596812    24A     -0.587234
      25A     -0.555930    26A     -0.543863    27A     -0.543403
      28A     -0.535802    29A     -0.523930    30A     -0.468969
      31A     -0.464699    32A     -0.435619    33A     -0.432571

  @DF-RHF Final Energy:  -704.61822775639428

   => Energetics <=

    Nuclear Repulsion Energy =            435.5031451028327183
    One-Electron Energy =               -1832.6806968778557803
    Two-Electron Energy =                 692.5593240186286721
    Total Energy =                       -704.6182277563942762
  Basis Set: (AUG-CC-PVTZ AUX)
    Blend: AUG-CC-PVTZ-RI
    Molecular point group: c1

    Geometry (in Angstrom), charge = 0, multiplicity = 1:

       Center              X                  Y                   Z               Mass
    ------------   -----------------  -----------------  -----------------  -----------------
         S            0.054315862530     0.068214128543    -0.000002891340    31.972071174400
         O           -0.019312937470     0.900942528543     1.279720108660    15.994914619570
         O           -0.019278937470     0.900974528543    -1.279702891340    15.994914619570
         C           -1.434453937470    -0.934635471457    -0.000032891340    12.000000000000
         C            1.395944062530    -0.934670471457     0.000005108660    12.000000000000
         C           -2.720548937470    -0.115710471457    -0.000019891340    12.000000000000
         C            2.681973062530    -0.115689471457     0.000035108660    12.000000000000
         H           -1.352337937470    -1.561919471457    -0.892605891340     1.007825032230
         H           -1.352345937470    -1.561961471457     0.892511108660     1.007825032230
         H            1.313780062530    -1.561965471457     0.892565108660     1.007825032230
         H            1.313808062530    -1.561942471457    -0.892573891340     1.007825032230
         H           -3.582469937470    -0.786677471457    -0.000051891340     1.007825032230
         H           -2.767295937470     0.517964528543     0.887502108660     1.007825032230
         H           -2.767276937470     0.518022528543    -0.887501891340     1.007825032230
         H            3.543961062530    -0.786569471457     0.000021108660     1.007825032230
         H            2.728704062530     0.518047528543    -0.887450891340     1.007825032230
         H            2.728694062530     0.518001528543     0.887553108660     1.007825032230

  Basis Set: AUG-CC-PVTZ
    Blend: AUG-CC-PVTZ
  Basis Set: (AUG-CC-PVTZ AUX)
    Blend: AUG-CC-PVTZ-JKFIT
	 Reference Energy          =    -704.6182277563942762 [Eh]
	 Singles Energy            =      -0.0000000000000000 [Eh]
	 Same-Spin Energy          =      -0.3730506603277250 [Eh]
	 Opposite-Spin Energy      =      -1.1863462521710386 [Eh]
	 Correlation Energy        =      -1.5593969124987637 [Eh]
	 Total Energy              =    -706.1776246688930314 [Eh]

	 ================> DF-SCS-MP2 Energies <==================
	-----------------------------------------------------------
	 SCS Same-Spin Scale       =       0.3333333333333333 [-]
	 SCS Opposite-Spin Scale   =       1.2000000000000000 [-]
	 SCS Same-Spin Energy      =      -0.1243502201092417 [Eh]
	 SCS Opposite-Spin Energy  =      -1.4236155026052464 [Eh]
	 SCS Correlation Energy    =      -1.5479657227144881 [Eh]
	 SCS Total Energy          =    -706.1661934791087560 [Eh]
	-----------------------------------------------------------

  Dipole Moment: [D]
     X:     0.5820      Y:    -5.0778      Z:    -0.0001     Total:     5.1111

*** Psi4 exiting successfully. Buy a developer a beer!
