                               Psi4 1.3.2 release

  ==> Input File <==

--------------------------------------------------------------------------
#psi4
#
memory 32 gb

molecule  {
0 1
  S        0.0192347     0.1617545    -0.0534661
  O       -0.0000360     0.9194870     1.2797200
  O       -0.0000020     0.9195190    -1.2797030
  C       -1.4151770    -0.9160910    -0.0000330
  C        1.4152210    -0.9161260     0.0000050
  C       -2.7012720    -0.0971660    -0.0000200
  C        2.7012500    -0.0971450     0.0000350
  H       -1.3330610    -1.5433750    -0.8926060
  H       -1.3330690    -1.5434170     0.8925110
  H        1.3330570    -1.5434210     0.8925650
  H        1.3330850    -1.5433980    -0.8925740
  H       -3.5631930    -0.7681330    -0.0000520
  H       -2.7480190     0.5365090     0.8875020
  H       -2.7480000     0.5365670    -0.8875020
  H        3.5632380    -0.7680250     0.0000210
  H        2.7479810     0.5365920    -0.8874510
  H        2.7479710     0.5365460     0.8875530
units angstrom
no_reorient  #important for SAPT in psi4, default
symmetry c1  #important for SAPT in psi4, default
}

set PROPERTIES_ORIGIN ["COM"]
properties('MP2/aug-cc-pvtz', properties = ['dipole'])
--------------------------------------------------------------------------

    Molecular point group: c1
  Charge       = 0
  Multiplicity = 1
  Basis Set: AUG-CC-PVTZ
    Blend: AUG-CC-PVTZ
  Basis Set: (AUG-CC-PVTZ AUX)
    Blend: AUG-CC-PVTZ-JKFIT

    Orbital Energies [Eh]
    ---------------------

    Doubly Occupied:

       1A    -92.170845     2A    -20.544955     3A    -20.524471
       4A    -11.282787     5A    -11.280665     6A    -11.241792
       7A    -11.238890     8A     -9.142214     9A     -6.826540
      10A     -6.826277    11A     -6.825705    12A     -1.429992
      13A     -1.300083    14A     -1.100055    15A     -1.069898
      16A     -0.947135    17A     -0.875048    18A     -0.793290
      19A     -0.698428    20A     -0.676243    21A     -0.648345
      22A     -0.645184    23A     -0.603718    24A     -0.591180
      25A     -0.553714    26A     -0.549592    27A     -0.539865
      28A     -0.532129    29A     -0.524045    30A     -0.481371
      31A     -0.474708    32A     -0.447853    33A     -0.427686

  @DF-RHF Final Energy:  -704.63579711536954

   => Energetics <=

    Nuclear Repulsion Energy =            436.0419748290130997
    One-Electron Energy =               -1833.7261372726416084
    Two-Electron Energy =                 693.0483653282590240
    Total Energy =                       -704.6357971153695416
  Basis Set: (AUG-CC-PVTZ AUX)
    Blend: AUG-CC-PVTZ-RI
    Molecular point group: c1

    Geometry (in Angstrom), charge = 0, multiplicity = 1:

       Center              X                  Y                   Z               Mass
    ------------   -----------------  -----------------  -----------------  -----------------
         S            0.014198494221     0.123562607280    -0.039459731694    31.972071174400
         O           -0.005072205779     0.881295107280     1.293726368306    15.994914619570
         O           -0.005038205779     0.881327107280    -1.265696631694    15.994914619570
         C           -1.420213205779    -0.954282892720     0.013973368306    12.000000000000
         C            1.410184794221    -0.954317892720     0.014011368306    12.000000000000
         C           -2.706308205779    -0.135357892720     0.013986368306    12.000000000000
         C            2.696213794221    -0.135336892720     0.014041368306    12.000000000000
         H           -1.338097205779    -1.581566892720    -0.878599631694     1.007825032230
         H           -1.338105205779    -1.581608892720     0.906517368306     1.007825032230
         H            1.328020794221    -1.581612892720     0.906571368306     1.007825032230
         H            1.328048794221    -1.581589892720    -0.878567631694     1.007825032230
         H           -3.568229205779    -0.806324892720     0.013954368306     1.007825032230
         H           -2.753055205779     0.498317107280     0.901508368306     1.007825032230
         H           -2.753036205779     0.498375107280    -0.873495631694     1.007825032230
         H            3.558201794221    -0.806216892720     0.014027368306     1.007825032230
         H            2.742944794221     0.498400107280    -0.873444631694     1.007825032230
         H            2.742934794221     0.498354107280     0.901559368306     1.007825032230

  Basis Set: AUG-CC-PVTZ
    Blend: AUG-CC-PVTZ
  Basis Set: (AUG-CC-PVTZ AUX)
    Blend: AUG-CC-PVTZ-JKFIT
	 Reference Energy          =    -704.6357971153695416 [Eh]
	 Singles Energy            =      -0.0000000000000000 [Eh]
	 Same-Spin Energy          =      -0.3711043385810489 [Eh]
	 Opposite-Spin Energy      =      -1.1832078140446942 [Eh]
	 Correlation Energy        =      -1.5543121526257431 [Eh]
	 Total Energy              =    -706.1901092679952399 [Eh]

	 ================> DF-SCS-MP2 Energies <==================
	-----------------------------------------------------------
	 SCS Same-Spin Scale       =       0.3333333333333333 [-]
	 SCS Opposite-Spin Scale   =       1.2000000000000000 [-]
	 SCS Same-Spin Energy      =      -0.1237014461936830 [Eh]
	 SCS Opposite-Spin Energy  =      -1.4198493768536331 [Eh]
	 SCS Correlation Energy    =      -1.5435508230473161 [Eh]
	 SCS Total Energy          =    -706.1793479384168677 [Eh]
	-----------------------------------------------------------

  Dipole Moment: [D]
     X:     0.1563      Y:    -4.5650      Z:    -0.4494     Total:     4.5898

*** Psi4 exiting successfully. Buy a developer a beer!
