                               Psi4 1.3.2 release

  ==> Input File <==

--------------------------------------------------------------------------
#psi4
#
memory 32 gb

molecule  {
0 1
  S        0.0000110     0.1881670    -0.0000010
  O       -0.0000360     0.9194870     1.2797200
  O       -0.1275557     0.8404862    -1.3155691
  C       -1.4151770    -0.9160910    -0.0000330
  C        1.4152210    -0.9161260     0.0000050
  C       -2.7012720    -0.0971660    -0.0000200
  C        2.7012500    -0.0971450     0.0000350
  H       -1.3330610    -1.5433750    -0.8926060
  H       -1.3330690    -1.5434170     0.8925110
  H        1.3330570    -1.5434210     0.8925650
  H        1.3330850    -1.5433980    -0.8925740
  H       -3.5631930    -0.7681330    -0.0000520
  H       -2.7480190     0.5365090     0.8875020
  H       -2.7480000     0.5365670    -0.8875020
  H        3.5632380    -0.7680250     0.0000210
  H        2.7479810     0.5365920    -0.8874510
  H        2.7479710     0.5365460     0.8875530
units angstrom
no_reorient  #important for SAPT in psi4, default
symmetry c1  #important for SAPT in psi4, default
}

set PROPERTIES_ORIGIN ["COM"]
properties('MP2/aug-cc-pvtz', properties = ['dipole'])
--------------------------------------------------------------------------

    Molecular point group: c1
  Charge       = 0
  Multiplicity = 1
  Basis Set: AUG-CC-PVTZ
    Blend: AUG-CC-PVTZ
  Basis Set: (AUG-CC-PVTZ AUX)
    Blend: AUG-CC-PVTZ-JKFIT

    Orbital Energies [Eh]
    ---------------------

    Doubly Occupied:

       1A    -92.171982     2A    -20.542359     3A    -20.537715
       4A    -11.283205     5A    -11.272394     6A    -11.242428
       7A    -11.234451     8A     -9.142616     9A     -6.827026
      10A     -6.826628    11A     -6.826323    12A     -1.429427
      13A     -1.323395    14A     -1.093374    15A     -1.065332
      16A     -0.941833    17A     -0.870572    18A     -0.793327
      19A     -0.696993    20A     -0.673314    21A     -0.647270
      22A     -0.643896    23A     -0.608846    24A     -0.590893
      25A     -0.553712    26A     -0.547416    27A     -0.536036
      28A     -0.532722    29A     -0.520635    30A     -0.489464
      31A     -0.476340    32A     -0.461566    33A     -0.424850

  @DF-RHF Final Energy:  -704.63924234393073

   => Energetics <=

    Nuclear Repulsion Energy =            436.3939988994686132
    One-Electron Energy =               -1834.4097996062862421
    Two-Electron Energy =                 693.3765583628868399
    Total Energy =                       -704.6392423439307322
  Basis Set: (AUG-CC-PVTZ AUX)
    Blend: AUG-CC-PVTZ-RI
    Molecular point group: c1

    Geometry (in Angstrom), charge = 0, multiplicity = 1:

       Center              X                  Y                   Z               Mass
    ------------   -----------------  -----------------  -----------------  -----------------
         S            0.016728553369     0.153413816227     0.004699293473    31.972071174400
         O            0.016681553369     0.884733816227     1.284420293473    15.994914619570
         O           -0.110838146631     0.805733016227    -1.310868806527    15.994914619570
         C           -1.398459446631    -0.950844183773     0.004667293473    12.000000000000
         C            1.431938553369    -0.950879183773     0.004705293473    12.000000000000
         C           -2.684554446631    -0.131919183773     0.004680293473    12.000000000000
         C            2.717967553369    -0.131898183773     0.004735293473    12.000000000000
         H           -1.316343446631    -1.578128183773    -0.887905706527     1.007825032230
         H           -1.316351446631    -1.578170183773     0.897211293473     1.007825032230
         H            1.349774553369    -1.578174183773     0.897265293473     1.007825032230
         H            1.349802553369    -1.578151183773    -0.887873706527     1.007825032230
         H           -3.546475446631    -0.802886183773     0.004648293473     1.007825032230
         H           -2.731301446631     0.501755816227     0.892202293473     1.007825032230
         H           -2.731282446631     0.501813816227    -0.882801706527     1.007825032230
         H            3.579955553369    -0.802778183773     0.004721293473     1.007825032230
         H            2.764698553369     0.501838816227    -0.882750706527     1.007825032230
         H            2.764688553369     0.501792816227     0.892253293473     1.007825032230

  Basis Set: AUG-CC-PVTZ
    Blend: AUG-CC-PVTZ
  Basis Set: (AUG-CC-PVTZ AUX)
    Blend: AUG-CC-PVTZ-JKFIT
	 Reference Energy          =    -704.6392423439307322 [Eh]
	 Singles Energy            =      -0.0000000000000000 [Eh]
	 Same-Spin Energy          =      -0.3709867801237807 [Eh]
	 Opposite-Spin Energy      =      -1.1831967441438385 [Eh]
	 Correlation Energy        =      -1.5541835242676192 [Eh]
	 Total Energy              =    -706.1934258681983465 [Eh]

	 ================> DF-SCS-MP2 Energies <==================
	-----------------------------------------------------------
	 SCS Same-Spin Scale       =       0.3333333333333333 [-]
	 SCS Opposite-Spin Scale   =       1.2000000000000000 [-]
	 SCS Same-Spin Energy      =      -0.1236622600412602 [Eh]
	 SCS Opposite-Spin Energy  =      -1.4198360929726062 [Eh]
	 SCS Correlation Energy    =      -1.5434983530138664 [Eh]
	 SCS Total Energy          =    -706.1827406969446201 [Eh]
	-----------------------------------------------------------

  Dipole Moment: [D]
     X:     0.4182      Y:    -4.1757      Z:     0.0888     Total:     4.1975

*** Psi4 exiting successfully. Buy a developer a beer!
