                               Psi4 1.3.2 release

  ==> Input File <==

--------------------------------------------------------------------------
#psi4
#
memory 32 gb

molecule  {
0 1
  S       -0.0194765     0.2126973    -0.0000005
  O       -0.0000360     0.9194870     1.2797200
  O       -0.0000020     0.9195190    -1.2797030
  C       -1.4151770    -0.9160910    -0.0000330
  C        1.4152210    -0.9161260     0.0000050
  C       -2.7012720    -0.0971660    -0.0000200
  C        2.7012500    -0.0971450     0.0000350
  H       -1.3330610    -1.5433750    -0.8926060
  H       -1.3330690    -1.5434170     0.8925110
  H        1.3330570    -1.5434210     0.8925650
  H        1.3330850    -1.5433980    -0.8925740
  H       -3.5631930    -0.7681330    -0.0000520
  H       -2.7480190     0.5365090     0.8875020
  H       -2.7480000     0.5365670    -0.8875020
  H        3.5632380    -0.7680250     0.0000210
  H        2.7479810     0.5365920    -0.8874510
  H        2.7479710     0.5365460     0.8875530
units angstrom
no_reorient  #important for SAPT in psi4, default
symmetry c1  #important for SAPT in psi4, default
}

set PROPERTIES_ORIGIN ["COM"]
properties('MP2/aug-cc-pvtz', properties = ['dipole'])
--------------------------------------------------------------------------

    Molecular point group: c1
  Charge       = 0
  Multiplicity = 1
  Basis Set: AUG-CC-PVTZ
    Blend: AUG-CC-PVTZ
  Basis Set: (AUG-CC-PVTZ AUX)
    Blend: AUG-CC-PVTZ-JKFIT

    Orbital Energies [Eh]
    ---------------------

    Doubly Occupied:

       1A    -92.171032     2A    -20.539854     3A    -20.539835
       4A    -11.279248     5A    -11.276677     6A    -11.239405
       7A    -11.236431     8A     -9.141568     9A     -6.826002
      10A     -6.825506    11A     -6.825490    12A     -1.436233
      13A     -1.327864    14A     -1.091198    15A     -1.064036
      16A     -0.939095    17A     -0.868362    18A     -0.792962
      19A     -0.697208    20A     -0.671933    21A     -0.648738
      22A     -0.645135    23A     -0.611011    24A     -0.589467
      25A     -0.553370    26A     -0.549277    27A     -0.536200
      28A     -0.531608    29A     -0.521216    30A     -0.491189
      31A     -0.478497    32A     -0.463612    33A     -0.423031

  @DF-RHF Final Energy:  -704.64320357566521

   => Energetics <=

    Nuclear Repulsion Energy =            436.3019228760505257
    One-Electron Energy =               -1834.2256691880800190
    Two-Electron Energy =                 693.2805427363641684
    Total Energy =                       -704.6432035756652112
  Basis Set: (AUG-CC-PVTZ AUX)
    Blend: AUG-CC-PVTZ-RI
    Molecular point group: c1

    Geometry (in Angstrom), charge = 0, multiplicity = 1:

       Center              X                  Y                   Z               Mass
    ------------   -----------------  -----------------  -----------------  -----------------
         S           -0.014371147987     0.161159415673    -0.000001046290    31.972071174400
         O            0.005069352013     0.867949115673     1.279719453710    15.994914619570
         O            0.005103352013     0.867981115673    -1.279703546290    15.994914619570
         C           -1.410071647987    -0.967628884327    -0.000033546290    12.000000000000
         C            1.420326352013    -0.967663884327     0.000004453710    12.000000000000
         C           -2.696166647987    -0.148703884327    -0.000020546290    12.000000000000
         C            2.706355352013    -0.148682884327     0.000034453710    12.000000000000
         H           -1.327955647987    -1.594912884327    -0.892606546290     1.007825032230
         H           -1.327963647987    -1.594954884327     0.892510453710     1.007825032230
         H            1.338162352013    -1.594958884327     0.892564453710     1.007825032230
         H            1.338190352013    -1.594935884327    -0.892574546290     1.007825032230
         H           -3.558087647987    -0.819670884327    -0.000052546290     1.007825032230
         H           -2.742913647987     0.484971115673     0.887501453710     1.007825032230
         H           -2.742894647987     0.485029115673    -0.887502546290     1.007825032230
         H            3.568343352013    -0.819562884327     0.000020453710     1.007825032230
         H            2.753086352013     0.485054115673    -0.887451546290     1.007825032230
         H            2.753076352013     0.485008115673     0.887552453710     1.007825032230

  Basis Set: AUG-CC-PVTZ
    Blend: AUG-CC-PVTZ
  Basis Set: (AUG-CC-PVTZ AUX)
    Blend: AUG-CC-PVTZ-JKFIT
	 Reference Energy          =    -704.6432035756652112 [Eh]
	 Singles Energy            =      -0.0000000000000000 [Eh]
	 Same-Spin Energy          =      -0.3702827727862871 [Eh]
	 Opposite-Spin Energy      =      -1.1819566713605603 [Eh]
	 Correlation Energy        =      -1.5522394441468474 [Eh]
	 Total Energy              =    -706.1954430198120463 [Eh]

	 ================> DF-SCS-MP2 Energies <==================
	-----------------------------------------------------------
	 SCS Same-Spin Scale       =       0.3333333333333333 [-]
	 SCS Opposite-Spin Scale   =       1.2000000000000000 [-]
	 SCS Same-Spin Energy      =      -0.1234275909287623 [Eh]
	 SCS Opposite-Spin Energy  =      -1.4183480056326723 [Eh]
	 SCS Correlation Energy    =      -1.5417755965614346 [Eh]
	 SCS Total Energy          =    -706.1849791722266900 [Eh]
	-----------------------------------------------------------

  Dipole Moment: [D]
     X:    -0.1627      Y:    -4.1999      Z:    -0.0000     Total:     4.2031

*** Psi4 exiting successfully. Buy a developer a beer!
