                               Psi4 1.4a3.dev225

  ==> Input File <==

--------------------------------------------------------------------------
#psi4
#
memory 32 gb

molecule  {
0 1
  S        0.0000010    -0.1881120     0.0000010
  O        0.0000160    -0.9194390     1.2797270
  O       -0.0000150    -0.9194810    -1.2797010
  C        1.3994817     0.9038041    -0.0000336
  C       -1.4152530     0.9161080     0.0000010
  C        2.7011840     0.0971020    -0.0000240
  C       -2.7011840     0.0971000     0.0000310
  H        1.3332210     1.5433360    -0.8926410
  H        1.3332340     1.5433780     0.8925450
  H       -1.3332180     1.5433720     0.8925830
  H       -1.3332410     1.5433430    -0.8926030
  H        3.5632600     0.7678990    -0.0000510
  H        2.7479010    -0.5366180     0.8874790
  H        2.7478840    -0.5366650    -0.8874950
  H       -3.5632640     0.7678940     0.0000250
  H       -2.7479010    -0.5366620    -0.8874420
  H       -2.7478840    -0.5366250     0.8875310
units angstrom
no_reorient  #important for SAPT in psi4, default
symmetry c1  #important for SAPT in psi4, default
}

set PROPERTIES_ORIGIN ["COM"]
properties('MP2/aug-cc-pvtz', properties = ['dipole'])
--------------------------------------------------------------------------

    Molecular point group: c1
  Charge       = 0
  Multiplicity = 1
  Basis Set: AUG-CC-PVTZ
    Blend: AUG-CC-PVTZ
  Basis Set: (AUG-CC-PVTZ AUX)
    Blend: AUG-CC-PVTZ-JKFIT

    Orbital Energies [Eh]
    ---------------------

    Doubly Occupied:

       1A    -92.171909     2A    -20.537357     3A    -20.537338
       4A    -11.279818     5A    -11.279675     6A    -11.239726
       7A    -11.239116     8A     -9.142698     9A     -6.827161
      10A     -6.826674    11A     -6.826468    12A     -1.428898
      13A     -1.318917    14A     -1.095798    15A     -1.067189
      16A     -0.944072    17A     -0.872046    18A     -0.792717
      19A     -0.698405    20A     -0.673270    21A     -0.646095
      22A     -0.646064    23A     -0.606202    24A     -0.591300
      25A     -0.551902    26A     -0.549098    27A     -0.535822
      28A     -0.531261    29A     -0.522280    30A     -0.486028
      31A     -0.477805    32A     -0.458020    33A     -0.429629

  @DF-RHF Final Energy:  -704.64250696215049

   => Energetics <=

    Nuclear Repulsion Energy =            436.5868988077462518
    One-Electron Energy =               -1834.7972925820336059
    Two-Electron Energy =                 693.5678868121367486
    Total Energy =                       -704.6425069621504917
  Basis Set: (AUG-CC-PVTZ AUX)
    Blend: AUG-CC-PVTZ-RI
    Molecular point group: c1

    Geometry (in Angstrom), charge = 0, multiplicity = 1:

       Center              X                  Y                   Z               Mass
    ------------   -----------------  -----------------  -----------------  -----------------
         S            0.001551438069    -0.141798147717     0.000000417405    31.972071174400
         O            0.001566438069    -0.873125147717     1.279726417405    15.994914619570
         O            0.001535438069    -0.873167147717    -1.279701582595    15.994914619570
         C            1.401032138069     0.950117952283    -0.000034182595    12.000000000000
         C           -1.413702561931     0.962421852283     0.000000417405    12.000000000000
         C            2.702734438069     0.143415852283    -0.000024582595    12.000000000000
         C           -2.699633561931     0.143413852283     0.000030417405    12.000000000000
         H            1.334771438069     1.589649852283    -0.892641582595     1.007825032230
         H            1.334784438069     1.589691852283     0.892544417405     1.007825032230
         H           -1.331667561931     1.589685852283     0.892582417405     1.007825032230
         H           -1.331690561931     1.589656852283    -0.892603582595     1.007825032230
         H            3.564810438069     0.814212852283    -0.000051582595     1.007825032230
         H            2.749451438069    -0.490304147717     0.887478417405     1.007825032230
         H            2.749434438069    -0.490351147717    -0.887495582595     1.007825032230
         H           -3.561713561931     0.814207852283     0.000024417405     1.007825032230
         H           -2.746350561931    -0.490348147717    -0.887442582595     1.007825032230
         H           -2.746333561931    -0.490311147717     0.887530417405     1.007825032230

  Basis Set: AUG-CC-PVTZ
    Blend: AUG-CC-PVTZ
  Basis Set: (AUG-CC-PVTZ AUX)
    Blend: AUG-CC-PVTZ-JKFIT
	 Reference Energy          =    -704.6425069621504917 [Eh]
	 Singles Energy            =      -0.0000000000000000 [Eh]
	 Same-Spin Energy          =      -0.3707159383753304 [Eh]
	 Opposite-Spin Energy      =      -1.1824673394863243 [Eh]
	 Correlation Energy        =      -1.5531832778616548 [Eh]
	 Total Energy              =    -706.1956902400121407 [Eh]

	 ================> DF-SCS-MP2 Energies <==================
	-----------------------------------------------------------
	 SCS Same-Spin Scale       =       0.3333333333333333 [-]
	 SCS Opposite-Spin Scale   =       1.2000000000000000 [-]
	 SCS Same-Spin Energy      =      -0.1235719794584435 [Eh]
	 SCS Opposite-Spin Energy  =      -1.4189608073835891 [Eh]
	 SCS Correlation Energy    =      -1.5425327868420327 [Eh]
	 SCS Total Energy          =    -706.1850397489924944 [Eh]
	-----------------------------------------------------------

  Dipole Moment: [D]
     X:     0.0180      Y:     4.3867      Z:    -0.0001     Total:     4.3868

*** Psi4 exiting successfully. Buy a developer a beer!
