                               Psi4 1.3.2 release

  ==> Input File <==

--------------------------------------------------------------------------
#psi4
#
memory 32 gb

molecule  {
0 1
  S        0.0000110     0.1881670    -0.0000010
  O       -0.0000360     0.9194870     1.2797200
  O       -0.0000020     0.9195190    -1.2797030
  C       -1.4887588    -0.8146826    -0.0000328
  C        1.4152210    -0.9161260     0.0000050
  C       -2.7012720    -0.0971660    -0.0000200
  C        2.7012500    -0.0971450     0.0000350
  H       -1.3330610    -1.5433750    -0.8926060
  H       -1.3330690    -1.5434170     0.8925110
  H        1.3330570    -1.5434210     0.8925650
  H        1.3330850    -1.5433980    -0.8925740
  H       -3.5631930    -0.7681330    -0.0000520
  H       -2.7480190     0.5365090     0.8875020
  H       -2.7480000     0.5365670    -0.8875020
  H        3.5632380    -0.7680250     0.0000210
  H        2.7479810     0.5365920    -0.8874510
  H        2.7479710     0.5365460     0.8875530
units angstrom
no_reorient  #important for SAPT in psi4, default
symmetry c1  #important for SAPT in psi4, default
}

set PROPERTIES_ORIGIN ["COM"]
properties('MP2/aug-cc-pvtz', properties = ['dipole'])
--------------------------------------------------------------------------

    Molecular point group: c1
  Charge       = 0
  Multiplicity = 1
  Basis Set: AUG-CC-PVTZ
    Blend: AUG-CC-PVTZ
  Basis Set: (AUG-CC-PVTZ AUX)
    Blend: AUG-CC-PVTZ-JKFIT

    Orbital Energies [Eh]
    ---------------------

    Doubly Occupied:

       1A    -92.171027     2A    -20.534498     3A    -20.534478
       4A    -11.286387     5A    -11.284214     6A    -11.241900
       7A    -11.232029     8A     -9.141846     9A     -6.826050
      10A     -6.825957    11A     -6.825532    12A     -1.427202
      13A     -1.317034    14A     -1.104231    15A     -1.079245
      16A     -0.947034    17A     -0.869403    18A     -0.786048
      19A     -0.699128    20A     -0.670230    21A     -0.645122
      22A     -0.644910    23A     -0.609597    24A     -0.606526
      25A     -0.561504    26A     -0.549265    27A     -0.547874
      28A     -0.530338    29A     -0.502959    30A     -0.482936
      31A     -0.472328    32A     -0.453248    33A     -0.425838

  @DF-RHF Final Energy:  -704.62489952779015

   => Energetics <=

    Nuclear Repulsion Energy =            436.9576760301738432
    One-Electron Energy =               -1835.4933134658285780
    Two-Electron Energy =                 693.9107379078645863
    Total Energy =                       -704.6248995277901486
  Basis Set: (AUG-CC-PVTZ AUX)
    Blend: AUG-CC-PVTZ-RI
    Molecular point group: c1

    Geometry (in Angstrom), charge = 0, multiplicity = 1:

       Center              X                  Y                   Z               Mass
    ------------   -----------------  -----------------  -----------------  -----------------
         S            0.007246190934     0.133084247039    -0.000001434965    31.972071174400
         O            0.007199190934     0.864404247039     1.279719565035    15.994914619570
         O            0.007233190934     0.864436247039    -1.279703434965    15.994914619570
         C           -1.481523609066    -0.869765352961    -0.000033234965    12.000000000000
         C            1.422456190934    -0.971208752961     0.000004565035    12.000000000000
         C           -2.694036809066    -0.152248752961    -0.000020434965    12.000000000000
         C            2.708485190934    -0.152227752961     0.000034565035    12.000000000000
         H           -1.325825809066    -1.598457752961    -0.892606434965     1.007825032230
         H           -1.325833809066    -1.598499752961     0.892510565035     1.007825032230
         H            1.340292190934    -1.598503752961     0.892564565035     1.007825032230
         H            1.340320190934    -1.598480752961    -0.892574434965     1.007825032230
         H           -3.555957809066    -0.823215752961    -0.000052434965     1.007825032230
         H           -2.740783809066     0.481426247039     0.887501565035     1.007825032230
         H           -2.740764809066     0.481484247039    -0.887502434965     1.007825032230
         H            3.570473190934    -0.823107752961     0.000020565035     1.007825032230
         H            2.755216190934     0.481509247039    -0.887451434965     1.007825032230
         H            2.755206190934     0.481463247039     0.887552565035     1.007825032230

  Basis Set: AUG-CC-PVTZ
    Blend: AUG-CC-PVTZ
  Basis Set: (AUG-CC-PVTZ AUX)
    Blend: AUG-CC-PVTZ-JKFIT
	 Reference Energy          =    -704.6248995277901486 [Eh]
	 Singles Energy            =      -0.0000000000000000 [Eh]
	 Same-Spin Energy          =      -0.3718615433842516 [Eh]
	 Opposite-Spin Energy      =      -1.1838805061567115 [Eh]
	 Correlation Energy        =      -1.5557420495409631 [Eh]
	 Total Energy              =    -706.1806415773311301 [Eh]

	 ================> DF-SCS-MP2 Energies <==================
	-----------------------------------------------------------
	 SCS Same-Spin Scale       =       0.3333333333333333 [-]
	 SCS Opposite-Spin Scale   =       1.2000000000000000 [-]
	 SCS Same-Spin Energy      =      -0.1239538477947505 [Eh]
	 SCS Opposite-Spin Energy  =      -1.4206566073880538 [Eh]
	 SCS Correlation Energy    =      -1.5446104551828044 [Eh]
	 SCS Total Energy          =    -706.1695099829729543 [Eh]
	-----------------------------------------------------------

  Dipole Moment: [D]
     X:     0.0597      Y:    -4.3909      Z:    -0.0001     Total:     4.3913

*** Psi4 exiting successfully. Buy a developer a beer!
