                               Psi4 1.3.2 release

  ==> Input File <==

--------------------------------------------------------------------------
#psi4
#
memory 32 gb

molecule  {
0 1
  S        0.0376870     0.1381050    -0.0000020
  O       -0.0000360     0.9194870     1.2797200
  O       -0.0000020     0.9195190    -1.2797030
  C       -1.4151770    -0.9160910    -0.0000330
  C        1.4152210    -0.9161260     0.0000050
  C       -2.7012720    -0.0971660    -0.0000200
  C        2.7012500    -0.0971450     0.0000350
  H       -1.3330610    -1.5433750    -0.8926060
  H       -1.3330690    -1.5434170     0.8925110
  H        1.3330570    -1.5434210     0.8925650
  H        1.3330850    -1.5433980    -0.8925740
  H       -3.5631930    -0.7681330    -0.0000520
  H       -2.7480190     0.5365090     0.8875020
  H       -2.7480000     0.5365670    -0.8875020
  H        3.5632380    -0.7680250     0.0000210
  H        2.7479810     0.5365920    -0.8874510
  H        2.7479710     0.5365460     0.8875530
units angstrom
no_reorient  #important for SAPT in psi4, default
symmetry c1  #important for SAPT in psi4, default
}

set PROPERTIES_ORIGIN ["COM"]
properties('MP2/aug-cc-pvtz', properties = ['dipole'])
--------------------------------------------------------------------------

    Molecular point group: c1
  Charge       = 0
  Multiplicity = 1
  Basis Set: AUG-CC-PVTZ
    Blend: AUG-CC-PVTZ
  Basis Set: (AUG-CC-PVTZ AUX)
    Blend: AUG-CC-PVTZ-JKFIT

    Orbital Energies [Eh]
    ---------------------

    Doubly Occupied:

       1A    -92.171829     2A    -20.532467     3A    -20.532447
       4A    -11.285287     5A    -11.281501     6A    -11.244412
       7A    -11.238728     8A     -9.143129     9A     -6.827505
      10A     -6.827045    11A     -6.826579    12A     -1.411658
      13A     -1.299609    14A     -1.106563    15A     -1.071421
      16A     -0.951207    17A     -0.877957    18A     -0.793442
      19A     -0.697310    20A     -0.678976    21A     -0.649992
      22A     -0.638954    23A     -0.597002    24A     -0.594139
      25A     -0.553740    26A     -0.546988    27A     -0.540552
      28A     -0.533273    29A     -0.524504    30A     -0.475464
      31A     -0.472981    32A     -0.447030    33A     -0.432088

  @DF-RHF Final Energy:  -704.63530421295263

   => Energetics <=

    Nuclear Repulsion Energy =            435.8538952160883468
    One-Electron Energy =               -1833.3668430202717445
    Two-Electron Energy =                 692.8776435912307079
    Total Energy =                       -704.6353042129526330
  Basis Set: (AUG-CC-PVTZ AUX)
    Blend: AUG-CC-PVTZ-RI
    Molecular point group: c1

    Geometry (in Angstrom), charge = 0, multiplicity = 1:

       Center              X                  Y                   Z               Mass
    ------------   -----------------  -----------------  -----------------  -----------------
         S            0.027816661803     0.106108801833    -0.000002153320    31.972071174400
         O           -0.009906338197     0.887490801833     1.279719846680    15.994914619570
         O           -0.009872338197     0.887522801833    -1.279703153320    15.994914619570
         C           -1.425047338197    -0.948087198167    -0.000033153320    12.000000000000
         C            1.405350661803    -0.948122198167     0.000004846680    12.000000000000
         C           -2.711142338197    -0.129162198167    -0.000020153320    12.000000000000
         C            2.691379661803    -0.129141198167     0.000034846680    12.000000000000
         H           -1.342931338197    -1.575371198167    -0.892606153320     1.007825032230
         H           -1.342939338197    -1.575413198167     0.892510846680     1.007825032230
         H            1.323186661803    -1.575417198167     0.892564846680     1.007825032230
         H            1.323214661803    -1.575394198167    -0.892574153320     1.007825032230
         H           -3.573063338197    -0.800129198167    -0.000052153320     1.007825032230
         H           -2.757889338197     0.504512801833     0.887501846680     1.007825032230
         H           -2.757870338197     0.504570801833    -0.887502153320     1.007825032230
         H            3.553367661803    -0.800021198167     0.000020846680     1.007825032230
         H            2.738110661803     0.504595801833    -0.887451153320     1.007825032230
         H            2.738100661803     0.504549801833     0.887552846680     1.007825032230

  Basis Set: AUG-CC-PVTZ
    Blend: AUG-CC-PVTZ
  Basis Set: (AUG-CC-PVTZ AUX)
    Blend: AUG-CC-PVTZ-JKFIT
	 Reference Energy          =    -704.6353042129526330 [Eh]
	 Singles Energy            =      -0.0000000000000000 [Eh]
	 Same-Spin Energy          =      -0.3717472527994712 [Eh]
	 Opposite-Spin Energy      =      -1.1841352690961842 [Eh]
	 Correlation Energy        =      -1.5558825218956553 [Eh]
	 Total Energy              =    -706.1911867348483156 [Eh]

	 ================> DF-SCS-MP2 Energies <==================
	-----------------------------------------------------------
	 SCS Same-Spin Scale       =       0.3333333333333333 [-]
	 SCS Opposite-Spin Scale   =       1.2000000000000000 [-]
	 SCS Same-Spin Energy      =      -0.1239157509331571 [Eh]
	 SCS Opposite-Spin Energy  =      -1.4209623229154209 [Eh]
	 SCS Correlation Energy    =      -1.5448780738485779 [Eh]
	 SCS Total Energy          =    -706.1801822868012550 [Eh]
	-----------------------------------------------------------

  Dipole Moment: [D]
     X:     0.3032      Y:    -4.7256      Z:    -0.0001     Total:     4.7353

*** Psi4 exiting successfully. Buy a developer a beer!
