                               Psi4 1.3.2 release

  ==> Input File <==

--------------------------------------------------------------------------
#psi4
#
memory 32 gb

molecule  {
0 1
  S        0.0000110     0.1881670    -0.0000010
  O       -0.0000313     0.7817135     1.3491533
  O       -0.0000020     0.9195190    -1.2797030
  C       -1.4151770    -0.9160910    -0.0000330
  C        1.4152210    -0.9161260     0.0000050
  C       -2.7012720    -0.0971660    -0.0000200
  C        2.7012500    -0.0971450     0.0000350
  H       -1.3330610    -1.5433750    -0.8926060
  H       -1.3330690    -1.5434170     0.8925110
  H        1.3330570    -1.5434210     0.8925650
  H        1.3330850    -1.5433980    -0.8925740
  H       -3.5631930    -0.7681330    -0.0000520
  H       -2.7480190     0.5365090     0.8875020
  H       -2.7480000     0.5365670    -0.8875020
  H        3.5632380    -0.7680250     0.0000210
  H        2.7479810     0.5365920    -0.8874510
  H        2.7479710     0.5365460     0.8875530
units angstrom
no_reorient  #important for SAPT in psi4, default
symmetry c1  #important for SAPT in psi4, default
}

set PROPERTIES_ORIGIN ["COM"]
properties('MP2/aug-cc-pvtz', properties = ['dipole'])
--------------------------------------------------------------------------

    Molecular point group: c1
  Charge       = 0
  Multiplicity = 1
  Basis Set: AUG-CC-PVTZ
    Blend: AUG-CC-PVTZ
  Basis Set: (AUG-CC-PVTZ AUX)
    Blend: AUG-CC-PVTZ-JKFIT

    Orbital Energies [Eh]
    ---------------------

    Doubly Occupied:

       1A    -92.172506     2A    -20.546076     3A    -20.538258
       4A    -11.276299     5A    -11.276283     6A    -11.238189
       7A    -11.238188     8A     -9.143045     9A     -6.827419
      10A     -6.827130    11A     -6.826727    12A     -1.430230
      13A     -1.326865    14A     -1.090728    15A     -1.065659
      16A     -0.940609    17A     -0.870166    18A     -0.793597
      19A     -0.696934    20A     -0.672431    21A     -0.645964
      22A     -0.644953    23A     -0.610384    24A     -0.590206
      25A     -0.551373    26A     -0.548809    27A     -0.536186
      28A     -0.531434    29A     -0.521521    30A     -0.492485
      31A     -0.476052    32A     -0.463670    33A     -0.424316

  @DF-RHF Final Energy:  -704.63863609826490

   => Energetics <=

    Nuclear Repulsion Energy =            436.4480752334292220
    One-Electron Energy =               -1834.5040376161389304
    Two-Electron Energy =                 693.4173262844449255
    Total Energy =                       -704.6386360982648966
  Basis Set: (AUG-CC-PVTZ AUX)
    Blend: AUG-CC-PVTZ-RI
    Molecular point group: c1

    Geometry (in Angstrom), charge = 0, multiplicity = 1:

       Center              X                  Y                   Z               Mass
    ------------   -----------------  -----------------  -----------------  -----------------
         S            0.000010401968     0.161112532391    -0.009101532749    31.972071174400
         O           -0.000031898032     0.754659032391     1.340052767251    15.994914619570
         O           -0.000002598032     0.892464532391    -1.288803532749    15.994914619570
         C           -1.415177598032    -0.943145467609    -0.009133532749    12.000000000000
         C            1.415220401968    -0.943180467609    -0.009095532749    12.000000000000
         C           -2.701272598032    -0.124220467609    -0.009120532749    12.000000000000
         C            2.701249401968    -0.124199467609    -0.009065532749    12.000000000000
         H           -1.333061598032    -1.570429467609    -0.901706532749     1.007825032230
         H           -1.333069598032    -1.570471467609     0.883410467251     1.007825032230
         H            1.333056401968    -1.570475467609     0.883464467251     1.007825032230
         H            1.333084401968    -1.570452467609    -0.901674532749     1.007825032230
         H           -3.563193598032    -0.795187467609    -0.009152532749     1.007825032230
         H           -2.748019598032     0.509454532391     0.878401467251     1.007825032230
         H           -2.748000598032     0.509512532391    -0.896602532749     1.007825032230
         H            3.563237401968    -0.795079467609    -0.009079532749     1.007825032230
         H            2.747980401968     0.509537532391    -0.896551532749     1.007825032230
         H            2.747970401968     0.509491532391     0.878452467251     1.007825032230

  Basis Set: AUG-CC-PVTZ
    Blend: AUG-CC-PVTZ
  Basis Set: (AUG-CC-PVTZ AUX)
    Blend: AUG-CC-PVTZ-JKFIT
	 Reference Energy          =    -704.6386360982648966 [Eh]
	 Singles Energy            =      -0.0000000000000000 [Eh]
	 Same-Spin Energy          =      -0.3710868594263756 [Eh]
	 Opposite-Spin Energy      =      -1.1835079536555781 [Eh]
	 Correlation Energy        =      -1.5545948130819538 [Eh]
	 Total Energy              =    -706.1932309113468591 [Eh]

	 ================> DF-SCS-MP2 Energies <==================
	-----------------------------------------------------------
	 SCS Same-Spin Scale       =       0.3333333333333333 [-]
	 SCS Opposite-Spin Scale   =       1.2000000000000000 [-]
	 SCS Same-Spin Energy      =      -0.1236956198087919 [Eh]
	 SCS Opposite-Spin Energy  =      -1.4202095443866938 [Eh]
	 SCS Correlation Energy    =      -1.5439051641954857 [Eh]
	 SCS Total Energy          =    -706.1825412624604041 [Eh]
	-----------------------------------------------------------

  Dipole Moment: [D]
     X:     0.0001      Y:    -4.0359      Z:    -0.1731     Total:     4.0397

*** Psi4 exiting successfully. Buy a developer a beer!
