                               Psi4 1.3.2 release

  ==> Input File <==

--------------------------------------------------------------------------
#psi4
#
memory 32 gb

molecule  {
0 1
  S        0.0000110     0.1881670    -0.0000010
  O       -0.0000360     0.9194870     1.2797200
  O        0.0425851     0.9441230    -1.2646081
  C       -1.4151770    -0.9160910    -0.0000330
  C        1.4152210    -0.9161260     0.0000050
  C       -2.7012720    -0.0971660    -0.0000200
  C        2.7012500    -0.0971450     0.0000350
  H       -1.3330610    -1.5433750    -0.8926060
  H       -1.3330690    -1.5434170     0.8925110
  H        1.3330570    -1.5434210     0.8925650
  H        1.3330850    -1.5433980    -0.8925740
  H       -3.5631930    -0.7681330    -0.0000520
  H       -2.7480190     0.5365090     0.8875020
  H       -2.7480000     0.5365670    -0.8875020
  H        3.5632380    -0.7680250     0.0000210
  H        2.7479810     0.5365920    -0.8874510
  H        2.7479710     0.5365460     0.8875530
units angstrom
no_reorient  #important for SAPT in psi4, default
symmetry c1  #important for SAPT in psi4, default
}

set PROPERTIES_ORIGIN ["COM"]
properties('MP2/aug-cc-pvtz', properties = ['dipole'])
--------------------------------------------------------------------------

    Molecular point group: c1
  Charge       = 0
  Multiplicity = 1
  Basis Set: AUG-CC-PVTZ
    Blend: AUG-CC-PVTZ
  Basis Set: (AUG-CC-PVTZ AUX)
    Blend: AUG-CC-PVTZ-JKFIT

    Orbital Energies [Eh]
    ---------------------

    Doubly Occupied:

       1A    -92.171135     2A    -20.537092     3A    -20.535643
       4A    -11.282200     5A    -11.278706     6A    -11.240563
       7A    -11.237939     8A     -9.141855     9A     -6.826284
      10A     -6.825776    11A     -6.825637    12A     -1.427855
      13A     -1.317030    14A     -1.095724    15A     -1.067674
      16A     -0.943374    17A     -0.871992    18A     -0.792860
      19A     -0.697084    20A     -0.673766    21A     -0.647437
      22A     -0.645394    23A     -0.605769    24A     -0.591176
      25A     -0.553369    26A     -0.548753    27A     -0.538031
      28A     -0.531872    29A     -0.523024    30A     -0.484698
      31A     -0.476743    32A     -0.456828    33A     -0.427594

  @DF-RHF Final Energy:  -704.64282547105290

   => Energetics <=

    Nuclear Repulsion Energy =            436.1383088793085676
    One-Electron Energy =               -1833.9205156592524872
    Two-Electron Energy =                 693.1393813088909610
    Total Energy =                       -704.6428254710529018
  Basis Set: (AUG-CC-PVTZ AUX)
    Blend: AUG-CC-PVTZ-RI
    Molecular point group: c1

    Geometry (in Angstrom), charge = 0, multiplicity = 1:

       Center              X                  Y                   Z               Mass
    ------------   -----------------  -----------------  -----------------  -----------------
         S           -0.005570563379     0.139830894890    -0.001979794016    31.972071174400
         O           -0.005617563379     0.871150894890     1.277741205984    15.994914619570
         O            0.037003536621     0.895786894890    -1.266586894016    15.994914619570
         C           -1.420758563379    -0.964427105110    -0.002011794016    12.000000000000
         C            1.409639436621    -0.964462105110    -0.001973794016    12.000000000000
         C           -2.706853563379    -0.145502105110    -0.001998794016    12.000000000000
         C            2.695668436621    -0.145481105110    -0.001943794016    12.000000000000
         H           -1.338642563379    -1.591711105110    -0.894584794016     1.007825032230
         H           -1.338650563379    -1.591753105110     0.890532205984     1.007825032230
         H            1.327475436621    -1.591757105110     0.890586205984     1.007825032230
         H            1.327503436621    -1.591734105110    -0.894552794016     1.007825032230
         H           -3.568774563379    -0.816469105110    -0.002030794016     1.007825032230
         H           -2.753600563379     0.488172894890     0.885523205984     1.007825032230
         H           -2.753581563379     0.488230894890    -0.889480794016     1.007825032230
         H            3.557656436621    -0.816361105110    -0.001957794016     1.007825032230
         H            2.742399436621     0.488255894890    -0.889429794016     1.007825032230
         H            2.742389436621     0.488209894890     0.885574205984     1.007825032230

  Basis Set: AUG-CC-PVTZ
    Blend: AUG-CC-PVTZ
  Basis Set: (AUG-CC-PVTZ AUX)
    Blend: AUG-CC-PVTZ-JKFIT
	 Reference Energy          =    -704.6428254710529018 [Eh]
	 Singles Energy            =      -0.0000000000000000 [Eh]
	 Same-Spin Energy          =      -0.3706546214662313 [Eh]
	 Opposite-Spin Energy      =      -1.1824014962699865 [Eh]
	 Correlation Energy        =      -1.5530561177362179 [Eh]
	 Total Energy              =    -706.1958815887891205 [Eh]

	 ================> DF-SCS-MP2 Energies <==================
	-----------------------------------------------------------
	 SCS Same-Spin Scale       =       0.3333333333333333 [-]
	 SCS Opposite-Spin Scale   =       1.2000000000000000 [-]
	 SCS Same-Spin Energy      =      -0.1235515404887438 [Eh]
	 SCS Opposite-Spin Energy  =      -1.4188817955239836 [Eh]
	 SCS Correlation Energy    =      -1.5424333360127274 [Eh]
	 SCS Total Energy          =    -706.1852588070656793 [Eh]
	-----------------------------------------------------------

  Dipole Moment: [D]
     X:    -0.1371      Y:    -4.4352      Z:    -0.0374     Total:     4.4375

*** Psi4 exiting successfully. Buy a developer a beer!
