                               Psi4 1.3.2 release

  ==> Input File <==

--------------------------------------------------------------------------
#psi4
#
memory 32 gb

molecule  {
0 1
  S        0.0000110     0.1881670    -0.0000010
  O       -0.0000329     0.8284367     1.3276170
  O       -0.0000020     0.9195190    -1.2797030
  C       -1.4151770    -0.9160910    -0.0000330
  C        1.4152210    -0.9161260     0.0000050
  C       -2.7012720    -0.0971660    -0.0000200
  C        2.7012500    -0.0971450     0.0000350
  H       -1.3330610    -1.5433750    -0.8926060
  H       -1.3330690    -1.5434170     0.8925110
  H        1.3330570    -1.5434210     0.8925650
  H        1.3330850    -1.5433980    -0.8925740
  H       -3.5631930    -0.7681330    -0.0000520
  H       -2.7480190     0.5365090     0.8875020
  H       -2.7480000     0.5365670    -0.8875020
  H        3.5632380    -0.7680250     0.0000210
  H        2.7479810     0.5365920    -0.8874510
  H        2.7479710     0.5365460     0.8875530
units angstrom
no_reorient  #important for SAPT in psi4, default
symmetry c1  #important for SAPT in psi4, default
}

set PROPERTIES_ORIGIN ["COM"]
properties('MP2/aug-cc-pvtz', properties = ['dipole'])
--------------------------------------------------------------------------

    Molecular point group: c1
  Charge       = 0
  Multiplicity = 1
  Basis Set: AUG-CC-PVTZ
    Blend: AUG-CC-PVTZ
  Basis Set: (AUG-CC-PVTZ AUX)
    Blend: AUG-CC-PVTZ-JKFIT

    Orbital Energies [Eh]
    ---------------------

    Doubly Occupied:

       1A    -92.172186     2A    -20.543259     3A    -20.538032
       4A    -11.277492     5A    -11.277475     6A    -11.238498
       7A    -11.238496     8A     -9.142758     9A     -6.827152
      10A     -6.826798    11A     -6.826471    12A     -1.429537
      13A     -1.324273    14A     -1.092161    15A     -1.066268
      16A     -0.941412    17A     -0.870696    18A     -0.793343
      19A     -0.697002    20A     -0.672807    21A     -0.646342
      22A     -0.645155    23A     -0.609215    24A     -0.590457
      25A     -0.551907    26A     -0.548850    27A     -0.536742
      28A     -0.531465    29A     -0.521992    30A     -0.490451
      31A     -0.476256    32A     -0.462225    33A     -0.425349

  @DF-RHF Final Energy:  -704.64065001328436

   => Energetics <=

    Nuclear Repulsion Energy =            436.3399831091320493
    One-Electron Energy =               -1834.2962174892472831
    Two-Electron Energy =                 693.3155843668309899
    Total Energy =                       -704.6406500132843576
  Basis Set: (AUG-CC-PVTZ AUX)
    Blend: AUG-CC-PVTZ-RI
    Molecular point group: c1

    Geometry (in Angstrom), charge = 0, multiplicity = 1:

       Center              X                  Y                   Z               Mass
    ------------   -----------------  -----------------  -----------------  -----------------
         S            0.000010611669     0.154988862515    -0.006278926602    31.972071174400
         O           -0.000033288331     0.795258562515     1.321339073398    15.994914619570
         O           -0.000002388331     0.886340862515    -1.285980926602    15.994914619570
         C           -1.415177388331    -0.949269137485    -0.006310926602    12.000000000000
         C            1.415220611669    -0.949304137485    -0.006272926602    12.000000000000
         C           -2.701272388331    -0.130344137485    -0.006297926602    12.000000000000
         C            2.701249611669    -0.130323137485    -0.006242926602    12.000000000000
         H           -1.333061388331    -1.576553137485    -0.898883926602     1.007825032230
         H           -1.333069388331    -1.576595137485     0.886233073398     1.007825032230
         H            1.333056611669    -1.576599137485     0.886287073398     1.007825032230
         H            1.333084611669    -1.576576137485    -0.898851926602     1.007825032230
         H           -3.563193388331    -0.801311137485    -0.006329926602     1.007825032230
         H           -2.748019388331     0.503330862515     0.881224073398     1.007825032230
         H           -2.748000388331     0.503388862515    -0.893779926602     1.007825032230
         H            3.563237611669    -0.801203137485    -0.006256926602     1.007825032230
         H            2.747980611669     0.503413862515    -0.893728926602     1.007825032230
         H            2.747970611669     0.503367862515     0.881275073398     1.007825032230

  Basis Set: AUG-CC-PVTZ
    Blend: AUG-CC-PVTZ
  Basis Set: (AUG-CC-PVTZ AUX)
    Blend: AUG-CC-PVTZ-JKFIT
	 Reference Energy          =    -704.6406500132843576 [Eh]
	 Singles Energy            =      -0.0000000000000000 [Eh]
	 Same-Spin Energy          =      -0.3709293522799202 [Eh]
	 Opposite-Spin Energy      =      -1.1831169965960728 [Eh]
	 Correlation Energy        =      -1.5540463488759930 [Eh]
	 Total Energy              =    -706.1946963621603572 [Eh]

	 ================> DF-SCS-MP2 Energies <==================
	-----------------------------------------------------------
	 SCS Same-Spin Scale       =       0.3333333333333333 [-]
	 SCS Opposite-Spin Scale   =       1.2000000000000000 [-]
	 SCS Same-Spin Energy      =      -0.1236431174266401 [Eh]
	 SCS Opposite-Spin Energy  =      -1.4197403959152874 [Eh]
	 SCS Correlation Energy    =      -1.5433835133419276 [Eh]
	 SCS Total Energy          =    -706.1840335266263082 [Eh]
	-----------------------------------------------------------

  Dipole Moment: [D]
     X:     0.0001      Y:    -4.1510      Z:    -0.1192     Total:     4.1527

*** Psi4 exiting successfully. Buy a developer a beer!
