                               Psi4 1.3.2 release

  ==> Input File <==

--------------------------------------------------------------------------
#psi4
#
memory 32 gb

molecule  {
0 1
  S        0.0000110     0.1881670    -0.0000010
  O       -0.0000360     0.9194870     1.2797200
  O       -0.0000020     0.9195190    -1.2797030
  C       -1.5228508    -0.7621143    -0.0000326
  C        1.4152210    -0.9161260     0.0000050
  C       -2.7012720    -0.0971660    -0.0000200
  C        2.7012500    -0.0971450     0.0000350
  H       -1.3330610    -1.5433750    -0.8926060
  H       -1.3330690    -1.5434170     0.8925110
  H        1.3330570    -1.5434210     0.8925650
  H        1.3330850    -1.5433980    -0.8925740
  H       -3.5631930    -0.7681330    -0.0000520
  H       -2.7480190     0.5365090     0.8875020
  H       -2.7480000     0.5365670    -0.8875020
  H        3.5632380    -0.7680250     0.0000210
  H        2.7479810     0.5365920    -0.8874510
  H        2.7479710     0.5365460     0.8875530
units angstrom
no_reorient  #important for SAPT in psi4, default
symmetry c1  #important for SAPT in psi4, default
}

set PROPERTIES_ORIGIN ["COM"]
properties('MP2/aug-cc-pvtz', properties = ['dipole'])
--------------------------------------------------------------------------

    Molecular point group: c1
  Charge       = 0
  Multiplicity = 1
  Basis Set: AUG-CC-PVTZ
    Blend: AUG-CC-PVTZ
  Basis Set: (AUG-CC-PVTZ AUX)
    Blend: AUG-CC-PVTZ-JKFIT

    Orbital Energies [Eh]
    ---------------------

    Doubly Occupied:

       1A    -92.171343     2A    -20.533178     3A    -20.533158
       4A    -11.290332     5A    -11.286435     6A    -11.243281
       7A    -11.228726     8A     -9.142143     9A     -6.826385
      10A     -6.826205    11A     -6.825789    12A     -1.426846
      13A     -1.316325    14A     -1.114249    15A     -1.083264
      16A     -0.948787    17A     -0.868616    18A     -0.782223
      19A     -0.700324    20A     -0.670034    21A     -0.646432
      22A     -0.646176    23A     -0.620510    24A     -0.607169
      25A     -0.566006    26A     -0.550888    27A     -0.546388
      28A     -0.531064    29A     -0.493844    30A     -0.478462
      31A     -0.470289    32A     -0.448778    33A     -0.424198

  @DF-RHF Final Energy:  -704.60174472867482

   => Energetics <=

    Nuclear Repulsion Energy =            437.4153082838395790
    One-Electron Energy =               -1836.3384100214468617
    Two-Electron Energy =                 694.3213570089325231
    Total Energy =                       -704.6017447286748165
  Basis Set: (AUG-CC-PVTZ AUX)
    Blend: AUG-CC-PVTZ-RI
    Molecular point group: c1

    Geometry (in Angstrom), charge = 0, multiplicity = 1:

       Center              X                  Y                   Z               Mass
    ------------   -----------------  -----------------  -----------------  -----------------
         S            0.010598399183     0.127915295704    -0.000001454631    31.972071174400
         O            0.010551399183     0.859235295704     1.279719545369    15.994914619570
         O            0.010585399183     0.859267295704    -1.279703454631    15.994914619570
         C           -1.512263400817    -0.822366004296    -0.000033054631    12.000000000000
         C            1.425808399183    -0.976377704296     0.000004545369    12.000000000000
         C           -2.690684600817    -0.157417704296    -0.000020454631    12.000000000000
         C            2.711837399183    -0.157396704296     0.000034545369    12.000000000000
         H           -1.322473600817    -1.603626704296    -0.892606454631     1.007825032230
         H           -1.322481600817    -1.603668704296     0.892510545369     1.007825032230
         H            1.343644399183    -1.603672704296     0.892564545369     1.007825032230
         H            1.343672399183    -1.603649704296    -0.892574454631     1.007825032230
         H           -3.552605600817    -0.828384704296    -0.000052454631     1.007825032230
         H           -2.737431600817     0.476257295704     0.887501545369     1.007825032230
         H           -2.737412600817     0.476315295704    -0.887502454631     1.007825032230
         H            3.573825399183    -0.828276704296     0.000020545369     1.007825032230
         H            2.758568399183     0.476340295704    -0.887451454631     1.007825032230
         H            2.758558399183     0.476294295704     0.887552545369     1.007825032230

  Basis Set: AUG-CC-PVTZ
    Blend: AUG-CC-PVTZ
  Basis Set: (AUG-CC-PVTZ AUX)
    Blend: AUG-CC-PVTZ-JKFIT
	 Reference Energy          =    -704.6017447286748165 [Eh]
	 Singles Energy            =      -0.0000000000000000 [Eh]
	 Same-Spin Energy          =      -0.3728661702746484 [Eh]
	 Opposite-Spin Energy      =      -1.1853827078863146 [Eh]
	 Correlation Energy        =      -1.5582488781609629 [Eh]
	 Total Energy              =    -706.1599936068357692 [Eh]

	 ================> DF-SCS-MP2 Energies <==================
	-----------------------------------------------------------
	 SCS Same-Spin Scale       =       0.3333333333333333 [-]
	 SCS Opposite-Spin Scale   =       1.2000000000000000 [-]
	 SCS Same-Spin Energy      =      -0.1242887234248828 [Eh]
	 SCS Opposite-Spin Energy  =      -1.4224592494635775 [Eh]
	 SCS Correlation Energy    =      -1.5467479728884603 [Eh]
	 SCS Total Energy          =    -706.1484927015633275 [Eh]
	-----------------------------------------------------------

  Dipole Moment: [D]
     X:     0.0728      Y:    -4.3714      Z:    -0.0001     Total:     4.3720

*** Psi4 exiting successfully. Buy a developer a beer!
