                               Psi4 1.3.2 release

  ==> Input File <==

--------------------------------------------------------------------------
#psi4
#
memory 32 gb

molecule  {
0 1
  S        0.0000110     0.1881670    -0.0000010
  O       -0.0000360     0.9194870     1.2797200
  O       -0.0000020     0.9195190    -1.2797030
  C       -1.4528530    -0.8660290    -0.0000329
  C        1.4152210    -0.9161260     0.0000050
  C       -2.7012720    -0.0971660    -0.0000200
  C        2.7012500    -0.0971450     0.0000350
  H       -1.3330610    -1.5433750    -0.8926060
  H       -1.3330690    -1.5434170     0.8925110
  H        1.3330570    -1.5434210     0.8925650
  H        1.3330850    -1.5433980    -0.8925740
  H       -3.5631930    -0.7681330    -0.0000520
  H       -2.7480190     0.5365090     0.8875020
  H       -2.7480000     0.5365670    -0.8875020
  H        3.5632380    -0.7680250     0.0000210
  H        2.7479810     0.5365920    -0.8874510
  H        2.7479710     0.5365460     0.8875530
units angstrom
no_reorient  #important for SAPT in psi4, default
symmetry c1  #important for SAPT in psi4, default
}

set PROPERTIES_ORIGIN ["COM"]
properties('MP2/aug-cc-pvtz', properties = ['dipole'])
--------------------------------------------------------------------------

    Molecular point group: c1
  Charge       = 0
  Multiplicity = 1
  Basis Set: AUG-CC-PVTZ
    Blend: AUG-CC-PVTZ
  Basis Set: (AUG-CC-PVTZ AUX)
    Blend: AUG-CC-PVTZ-JKFIT

    Orbital Energies [Eh]
    ---------------------

    Doubly Occupied:

       1A    -92.171057     2A    -20.535903     3A    -20.535883
       4A    -11.282842     5A    -11.282004     6A    -11.240505
       7A    -11.235536     8A     -9.141833     9A     -6.826142
      10A     -6.825863    11A     -6.825561    12A     -1.427660
      13A     -1.317831    14A     -1.098149    15A     -1.073653
      16A     -0.945051    17A     -0.870459    18A     -0.789669
      19A     -0.698075    20A     -0.671244    21A     -0.645597
      22A     -0.644786    23A     -0.606321    24A     -0.599249
      25A     -0.556314    26A     -0.548894    27A     -0.545745
      28A     -0.529984    29A     -0.514249    30A     -0.484888
      31A     -0.474465    32A     -0.456085    33A     -0.426821

  @DF-RHF Final Energy:  -704.63828246232140

   => Energetics <=

    Nuclear Repulsion Energy =            436.5424200319133661
    One-Electron Energy =               -1834.7047704080569019
    Two-Electron Energy =                 693.5240679138220230
    Total Energy =                       -704.6382824623213992
  Basis Set: (AUG-CC-PVTZ AUX)
    Blend: AUG-CC-PVTZ-RI
    Molecular point group: c1

    Geometry (in Angstrom), charge = 0, multiplicity = 1:

       Center              X                  Y                   Z               Mass
    ------------   -----------------  -----------------  -----------------  -----------------
         S            0.003715634823     0.138133051029    -0.000001425133    31.972071174400
         O            0.003668634823     0.869453051029     1.279719574867    15.994914619570
         O            0.003702634823     0.869485051029    -1.279703425133    15.994914619570
         C           -1.449148365177    -0.916062948971    -0.000033325133    12.000000000000
         C            1.418925634823    -0.966159948971     0.000004574867    12.000000000000
         C           -2.697567365177    -0.147199948971    -0.000020425133    12.000000000000
         C            2.704954634823    -0.147178948971     0.000034574867    12.000000000000
         H           -1.329356365177    -1.593408948971    -0.892606425133     1.007825032230
         H           -1.329364365177    -1.593450948971     0.892510574867     1.007825032230
         H            1.336761634823    -1.593454948971     0.892564574867     1.007825032230
         H            1.336789634823    -1.593431948971    -0.892574425133     1.007825032230
         H           -3.559488365177    -0.818166948971    -0.000052425133     1.007825032230
         H           -2.744314365177     0.486475051029     0.887501574867     1.007825032230
         H           -2.744295365177     0.486533051029    -0.887502425133     1.007825032230
         H            3.566942634823    -0.818058948971     0.000020574867     1.007825032230
         H            2.751685634823     0.486558051029    -0.887451425133     1.007825032230
         H            2.751675634823     0.486512051029     0.887552574867     1.007825032230

  Basis Set: AUG-CC-PVTZ
    Blend: AUG-CC-PVTZ
  Basis Set: (AUG-CC-PVTZ AUX)
    Blend: AUG-CC-PVTZ-JKFIT
	 Reference Energy          =    -704.6382824623213992 [Eh]
	 Singles Energy            =      -0.0000000000000000 [Eh]
	 Same-Spin Energy          =      -0.3711381430812936 [Eh]
	 Opposite-Spin Energy      =      -1.1829226376063424 [Eh]
	 Correlation Energy        =      -1.5540607806876361 [Eh]
	 Total Energy              =    -706.1923432430090770 [Eh]

	 ================> DF-SCS-MP2 Energies <==================
	-----------------------------------------------------------
	 SCS Same-Spin Scale       =       0.3333333333333333 [-]
	 SCS Opposite-Spin Scale   =       1.2000000000000000 [-]
	 SCS Same-Spin Energy      =      -0.1237127143604312 [Eh]
	 SCS Opposite-Spin Energy  =      -1.4195071651276108 [Eh]
	 SCS Correlation Energy    =      -1.5432198794880421 [Eh]
	 SCS Total Energy          =    -706.1815023418093915 [Eh]
	-----------------------------------------------------------

  Dipole Moment: [D]
     X:     0.0348      Y:    -4.3907      Z:    -0.0001     Total:     4.3908

*** Psi4 exiting successfully. Buy a developer a beer!
