                               Psi4 1.3.2 release

  ==> Input File <==

--------------------------------------------------------------------------
#psi4
#
memory 32 gb

molecule  {
0 1
  S        0.0000110     0.1881670    -0.0000010
  O       -0.0000360     0.9194870     1.2797200
  O       -0.0000020     0.9195190    -1.2797030
  C       -1.4342334    -0.8912244    -0.0000330
  C        1.4152210    -0.9161260     0.0000050
  C       -2.7012720    -0.0971660    -0.0000200
  C        2.7012500    -0.0971450     0.0000350
  H       -1.3330610    -1.5433750    -0.8926060
  H       -1.3330690    -1.5434170     0.8925110
  H        1.3330570    -1.5434210     0.8925650
  H        1.3330850    -1.5433980    -0.8925740
  H       -3.5631930    -0.7681330    -0.0000520
  H       -2.7480190     0.5365090     0.8875020
  H       -2.7480000     0.5365670    -0.8875020
  H        3.5632380    -0.7680250     0.0000210
  H        2.7479810     0.5365920    -0.8874510
  H        2.7479710     0.5365460     0.8875530
units angstrom
no_reorient  #important for SAPT in psi4, default
symmetry c1  #important for SAPT in psi4, default
}

set PROPERTIES_ORIGIN ["COM"]
properties('MP2/aug-cc-pvtz', properties = ['dipole'])
--------------------------------------------------------------------------

    Molecular point group: c1
  Charge       = 0
  Multiplicity = 1
  Basis Set: AUG-CC-PVTZ
    Blend: AUG-CC-PVTZ
  Basis Set: (AUG-CC-PVTZ AUX)
    Blend: AUG-CC-PVTZ-JKFIT

    Orbital Energies [Eh]
    ---------------------

    Doubly Occupied:

       1A    -92.171191     2A    -20.536629     3A    -20.536609
       4A    -11.281256     5A    -11.280909     6A    -11.239804
       7A    -11.237318     8A     -9.141924     9A     -6.826290
      10A     -6.825912    11A     -6.825673    12A     -1.427922
      13A     -1.318257    14A     -1.096267    15A     -1.070552
      16A     -0.944005    17A     -0.871074    18A     -0.791356
      19A     -0.697575    20A     -0.672192    21A     -0.646275
      22A     -0.645045    23A     -0.606396    24A     -0.594805
      25A     -0.554232    26A     -0.549003    27A     -0.542521
      28A     -0.530301    29A     -0.519289    30A     -0.485514
      31A     -0.475558    32A     -0.457203    33A     -0.427086

  @DF-RHF Final Energy:  -704.64160390644122

   => Energetics <=

    Nuclear Repulsion Energy =            436.3499735169726250
    One-Electron Energy =               -1834.3312681250133664
    Two-Electron Energy =                 693.3396907015995794
    Total Energy =                       -704.6416039064412189
  Basis Set: (AUG-CC-PVTZ AUX)
    Blend: AUG-CC-PVTZ-RI
    Molecular point group: c1

    Geometry (in Angstrom), charge = 0, multiplicity = 1:

       Center              X                  Y                   Z               Mass
    ------------   -----------------  -----------------  -----------------  -----------------
         S            0.001884801293     0.140610471764    -0.000001415300    31.972071174400
         O            0.001837801293     0.871930471764     1.279719584700    15.994914619570
         O            0.001871801293     0.871962471764    -1.279703415300    15.994914619570
         C           -1.432359598707    -0.938780928236    -0.000033415300    12.000000000000
         C            1.417094801293    -0.963682528236     0.000004584700    12.000000000000
         C           -2.699398198707    -0.144722528236    -0.000020415300    12.000000000000
         C            2.703123801293    -0.144701528236     0.000034584700    12.000000000000
         H           -1.331187198707    -1.590931528236    -0.892606415300     1.007825032230
         H           -1.331195198707    -1.590973528236     0.892510584700     1.007825032230
         H            1.334930801293    -1.590977528236     0.892564584700     1.007825032230
         H            1.334958801293    -1.590954528236    -0.892574415300     1.007825032230
         H           -3.561319198707    -0.815689528236    -0.000052415300     1.007825032230
         H           -2.746145198707     0.488952471764     0.887501584700     1.007825032230
         H           -2.746126198707     0.489010471764    -0.887502415300     1.007825032230
         H            3.565111801293    -0.815581528236     0.000020584700     1.007825032230
         H            2.749854801293     0.489035471764    -0.887451415300     1.007825032230
         H            2.749844801293     0.488989471764     0.887552584700     1.007825032230

  Basis Set: AUG-CC-PVTZ
    Blend: AUG-CC-PVTZ
  Basis Set: (AUG-CC-PVTZ AUX)
    Blend: AUG-CC-PVTZ-JKFIT
	 Reference Energy          =    -704.6416039064412189 [Eh]
	 Singles Energy            =      -0.0000000000000000 [Eh]
	 Same-Spin Energy          =      -0.3708806018317373 [Eh]
	 Opposite-Spin Energy      =      -1.1826483168692685 [Eh]
	 Correlation Energy        =      -1.5535289187010057 [Eh]
	 Total Energy              =    -706.1951328251421955 [Eh]

	 ================> DF-SCS-MP2 Energies <==================
	-----------------------------------------------------------
	 SCS Same-Spin Scale       =       0.3333333333333333 [-]
	 SCS Opposite-Spin Scale   =       1.2000000000000000 [-]
	 SCS Same-Spin Energy      =      -0.1236268672772458 [Eh]
	 SCS Opposite-Spin Energy  =      -1.4191779802431221 [Eh]
	 SCS Correlation Energy    =      -1.5428048475203680 [Eh]
	 SCS Total Energy          =    -706.1844087539616339 [Eh]
	-----------------------------------------------------------

  Dipole Moment: [D]
     X:     0.0186      Y:    -4.3846      Z:    -0.0001     Total:     4.3847

*** Psi4 exiting successfully. Buy a developer a beer!
