                               Psi4 1.3.2 release

  ==> Input File <==

--------------------------------------------------------------------------
#psi4
#
memory 32 gb

molecule  {
0 1
  S        0.0000110     0.1881670    -0.0000010
  O       -0.0000352     0.8970414     1.2922884
  O       -0.0000020     0.9195190    -1.2797030
  C       -1.4151770    -0.9160910    -0.0000330
  C        1.4152210    -0.9161260     0.0000050
  C       -2.7012720    -0.0971660    -0.0000200
  C        2.7012500    -0.0971450     0.0000350
  H       -1.3330610    -1.5433750    -0.8926060
  H       -1.3330690    -1.5434170     0.8925110
  H        1.3330570    -1.5434210     0.8925650
  H        1.3330850    -1.5433980    -0.8925740
  H       -3.5631930    -0.7681330    -0.0000520
  H       -2.7480190     0.5365090     0.8875020
  H       -2.7480000     0.5365670    -0.8875020
  H        3.5632380    -0.7680250     0.0000210
  H        2.7479810     0.5365920    -0.8874510
  H        2.7479710     0.5365460     0.8875530
units angstrom
no_reorient  #important for SAPT in psi4, default
symmetry c1  #important for SAPT in psi4, default
}

set PROPERTIES_ORIGIN ["COM"]
properties('MP2/aug-cc-pvtz', properties = ['dipole'])
--------------------------------------------------------------------------

    Molecular point group: c1
  Charge       = 0
  Multiplicity = 1
  Basis Set: AUG-CC-PVTZ
    Blend: AUG-CC-PVTZ
  Basis Set: (AUG-CC-PVTZ AUX)
    Blend: AUG-CC-PVTZ-JKFIT

    Orbital Energies [Eh]
    ---------------------

    Doubly Occupied:

       1A    -92.171615     2A    -20.538867     3A    -20.537555
       4A    -11.279251     5A    -11.279233     6A    -11.238953
       7A    -11.238951     8A     -9.142260     9A     -6.826676
      10A     -6.826231    11A     -6.826017    12A     -1.428529
      13A     -1.320143    14A     -1.094236    15A     -1.067166
      16A     -0.942571    17A     -0.871479    18A     -0.793030
      19A     -0.697068    20A     -0.673351    21A     -0.646937
      22A     -0.645394    23A     -0.607278    24A     -0.590851
      25A     -0.552656    26A     -0.548913    27A     -0.537559
      28A     -0.531576    29A     -0.522720    30A     -0.487182
      31A     -0.476572    32A     -0.459336    33A     -0.426767

  @DF-RHF Final Energy:  -704.64252926614176

   => Energetics <=

    Nuclear Repulsion Energy =            436.2048747501346497
    One-Electron Energy =               -1834.0409601506580657
    Two-Electron Energy =                 693.1935561343816516
    Total Energy =                       -704.6425292661417643
  Basis Set: (AUG-CC-PVTZ AUX)
    Blend: AUG-CC-PVTZ-RI
    Molecular point group: c1

    Geometry (in Angstrom), charge = 0, multiplicity = 1:

       Center              X                  Y                   Z               Mass
    ------------   -----------------  -----------------  -----------------  -----------------
         S            0.000010913113     0.145997343639    -0.001648664043    31.972071174400
         O           -0.000035286887     0.854871743639     1.290640735957    15.994914619570
         O           -0.000002086887     0.877349343639    -1.281350664043    15.994914619570
         C           -1.415177086887    -0.958260656361    -0.001680664043    12.000000000000
         C            1.415220913113    -0.958295656361    -0.001642664043    12.000000000000
         C           -2.701272086887    -0.139335656361    -0.001667664043    12.000000000000
         C            2.701249913113    -0.139314656361    -0.001612664043    12.000000000000
         H           -1.333061086887    -1.585544656361    -0.894253664043     1.007825032230
         H           -1.333069086887    -1.585586656361     0.890863335957     1.007825032230
         H            1.333056913113    -1.585590656361     0.890917335957     1.007825032230
         H            1.333084913113    -1.585567656361    -0.894221664043     1.007825032230
         H           -3.563193086887    -0.810302656361    -0.001699664043     1.007825032230
         H           -2.748019086887     0.494339343639     0.885854335957     1.007825032230
         H           -2.748000086887     0.494397343639    -0.889149664043     1.007825032230
         H            3.563237913113    -0.810194656361    -0.001626664043     1.007825032230
         H            2.747980913113     0.494422343639    -0.889098664043     1.007825032230
         H            2.747970913113     0.494376343639     0.885905335957     1.007825032230

  Basis Set: AUG-CC-PVTZ
    Blend: AUG-CC-PVTZ
  Basis Set: (AUG-CC-PVTZ AUX)
    Blend: AUG-CC-PVTZ-JKFIT
	 Reference Energy          =    -704.6425292661417643 [Eh]
	 Singles Energy            =      -0.0000000000000000 [Eh]
	 Same-Spin Energy          =      -0.3707411625004916 [Eh]
	 Opposite-Spin Energy      =      -1.1826393361121694 [Eh]
	 Correlation Energy        =      -1.5533804986126611 [Eh]
	 Total Energy              =    -706.1959097647544468 [Eh]

	 ================> DF-SCS-MP2 Energies <==================
	-----------------------------------------------------------
	 SCS Same-Spin Scale       =       0.3333333333333333 [-]
	 SCS Opposite-Spin Scale   =       1.2000000000000000 [-]
	 SCS Same-Spin Energy      =      -0.1235803875001639 [Eh]
	 SCS Opposite-Spin Energy  =      -1.4191672033346032 [Eh]
	 SCS Correlation Energy    =      -1.5427475908347672 [Eh]
	 SCS Total Energy          =    -706.1852768569765431 [Eh]
	-----------------------------------------------------------

  Dipole Moment: [D]
     X:     0.0001      Y:    -4.3200      Z:    -0.0312     Total:     4.3201

*** Psi4 exiting successfully. Buy a developer a beer!
