                               Psi4 1.3.2 release

  ==> Input File <==

--------------------------------------------------------------------------
#psi4
#
memory 32 gb

molecule  {
0 1
  S        0.0000110     0.1881670    -0.0000010
  O       -0.0000296     0.8202540     1.1060743
  O       -0.0000020     0.9195190    -1.2797030
  C       -1.4151770    -0.9160910    -0.0000330
  C        1.4152210    -0.9161260     0.0000050
  C       -2.7012720    -0.0971660    -0.0000200
  C        2.7012500    -0.0971450     0.0000350
  H       -1.3330610    -1.5433750    -0.8926060
  H       -1.3330690    -1.5434170     0.8925110
  H        1.3330570    -1.5434210     0.8925650
  H        1.3330850    -1.5433980    -0.8925740
  H       -3.5631930    -0.7681330    -0.0000520
  H       -2.7480190     0.5365090     0.8875020
  H       -2.7480000     0.5365670    -0.8875020
  H        3.5632380    -0.7680250     0.0000210
  H        2.7479810     0.5365920    -0.8874510
  H        2.7479710     0.5365460     0.8875530
units angstrom
no_reorient  #important for SAPT in psi4, default
symmetry c1  #important for SAPT in psi4, default
}

set PROPERTIES_ORIGIN ["COM"]
properties('MP2/aug-cc-pvtz', properties = ['dipole'])
--------------------------------------------------------------------------

    Molecular point group: c1
  Charge       = 0
  Multiplicity = 1
  Basis Set: AUG-CC-PVTZ
    Blend: AUG-CC-PVTZ
  Basis Set: (AUG-CC-PVTZ AUX)
    Blend: AUG-CC-PVTZ-JKFIT

    Orbital Energies [Eh]
    ---------------------

    Doubly Occupied:

       1A    -92.145979     2A    -20.541921     3A    -20.520258
       4A    -11.265034     5A    -11.265016     6A    -11.235474
       7A    -11.235473     8A     -9.124778     9A     -6.811596
      10A     -6.807769    11A     -6.807170    12A     -1.538049
      13A     -1.336816    14A     -1.085089    15A     -1.061580
      16A     -0.933985    17A     -0.867242    18A     -0.781092
      19A     -0.722034    20A     -0.687364    21A     -0.673258
      22A     -0.641654    23A     -0.627401    24A     -0.586361
      25A     -0.563803    26A     -0.555385    27A     -0.532678
      28A     -0.529767    29A     -0.517758    30A     -0.497507
      31A     -0.490071    32A     -0.462704    33A     -0.418768

  @DF-RHF Final Energy:  -704.60125911305352

   => Energetics <=

    Nuclear Repulsion Energy =            446.3910918220723829
    One-Electron Energy =               -1854.2430324413180642
    Two-Electron Energy =                 703.2506815061921088
    Total Energy =                       -704.6012591130535156
  Basis Set: (AUG-CC-PVTZ AUX)
    Blend: AUG-CC-PVTZ-RI
    Molecular point group: c1

    Geometry (in Angstrom), charge = 0, multiplicity = 1:

       Center              X                  Y                   Z               Mass
    ------------   -----------------  -----------------  -----------------  -----------------
         S            0.000010179162     0.156061309469     0.022757063191    31.972071174400
         O           -0.000030420838     0.788148309469     1.128832363191    15.994914619570
         O           -0.000002820838     0.887413309469    -1.256944936809    15.994914619570
         C           -1.415177820838    -0.948196690531     0.022725063191    12.000000000000
         C            1.415220179162    -0.948231690531     0.022763063191    12.000000000000
         C           -2.701272820838    -0.129271690531     0.022738063191    12.000000000000
         C            2.701249179162    -0.129250690531     0.022793063191    12.000000000000
         H           -1.333061820838    -1.575480690531    -0.869847936809     1.007825032230
         H           -1.333069820838    -1.575522690531     0.915269063191     1.007825032230
         H            1.333056179162    -1.575526690531     0.915323063191     1.007825032230
         H            1.333084179162    -1.575503690531    -0.869815936809     1.007825032230
         H           -3.563193820838    -0.800238690531     0.022706063191     1.007825032230
         H           -2.748019820838     0.504403309469     0.910260063191     1.007825032230
         H           -2.748000820838     0.504461309469    -0.864743936809     1.007825032230
         H            3.563237179162    -0.800130690531     0.022779063191     1.007825032230
         H            2.747980179162     0.504486309469    -0.864692936809     1.007825032230
         H            2.747970179162     0.504440309469     0.910311063191     1.007825032230

  Basis Set: AUG-CC-PVTZ
    Blend: AUG-CC-PVTZ
  Basis Set: (AUG-CC-PVTZ AUX)
    Blend: AUG-CC-PVTZ-JKFIT
	 Reference Energy          =    -704.6012591130535156 [Eh]
	 Singles Energy            =      -0.0000000000000000 [Eh]
	 Same-Spin Energy          =      -0.3662733951979407 [Eh]
	 Opposite-Spin Energy      =      -1.1720982427275159 [Eh]
	 Correlation Energy        =      -1.5383716379254566 [Eh]
	 Total Energy              =    -706.1396307509789949 [Eh]

	 ================> DF-SCS-MP2 Energies <==================
	-----------------------------------------------------------
	 SCS Same-Spin Scale       =       0.3333333333333333 [-]
	 SCS Opposite-Spin Scale   =       1.2000000000000000 [-]
	 SCS Same-Spin Energy      =      -0.1220911317326469 [Eh]
	 SCS Opposite-Spin Energy  =      -1.4065178912730192 [Eh]
	 SCS Correlation Energy    =      -1.5286090230056661 [Eh]
	 SCS Total Energy          =    -706.1298681360591445 [Eh]
	-----------------------------------------------------------

  Dipole Moment: [D]
     X:     0.0001      Y:    -3.7477      Z:     0.9074     Total:     3.8560

*** Psi4 exiting successfully. Buy a developer a beer!
