                               Psi4 1.3.2 release

  ==> Input File <==

--------------------------------------------------------------------------
#psi4
#
memory 32 gb

molecule  {
0 1
  S        0.0000110     0.1881670    -0.0000010
  O       -0.0000360     0.9194870     1.2797200
  O        0.0212948     0.9319343    -1.2723493
  C       -1.4151770    -0.9160910    -0.0000330
  C        1.4152210    -0.9161260     0.0000050
  C       -2.7012720    -0.0971660    -0.0000200
  C        2.7012500    -0.0971450     0.0000350
  H       -1.3330610    -1.5433750    -0.8926060
  H       -1.3330690    -1.5434170     0.8925110
  H        1.3330570    -1.5434210     0.8925650
  H        1.3330850    -1.5433980    -0.8925740
  H       -3.5631930    -0.7681330    -0.0000520
  H       -2.7480190     0.5365090     0.8875020
  H       -2.7480000     0.5365670    -0.8875020
  H        3.5632380    -0.7680250     0.0000210
  H        2.7479810     0.5365920    -0.8874510
  H        2.7479710     0.5365460     0.8875530
units angstrom
no_reorient  #important for SAPT in psi4, default
symmetry c1  #important for SAPT in psi4, default
}

set PROPERTIES_ORIGIN ["COM"]
properties('MP2/aug-cc-pvtz', properties = ['dipole'])
--------------------------------------------------------------------------

    Molecular point group: c1
  Charge       = 0
  Multiplicity = 1
  Basis Set: AUG-CC-PVTZ
    Blend: AUG-CC-PVTZ
  Basis Set: (AUG-CC-PVTZ AUX)
    Blend: AUG-CC-PVTZ-JKFIT

    Orbital Energies [Eh]
    ---------------------

    Doubly Occupied:

       1A    -92.171272     2A    -20.537234     3A    -20.536503
       4A    -11.281014     5A    -11.279264     6A    -11.239838
       7A    -11.238524     8A     -9.141968     9A     -6.826393
      10A     -6.825903    11A     -6.825745    12A     -1.428025
      13A     -1.317871    14A     -1.095299    15A     -1.067596
      16A     -0.943156    17A     -0.871873    18A     -0.792899
      19A     -0.697084    20A     -0.673636    21A     -0.647276
      22A     -0.645454    23A     -0.606180    24A     -0.591072
      25A     -0.553079    26A     -0.548892    27A     -0.537952
      28A     -0.531705    29A     -0.523048    30A     -0.485380
      31A     -0.476704    32A     -0.457529    33A     -0.427421

  @DF-RHF Final Energy:  -704.64291166720477

   => Energetics <=

    Nuclear Repulsion Energy =            436.1498235536445804
    One-Electron Energy =               -1833.9398905771729460
    Two-Electron Energy =                 693.1471553563235375
    Total Energy =                       -704.6429116672047712
  Basis Set: (AUG-CC-PVTZ AUX)
    Blend: AUG-CC-PVTZ-RI
    Molecular point group: c1

    Geometry (in Angstrom), charge = 0, multiplicity = 1:

       Center              X                  Y                   Z               Mass
    ------------   -----------------  -----------------  -----------------  -----------------
         S           -0.002780198662     0.141428379116    -0.000965211255    31.972071174400
         O           -0.002827198662     0.872748379116     1.278755788745    15.994914619570
         O            0.018503601338     0.885195679116    -1.273313511255    15.994914619570
         C           -1.417968198662    -0.962829620884    -0.000997211255    12.000000000000
         C            1.412429801338    -0.962864620884    -0.000959211255    12.000000000000
         C           -2.704063198662    -0.143904620884    -0.000984211255    12.000000000000
         C            2.698458801338    -0.143883620884    -0.000929211255    12.000000000000
         H           -1.335852198662    -1.590113620884    -0.893570211255     1.007825032230
         H           -1.335860198662    -1.590155620884     0.891546788745     1.007825032230
         H            1.330265801338    -1.590159620884     0.891600788745     1.007825032230
         H            1.330293801338    -1.590136620884    -0.893538211255     1.007825032230
         H           -3.565984198662    -0.814871620884    -0.001016211255     1.007825032230
         H           -2.750810198662     0.489770379116     0.886537788745     1.007825032230
         H           -2.750791198662     0.489828379116    -0.888466211255     1.007825032230
         H            3.560446801338    -0.814763620884    -0.000943211255     1.007825032230
         H            2.745189801338     0.489853379116    -0.888415211255     1.007825032230
         H            2.745179801338     0.489807379116     0.886588788745     1.007825032230

  Basis Set: AUG-CC-PVTZ
    Blend: AUG-CC-PVTZ
  Basis Set: (AUG-CC-PVTZ AUX)
    Blend: AUG-CC-PVTZ-JKFIT
	 Reference Energy          =    -704.6429116672047712 [Eh]
	 Singles Energy            =      -0.0000000000000000 [Eh]
	 Same-Spin Energy          =      -0.3706692449354595 [Eh]
	 Opposite-Spin Energy      =      -1.1824477954091879 [Eh]
	 Correlation Energy        =      -1.5531170403446475 [Eh]
	 Total Energy              =    -706.1960287075494307 [Eh]

	 ================> DF-SCS-MP2 Energies <==================
	-----------------------------------------------------------
	 SCS Same-Spin Scale       =       0.3333333333333333 [-]
	 SCS Opposite-Spin Scale   =       1.2000000000000000 [-]
	 SCS Same-Spin Energy      =      -0.1235564149784865 [Eh]
	 SCS Opposite-Spin Energy  =      -1.4189373544910253 [Eh]
	 SCS Correlation Energy    =      -1.5424937694695118 [Eh]
	 SCS Total Energy          =    -706.1854054366742730 [Eh]
	-----------------------------------------------------------

  Dipole Moment: [D]
     X:    -0.0687      Y:    -4.4057      Z:    -0.0183     Total:     4.4062

*** Psi4 exiting successfully. Buy a developer a beer!
