                               Psi4 1.3.2 release

  ==> Input File <==

--------------------------------------------------------------------------
#psi4
#
memory 32 gb

molecule  {
0 1
  S        0.0000110     0.1881670    -0.0000010
  O       -0.0000328     0.8698705     1.1928972
  O       -0.0000020     0.9195190    -1.2797030
  C       -1.4151770    -0.9160910    -0.0000330
  C        1.4152210    -0.9161260     0.0000050
  C       -2.7012720    -0.0971660    -0.0000200
  C        2.7012500    -0.0971450     0.0000350
  H       -1.3330610    -1.5433750    -0.8926060
  H       -1.3330690    -1.5434170     0.8925110
  H        1.3330570    -1.5434210     0.8925650
  H        1.3330850    -1.5433980    -0.8925740
  H       -3.5631930    -0.7681330    -0.0000520
  H       -2.7480190     0.5365090     0.8875020
  H       -2.7480000     0.5365670    -0.8875020
  H        3.5632380    -0.7680250     0.0000210
  H        2.7479810     0.5365920    -0.8874510
  H        2.7479710     0.5365460     0.8875530
units angstrom
no_reorient  #important for SAPT in psi4, default
symmetry c1  #important for SAPT in psi4, default
}

set PROPERTIES_ORIGIN ["COM"]
properties('MP2/aug-cc-pvtz', properties = ['dipole'])
--------------------------------------------------------------------------

    Molecular point group: c1
  Charge       = 0
  Multiplicity = 1
  Basis Set: AUG-CC-PVTZ
    Blend: AUG-CC-PVTZ
  Basis Set: (AUG-CC-PVTZ AUX)
    Blend: AUG-CC-PVTZ-JKFIT

    Orbital Energies [Eh]
    ---------------------

    Doubly Occupied:

       1A    -92.161488     2A    -20.539626     3A    -20.529168
       4A    -11.272768     5A    -11.272751     6A    -11.237285
       7A    -11.237283     8A     -9.134465     9A     -6.819388
      10A     -6.818570    11A     -6.818005    12A     -1.472701
      13A     -1.334336    14A     -1.090016    15A     -1.064433
      16A     -0.938358    17A     -0.869246    18A     -0.786645
      19A     -0.705349    20A     -0.673413    21A     -0.659962
      22A     -0.644541    23A     -0.617342    24A     -0.588820
      25A     -0.554047    26A     -0.553765    27A     -0.535476
      28A     -0.531036    29A     -0.520415    30A     -0.494169
      31A     -0.483815    32A     -0.463251    33A     -0.423666

  @DF-RHF Final Energy:  -704.64111869095643

   => Energetics <=

    Nuclear Repulsion Energy =            440.9965046275356144
    One-Electron Energy =               -1843.5840480838064650
    Two-Electron Energy =                 697.9464247653144184
    Total Energy =                       -704.6411186909564321
  Basis Set: (AUG-CC-PVTZ AUX)
    Blend: AUG-CC-PVTZ-RI
    Molecular point group: c1

    Geometry (in Angstrom), charge = 0, multiplicity = 1:

       Center              X                  Y                   Z               Mass
    ------------   -----------------  -----------------  -----------------  -----------------
         S            0.000010598562     0.149558435812     0.011377817393    31.972071174400
         O           -0.000033201438     0.831261935812     1.204276017393    15.994914619570
         O           -0.000002401438     0.880910435812    -1.268324182607    15.994914619570
         C           -1.415177401438    -0.954699564188     0.011345817393    12.000000000000
         C            1.415220598562    -0.954734564188     0.011383817393    12.000000000000
         C           -2.701272401438    -0.135774564188     0.011358817393    12.000000000000
         C            2.701249598562    -0.135753564188     0.011413817393    12.000000000000
         H           -1.333061401438    -1.581983564188    -0.881227182607     1.007825032230
         H           -1.333069401438    -1.582025564188     0.903889817393     1.007825032230
         H            1.333056598562    -1.582029564188     0.903943817393     1.007825032230
         H            1.333084598562    -1.582006564188    -0.881195182607     1.007825032230
         H           -3.563193401438    -0.806741564188     0.011326817393     1.007825032230
         H           -2.748019401438     0.497900435812     0.898880817393     1.007825032230
         H           -2.748000401438     0.497958435812    -0.876123182607     1.007825032230
         H            3.563237598562    -0.806633564188     0.011399817393     1.007825032230
         H            2.747980598562     0.497983435812    -0.876072182607     1.007825032230
         H            2.747970598562     0.497937435812     0.898931817393     1.007825032230

  Basis Set: AUG-CC-PVTZ
    Blend: AUG-CC-PVTZ
  Basis Set: (AUG-CC-PVTZ AUX)
    Blend: AUG-CC-PVTZ-JKFIT
	 Reference Energy          =    -704.6411186909564321 [Eh]
	 Singles Energy            =      -0.0000000000000000 [Eh]
	 Same-Spin Energy          =      -0.3685839760468768 [Eh]
	 Opposite-Spin Energy      =      -1.1773762209777798 [Eh]
	 Correlation Energy        =      -1.5459601970246566 [Eh]
	 Total Energy              =    -706.1870788879811016 [Eh]

	 ================> DF-SCS-MP2 Energies <==================
	-----------------------------------------------------------
	 SCS Same-Spin Scale       =       0.3333333333333333 [-]
	 SCS Opposite-Spin Scale   =       1.2000000000000000 [-]
	 SCS Same-Spin Energy      =      -0.1228613253489589 [Eh]
	 SCS Opposite-Spin Energy  =      -1.4128514651733357 [Eh]
	 SCS Correlation Energy    =      -1.5357127905222947 [Eh]
	 SCS Total Energy          =    -706.1768314814787573 [Eh]
	-----------------------------------------------------------

  Dipole Moment: [D]
     X:     0.0001      Y:    -4.0671      Z:     0.4509     Total:     4.0920

*** Psi4 exiting successfully. Buy a developer a beer!
