                               Psi4 1.3.2 release

  ==> Input File <==

--------------------------------------------------------------------------
#psi4
#
memory 32 gb

molecule  {
0 1
  S        0.0000110     0.1881670    -0.0000010
  O       -0.0000360     0.9194870     1.2797200
  O       -0.0212988     0.9068810    -1.2866669
  C       -1.4151770    -0.9160910    -0.0000330
  C        1.4152210    -0.9161260     0.0000050
  C       -2.7012720    -0.0971660    -0.0000200
  C        2.7012500    -0.0971450     0.0000350
  H       -1.3330610    -1.5433750    -0.8926060
  H       -1.3330690    -1.5434170     0.8925110
  H        1.3330570    -1.5434210     0.8925650
  H        1.3330850    -1.5433980    -0.8925740
  H       -3.5631930    -0.7681330    -0.0000520
  H       -2.7480190     0.5365090     0.8875020
  H       -2.7480000     0.5365670    -0.8875020
  H        3.5632380    -0.7680250     0.0000210
  H        2.7479810     0.5365920    -0.8874510
  H        2.7479710     0.5365460     0.8875530
units angstrom
no_reorient  #important for SAPT in psi4, default
symmetry c1  #important for SAPT in psi4, default
}

set PROPERTIES_ORIGIN ["COM"]
properties('MP2/aug-cc-pvtz', properties = ['dipole'])
--------------------------------------------------------------------------

    Molecular point group: c1
  Charge       = 0
  Multiplicity = 1
  Basis Set: AUG-CC-PVTZ
    Blend: AUG-CC-PVTZ
  Basis Set: (AUG-CC-PVTZ AUX)
    Blend: AUG-CC-PVTZ-JKFIT

    Orbital Energies [Eh]
    ---------------------

    Doubly Occupied:

       1A    -92.171519     2A    -20.538208     3A    -20.537465
       4A    -11.280384     5A    -11.278604     6A    -11.239674
       7A    -11.238353     8A     -9.142179     9A     -6.826598
      10A     -6.826140    11A     -6.825942    12A     -1.428388
      13A     -1.319511    14A     -1.094552    15A     -1.067266
      16A     -0.942740    17A     -0.871585    18A     -0.792992
      19A     -0.697073    20A     -0.673440    21A     -0.647052
      22A     -0.645383    23A     -0.606976    24A     -0.590919
      25A     -0.552820    26A     -0.548867    27A     -0.537653
      28A     -0.531642    29A     -0.522775    30A     -0.486675
      31A     -0.476613    32A     -0.458845    33A     -0.426940

  @DF-RHF Final Energy:  -704.64263749117356

   => Energetics <=

    Nuclear Repulsion Energy =            436.1901740345487610
    One-Electron Energy =               -1834.0140742362084438
    Two-Electron Energy =                 693.1812627104860667
    Total Energy =                       -704.6426374911735593
  Basis Set: (AUG-CC-PVTZ AUX)
    Blend: AUG-CC-PVTZ-RI
    Molecular point group: c1

    Geometry (in Angstrom), charge = 0, multiplicity = 1:

       Center              X                  Y                   Z               Mass
    ------------   -----------------  -----------------  -----------------  -----------------
         S            0.002802234588     0.144711932865     0.000911292405    31.972071174400
         O            0.002755234588     0.876031932865     1.280632292405    15.994914619570
         O           -0.018507565412     0.863425932865    -1.285754607595    15.994914619570
         C           -1.412385765412    -0.959546067135     0.000879292405    12.000000000000
         C            1.418012234588    -0.959581067135     0.000917292405    12.000000000000
         C           -2.698480765412    -0.140621067135     0.000892292405    12.000000000000
         C            2.704041234588    -0.140600067135     0.000947292405    12.000000000000
         H           -1.330269765412    -1.586830067135    -0.891693707595     1.007825032230
         H           -1.330277765412    -1.586872067135     0.893423292405     1.007825032230
         H            1.335848234588    -1.586876067135     0.893477292405     1.007825032230
         H            1.335876234588    -1.586853067135    -0.891661707595     1.007825032230
         H           -3.560401765412    -0.811588067135     0.000860292405     1.007825032230
         H           -2.745227765412     0.493053932865     0.888414292405     1.007825032230
         H           -2.745208765412     0.493111932865    -0.886589707595     1.007825032230
         H            3.566029234588    -0.811480067135     0.000933292405     1.007825032230
         H            2.750772234588     0.493136932865    -0.886538707595     1.007825032230
         H            2.750762234588     0.493090932865     0.888465292405     1.007825032230

  Basis Set: AUG-CC-PVTZ
    Blend: AUG-CC-PVTZ
  Basis Set: (AUG-CC-PVTZ AUX)
    Blend: AUG-CC-PVTZ-JKFIT
	 Reference Energy          =    -704.6426374911735593 [Eh]
	 Singles Energy            =      -0.0000000000000000 [Eh]
	 Same-Spin Energy          =      -0.3707213155168000 [Eh]
	 Opposite-Spin Energy      =      -1.1825856798123442 [Eh]
	 Correlation Energy        =      -1.5533069953291443 [Eh]
	 Total Energy              =    -706.1959444865027535 [Eh]

	 ================> DF-SCS-MP2 Energies <==================
	-----------------------------------------------------------
	 SCS Same-Spin Scale       =       0.3333333333333333 [-]
	 SCS Opposite-Spin Scale   =       1.2000000000000000 [-]
	 SCS Same-Spin Energy      =      -0.1235737718389333 [Eh]
	 SCS Opposite-Spin Energy  =      -1.4191028157748129 [Eh]
	 SCS Correlation Energy    =      -1.5426765876137463 [Eh]
	 SCS Total Energy          =    -706.1853140787873144 [Eh]
	-----------------------------------------------------------

  Dipole Moment: [D]
     X:     0.0692      Y:    -4.3440      Z:     0.0172     Total:     4.3446

*** Psi4 exiting successfully. Buy a developer a beer!
