                               Psi4 1.3.2 release

  ==> Input File <==

--------------------------------------------------------------------------
#psi4
#
memory 32 gb

molecule  {
0 1
  S        0.0524179     0.1050236    -0.1601359
  O       -0.0000360     0.9194870     1.2797200
  O       -0.0000020     0.9195190    -1.2797030
  C       -1.4151770    -0.9160910    -0.0000330
  C        1.4152210    -0.9161260     0.0000050
  C       -2.7012720    -0.0971660    -0.0000200
  C        2.7012500    -0.0971450     0.0000350
  H       -1.3330610    -1.5433750    -0.8926060
  H       -1.3330690    -1.5434170     0.8925110
  H        1.3330570    -1.5434210     0.8925650
  H        1.3330850    -1.5433980    -0.8925740
  H       -3.5631930    -0.7681330    -0.0000520
  H       -2.7480190     0.5365090     0.8875020
  H       -2.7480000     0.5365670    -0.8875020
  H        3.5632380    -0.7680250     0.0000210
  H        2.7479810     0.5365920    -0.8874510
  H        2.7479710     0.5365460     0.8875530
units angstrom
no_reorient  #important for SAPT in psi4, default
symmetry c1  #important for SAPT in psi4, default
}

set PROPERTIES_ORIGIN ["COM"]
properties('MP2/aug-cc-pvtz', properties = ['dipole'])
--------------------------------------------------------------------------

    Molecular point group: c1
  Charge       = 0
  Multiplicity = 1
  Basis Set: AUG-CC-PVTZ
    Blend: AUG-CC-PVTZ
  Basis Set: (AUG-CC-PVTZ AUX)
    Blend: AUG-CC-PVTZ-JKFIT

    Orbital Energies [Eh]
    ---------------------

    Doubly Occupied:

       1A    -92.165189     2A    -20.558689     3A    -20.499889
       4A    -11.287894     5A    -11.283256     6A    -11.246574
       7A    -11.238794     8A     -9.140171     9A     -6.824478
      10A     -6.823943    11A     -6.823119    12A     -1.461502
      13A     -1.243483    14A     -1.110624    15A     -1.072493
      16A     -0.955465    17A     -0.881060    18A     -0.794931
      19A     -0.706506    20A     -0.684189    21A     -0.655437
      22A     -0.647580    23A     -0.608981    24A     -0.588901
      25A     -0.558731    26A     -0.555042    27A     -0.543475
      28A     -0.536250    29A     -0.524996    30A     -0.483198
      31A     -0.454357    32A     -0.417613    33A     -0.410473

  @DF-RHF Final Energy:  -704.59410110999443

   => Energetics <=

    Nuclear Repulsion Energy =            435.8484566723577700
    One-Electron Energy =               -1833.3105554950134319
    Two-Electron Energy =                 692.8679977126612357
    Total Energy =                       -704.5941011099944262
  Basis Set: (AUG-CC-PVTZ AUX)
    Blend: AUG-CC-PVTZ-RI
    Molecular point group: c1

    Geometry (in Angstrom), charge = 0, multiplicity = 1:

       Center              X                  Y                   Z               Mass
    ------------   -----------------  -----------------  -----------------  -----------------
         S            0.038688361528     0.081694064968    -0.118184184059    31.972071174400
         O           -0.013765538472     0.896157464968     1.321671715941    15.994914619570
         O           -0.013731538472     0.896189464968    -1.237751284059    15.994914619570
         C           -1.428906538472    -0.939420535032     0.041918715941    12.000000000000
         C            1.401491461528    -0.939455535032     0.041956715941    12.000000000000
         C           -2.715001538472    -0.120495535032     0.041931715941    12.000000000000
         C            2.687520461528    -0.120474535032     0.041986715941    12.000000000000
         H           -1.346790538472    -1.566704535032    -0.850654284059     1.007825032230
         H           -1.346798538472    -1.566746535032     0.934462715941     1.007825032230
         H            1.319327461528    -1.566750535032     0.934516715941     1.007825032230
         H            1.319355461528    -1.566727535032    -0.850622284059     1.007825032230
         H           -3.576922538472    -0.791462535032     0.041899715941     1.007825032230
         H           -2.761748538472     0.513179464968     0.929453715941     1.007825032230
         H           -2.761729538472     0.513237464968    -0.845550284059     1.007825032230
         H            3.549508461528    -0.791354535032     0.041972715941     1.007825032230
         H            2.734251461528     0.513262464968    -0.845499284059     1.007825032230
         H            2.734241461528     0.513216464968     0.929504715941     1.007825032230

  Basis Set: AUG-CC-PVTZ
    Blend: AUG-CC-PVTZ
  Basis Set: (AUG-CC-PVTZ AUX)
    Blend: AUG-CC-PVTZ-JKFIT
	 Reference Energy          =    -704.5941011099944262 [Eh]
	 Singles Energy            =      -0.0000000000000000 [Eh]
	 Same-Spin Energy          =      -0.3716521869521461 [Eh]
	 Opposite-Spin Energy      =      -1.1849334227312587 [Eh]
	 Correlation Energy        =      -1.5565856096834048 [Eh]
	 Total Energy              =    -706.1506867196778785 [Eh]

	 ================> DF-SCS-MP2 Energies <==================
	-----------------------------------------------------------
	 SCS Same-Spin Scale       =       0.3333333333333333 [-]
	 SCS Opposite-Spin Scale   =       1.2000000000000000 [-]
	 SCS Same-Spin Energy      =      -0.1238840623173820 [Eh]
	 SCS Opposite-Spin Energy  =      -1.4219201072775103 [Eh]
	 SCS Correlation Energy    =      -1.5458041695948923 [Eh]
	 SCS Total Energy          =    -706.1399052795893567 [Eh]
	-----------------------------------------------------------

  Dipole Moment: [D]
     X:     0.4141      Y:    -4.9846      Z:    -1.3537     Total:     5.1817

*** Psi4 exiting successfully. Buy a developer a beer!
