                               Psi4 1.3.2 release

  ==> Input File <==

--------------------------------------------------------------------------
#psi4
#
memory 32 gb

molecule  {
0 1
  S        0.0000110     0.1881670    -0.0000010
  O       -0.0000402     1.0492480     1.1962658
  O       -0.0000020     0.9195190    -1.2797030
  C       -1.4151770    -0.9160910    -0.0000330
  C        1.4152210    -0.9161260     0.0000050
  C       -2.7012720    -0.0971660    -0.0000200
  C        2.7012500    -0.0971450     0.0000350
  H       -1.3330610    -1.5433750    -0.8926060
  H       -1.3330690    -1.5434170     0.8925110
  H        1.3330570    -1.5434210     0.8925650
  H        1.3330850    -1.5433980    -0.8925740
  H       -3.5631930    -0.7681330    -0.0000520
  H       -2.7480190     0.5365090     0.8875020
  H       -2.7480000     0.5365670    -0.8875020
  H        3.5632380    -0.7680250     0.0000210
  H        2.7479810     0.5365920    -0.8874510
  H        2.7479710     0.5365460     0.8875530
units angstrom
no_reorient  #important for SAPT in psi4, default
symmetry c1  #important for SAPT in psi4, default
}

set PROPERTIES_ORIGIN ["COM"]
properties('MP2/aug-cc-pvtz', properties = ['dipole'])
--------------------------------------------------------------------------

    Molecular point group: c1
  Charge       = 0
  Multiplicity = 1
  Basis Set: AUG-CC-PVTZ
    Blend: AUG-CC-PVTZ
  Basis Set: (AUG-CC-PVTZ AUX)
    Blend: AUG-CC-PVTZ-JKFIT

    Orbital Energies [Eh]
    ---------------------

    Doubly Occupied:

       1A    -92.169858     2A    -20.535776     3A    -20.527858
       4A    -11.283185     5A    -11.283167     6A    -11.239976
       7A    -11.239974     8A     -9.140790     9A     -6.825226
      10A     -6.824664    11A     -6.824558    12A     -1.426390
      13A     -1.309260    14A     -1.098732    15A     -1.069167
      16A     -0.945067    17A     -0.873233    18A     -0.792592
      19A     -0.697059    20A     -0.674528    21A     -0.648398
      22A     -0.645631    23A     -0.601850    24A     -0.591827
      25A     -0.554175    26A     -0.549072    27A     -0.539360
      28A     -0.532061    29A     -0.524398    30A     -0.478723
      31A     -0.476837    32A     -0.449820    33A     -0.429418

  @DF-RHF Final Energy:  -704.64149979169633

   => Energetics <=

    Nuclear Repulsion Energy =            436.0179633644445971
    One-Electron Energy =               -1833.7136688364885231
    Two-Electron Energy =                 693.0542056803476498
    Total Energy =                       -704.6414997916963330
  Basis Set: (AUG-CC-PVTZ AUX)
    Blend: AUG-CC-PVTZ-RI
    Molecular point group: c1

    Geometry (in Angstrom), charge = 0, multiplicity = 1:

       Center              X                  Y                   Z               Mass
    ------------   -----------------  -----------------  -----------------  -----------------
         S            0.000011568427     0.126048731999     0.010936319500    31.972071174400
         O           -0.000039631573     0.987129731999     1.207203119500    15.994914619570
         O           -0.000001431573     0.857400731999    -1.268765680500    15.994914619570
         C           -1.415176431573    -0.978209268001     0.010904319500    12.000000000000
         C            1.415221568427    -0.978244268001     0.010942319500    12.000000000000
         C           -2.701271431573    -0.159284268001     0.010917319500    12.000000000000
         C            2.701250568427    -0.159263268001     0.010972319500    12.000000000000
         H           -1.333060431573    -1.605493268001    -0.881668680500     1.007825032230
         H           -1.333068431573    -1.605535268001     0.903448319500     1.007825032230
         H            1.333057568427    -1.605539268001     0.903502319500     1.007825032230
         H            1.333085568427    -1.605516268001    -0.881636680500     1.007825032230
         H           -3.563192431573    -0.830251268001     0.010885319500     1.007825032230
         H           -2.748018431573     0.474390731999     0.898439319500     1.007825032230
         H           -2.747999431573     0.474448731999    -0.876564680500     1.007825032230
         H            3.563238568427    -0.830143268001     0.010958319500     1.007825032230
         H            2.747981568427     0.474473731999    -0.876513680500     1.007825032230
         H            2.747971568427     0.474427731999     0.898490319500     1.007825032230

  Basis Set: AUG-CC-PVTZ
    Blend: AUG-CC-PVTZ
  Basis Set: (AUG-CC-PVTZ AUX)
    Blend: AUG-CC-PVTZ-JKFIT
	 Reference Energy          =    -704.6414997916963330 [Eh]
	 Singles Energy            =      -0.0000000000000000 [Eh]
	 Same-Spin Energy          =      -0.3705353308064605 [Eh]
	 Opposite-Spin Energy      =      -1.1820360625020681 [Eh]
	 Correlation Energy        =      -1.5525713933085286 [Eh]
	 Total Energy              =    -706.1940711850048729 [Eh]

	 ================> DF-SCS-MP2 Energies <==================
	-----------------------------------------------------------
	 SCS Same-Spin Scale       =       0.3333333333333333 [-]
	 SCS Opposite-Spin Scale   =       1.2000000000000000 [-]
	 SCS Same-Spin Energy      =      -0.1235117769354868 [Eh]
	 SCS Opposite-Spin Energy  =      -1.4184432750024816 [Eh]
	 SCS Correlation Energy    =      -1.5419550519379683 [Eh]
	 SCS Total Energy          =    -706.1834548436343084 [Eh]
	-----------------------------------------------------------

  Dipole Moment: [D]
     X:     0.0002      Y:    -4.6931      Z:     0.2052     Total:     4.6976

*** Psi4 exiting successfully. Buy a developer a beer!
