                               Psi4 1.3.2 release

  ==> Input File <==

--------------------------------------------------------------------------
#psi4
#
memory 32 gb

molecule  {
0 1
  S       -0.0435834     0.2369254     0.1068639
  O       -0.0000360     0.9194870     1.2797200
  O       -0.0000020     0.9195190    -1.2797030
  C       -1.4151770    -0.9160910    -0.0000330
  C        1.4152210    -0.9161260     0.0000050
  C       -2.7012720    -0.0971660    -0.0000200
  C        2.7012500    -0.0971450     0.0000350
  H       -1.3330610    -1.5433750    -0.8926060
  H       -1.3330690    -1.5434170     0.8925110
  H        1.3330570    -1.5434210     0.8925650
  H        1.3330850    -1.5433980    -0.8925740
  H       -3.5631930    -0.7681330    -0.0000520
  H       -2.7480190     0.5365090     0.8875020
  H       -2.7480000     0.5365670    -0.8875020
  H        3.5632380    -0.7680250     0.0000210
  H        2.7479810     0.5365920    -0.8874510
  H        2.7479710     0.5365460     0.8875530
units angstrom
no_reorient  #important for SAPT in psi4, default
symmetry c1  #important for SAPT in psi4, default
}

set PROPERTIES_ORIGIN ["COM"]
properties('MP2/aug-cc-pvtz', properties = ['dipole'])
--------------------------------------------------------------------------

    Molecular point group: c1
  Charge       = 0
  Multiplicity = 1
  Basis Set: AUG-CC-PVTZ
    Blend: AUG-CC-PVTZ
  Basis Set: (AUG-CC-PVTZ AUX)
    Blend: AUG-CC-PVTZ-JKFIT

    Orbital Energies [Eh]
    ---------------------

    Doubly Occupied:

       1A    -92.166782     2A    -20.562486     3A    -20.521659
       4A    -11.279121     5A    -11.272828     6A    -11.239932
       7A    -11.233240     8A     -9.139495     9A     -6.824335
      10A     -6.823499    11A     -6.822652    12A     -1.484848
      13A     -1.303306    14A     -1.088479    15A     -1.058753
      16A     -0.935250    17A     -0.864428    18A     -0.794299
      19A     -0.704897    20A     -0.674090    21A     -0.664556
      22A     -0.640783    23A     -0.620272    24A     -0.585543
      25A     -0.560035    26A     -0.555222    27A     -0.535293
      28A     -0.531455    29A     -0.518484    30A     -0.490338
      31A     -0.480873    32A     -0.450101    33A     -0.411745

  @DF-RHF Final Energy:  -704.61899338033834

   => Energetics <=

    Nuclear Repulsion Energy =            436.6130460655709840
    One-Electron Energy =               -1834.7859234770999137
    Two-Electron Energy =                 693.5538840311907052
    Total Energy =                       -704.6189933803383383
  Basis Set: (AUG-CC-PVTZ AUX)
    Blend: AUG-CC-PVTZ-RI
    Molecular point group: c1

    Geometry (in Angstrom), charge = 0, multiplicity = 1:

       Center              X                  Y                   Z               Mass
    ------------   -----------------  -----------------  -----------------  -----------------
         S           -0.032162523809     0.179040239527     0.078867024779    31.972071174400
         O            0.011384876191     0.861601839527     1.251723124779    15.994914619570
         O            0.011418876191     0.861633839527    -1.307699875221    15.994914619570
         C           -1.403756123809    -0.973976160473    -0.028029875221    12.000000000000
         C            1.426641876191    -0.974011160473    -0.027991875221    12.000000000000
         C           -2.689851123809    -0.155051160473    -0.028016875221    12.000000000000
         C            2.712670876191    -0.155030160473    -0.027961875221    12.000000000000
         H           -1.321640123809    -1.601260160473    -0.920602875221     1.007825032230
         H           -1.321648123809    -1.601302160473     0.864514124779     1.007825032230
         H            1.344477876191    -1.601306160473     0.864568124779     1.007825032230
         H            1.344505876191    -1.601283160473    -0.920570875221     1.007825032230
         H           -3.551772123809    -0.826018160473    -0.028048875221     1.007825032230
         H           -2.736598123809     0.478623839527     0.859505124779     1.007825032230
         H           -2.736579123809     0.478681839527    -0.915498875221     1.007825032230
         H            3.574658876191    -0.825910160473    -0.027975875221     1.007825032230
         H            2.759401876191     0.478706839527    -0.915447875221     1.007825032230
         H            2.759391876191     0.478660839527     0.859556124779     1.007825032230

  Basis Set: AUG-CC-PVTZ
    Blend: AUG-CC-PVTZ
  Basis Set: (AUG-CC-PVTZ AUX)
    Blend: AUG-CC-PVTZ-JKFIT
	 Reference Energy          =    -704.6189933803383383 [Eh]
	 Singles Energy            =      -0.0000000000000000 [Eh]
	 Same-Spin Energy          =      -0.3695542475448690 [Eh]
	 Opposite-Spin Energy      =      -1.1812784126230711 [Eh]
	 Correlation Energy        =      -1.5508326601679401 [Eh]
	 Total Energy              =    -706.1698260405062229 [Eh]

	 ================> DF-SCS-MP2 Energies <==================
	-----------------------------------------------------------
	 SCS Same-Spin Scale       =       0.3333333333333333 [-]
	 SCS Opposite-Spin Scale   =       1.2000000000000000 [-]
	 SCS Same-Spin Energy      =      -0.1231847491816230 [Eh]
	 SCS Opposite-Spin Energy  =      -1.4175340951476854 [Eh]
	 SCS Correlation Energy    =      -1.5407188443293083 [Eh]
	 SCS Total Energy          =    -706.1597122246676008 [Eh]
	-----------------------------------------------------------

  Dipole Moment: [D]
     X:    -0.3690      Y:    -4.0390      Z:     0.8900     Total:     4.1523

*** Psi4 exiting successfully. Buy a developer a beer!
