                               Psi4 1.4a3.dev225

  ==> Input File <==

--------------------------------------------------------------------------
#psi4
#
memory 32 gb

molecule  {
0 1
  S        0.0000010    -0.1881120     0.0000010
  O        0.0000160    -0.9194390     1.2797270
  O       -0.0000150    -0.9194810    -1.2797010
  C        1.4310183     0.9284099    -0.0000344
  C       -1.4152530     0.9161080     0.0000010
  C        2.7011840     0.0971020    -0.0000240
  C       -2.7011840     0.0971000     0.0000310
  H        1.3332210     1.5433360    -0.8926410
  H        1.3332340     1.5433780     0.8925450
  H       -1.3332180     1.5433720     0.8925830
  H       -1.3332410     1.5433430    -0.8926030
  H        3.5632600     0.7678990    -0.0000510
  H        2.7479010    -0.5366180     0.8874790
  H        2.7478840    -0.5366650    -0.8874950
  H       -3.5632640     0.7678940     0.0000250
  H       -2.7479010    -0.5366620    -0.8874420
  H       -2.7478840    -0.5366250     0.8875310
units angstrom
no_reorient  #important for SAPT in psi4, default
symmetry c1  #important for SAPT in psi4, default
}

set PROPERTIES_ORIGIN ["COM"]
properties('MP2/aug-cc-pvtz', properties = ['dipole'])
--------------------------------------------------------------------------

    Molecular point group: c1
  Charge       = 0
  Multiplicity = 1
  Basis Set: AUG-CC-PVTZ
    Blend: AUG-CC-PVTZ
  Basis Set: (AUG-CC-PVTZ AUX)
    Blend: AUG-CC-PVTZ-JKFIT

    Orbital Energies [Eh]
    ---------------------

    Doubly Occupied:

       1A    -92.170769     2A    -20.537332     3A    -20.537312
       4A    -11.280066     5A    -11.279767     6A    -11.239036
       7A    -11.238564     8A     -9.141363     9A     -6.825747
      10A     -6.825278    11A     -6.825130    12A     -1.427490
      13A     -1.318431    14A     -1.094126    15A     -1.067821
      16A     -0.941834    17A     -0.871470    18A     -0.793102
      19A     -0.695757    20A     -0.673868    21A     -0.648253
      22A     -0.644808    23A     -0.606881    24A     -0.590689
      25A     -0.554326    26A     -0.548816    27A     -0.539335
      28A     -0.532024    29A     -0.523553    30A     -0.485980
      31A     -0.475525    32A     -0.458318    33A     -0.424544

  @DF-RHF Final Energy:  -704.64256163212087

   => Energetics <=

    Nuclear Repulsion Energy =            435.7597410595981273
    One-Electron Energy =               -1833.1699732859215146
    Two-Electron Energy =                 692.7676705942025137
    Total Energy =                       -704.6425616321208736
  Basis Set: (AUG-CC-PVTZ AUX)
    Blend: AUG-CC-PVTZ-RI
    Molecular point group: c1

    Geometry (in Angstrom), charge = 0, multiplicity = 1:

       Center              X                  Y                   Z               Mass
    ------------   -----------------  -----------------  -----------------  -----------------
         S           -0.001549502054    -0.144217594089     0.000000496068    31.972071174400
         O           -0.001534502054    -0.875544594089     1.279726496068    15.994914619570
         O           -0.001565502054    -0.875586594089    -1.279701503932    15.994914619570
         C            1.429467797946     0.972304305911    -0.000034903932    12.000000000000
         C           -1.416803502054     0.960002405911     0.000000496068    12.000000000000
         C            2.699633497946     0.140996405911    -0.000024503932    12.000000000000
         C           -2.702734502054     0.140994405911     0.000030496068    12.000000000000
         H            1.331670497946     1.587230405911    -0.892641503932     1.007825032230
         H            1.331683497946     1.587272405911     0.892544496068     1.007825032230
         H           -1.334768502054     1.587266405911     0.892582496068     1.007825032230
         H           -1.334791502054     1.587237405911    -0.892603503932     1.007825032230
         H            3.561709497946     0.811793405911    -0.000051503932     1.007825032230
         H            2.746350497946    -0.492723594089     0.887478496068     1.007825032230
         H            2.746333497946    -0.492770594089    -0.887495503932     1.007825032230
         H           -3.564814502054     0.811788405911     0.000024496068     1.007825032230
         H           -2.749451502054    -0.492767594089    -0.887442503932     1.007825032230
         H           -2.749434502054    -0.492730594089     0.887530496068     1.007825032230

  Basis Set: AUG-CC-PVTZ
    Blend: AUG-CC-PVTZ
  Basis Set: (AUG-CC-PVTZ AUX)
    Blend: AUG-CC-PVTZ-JKFIT
	 Reference Energy          =    -704.6425616321208736 [Eh]
	 Singles Energy            =      -0.0000000000000000 [Eh]
	 Same-Spin Energy          =      -0.3707000954916578 [Eh]
	 Opposite-Spin Energy      =      -1.1826033489127203 [Eh]
	 Correlation Energy        =      -1.5533034444043783 [Eh]
	 Total Energy              =    -706.1958650765252514 [Eh]

	 ================> DF-SCS-MP2 Energies <==================
	-----------------------------------------------------------
	 SCS Same-Spin Scale       =       0.3333333333333333 [-]
	 SCS Opposite-Spin Scale   =       1.2000000000000000 [-]
	 SCS Same-Spin Energy      =      -0.1235666984972193 [Eh]
	 SCS Opposite-Spin Energy  =      -1.4191240186952643 [Eh]
	 SCS Correlation Energy    =      -1.5426907171924835 [Eh]
	 SCS Total Energy          =    -706.1852523493133731 [Eh]
	-----------------------------------------------------------

  Dipole Moment: [D]
     X:    -0.0149      Y:     4.3642      Z:    -0.0001     Total:     4.3642

*** Psi4 exiting successfully. Buy a developer a beer!
