                               Psi4 1.3.2 release

  ==> Input File <==

--------------------------------------------------------------------------
#psi4
#
memory 32 gb

molecule  {
0 1
  S       -0.0209369     0.2132342     0.0534640
  O       -0.0000360     0.9194870     1.2797200
  O       -0.0000020     0.9195190    -1.2797030
  C       -1.4151770    -0.9160910    -0.0000330
  C        1.4152210    -0.9161260     0.0000050
  C       -2.7012720    -0.0971660    -0.0000200
  C        2.7012500    -0.0971450     0.0000350
  H       -1.3330610    -1.5433750    -0.8926060
  H       -1.3330690    -1.5434170     0.8925110
  H        1.3330570    -1.5434210     0.8925650
  H        1.3330850    -1.5433980    -0.8925740
  H       -3.5631930    -0.7681330    -0.0000520
  H       -2.7480190     0.5365090     0.8875020
  H       -2.7480000     0.5365670    -0.8875020
  H        3.5632380    -0.7680250     0.0000210
  H        2.7479810     0.5365920    -0.8874510
  H        2.7479710     0.5365460     0.8875530
units angstrom
no_reorient  #important for SAPT in psi4, default
symmetry c1  #important for SAPT in psi4, default
}

set PROPERTIES_ORIGIN ["COM"]
properties('MP2/aug-cc-pvtz', properties = ['dipole'])
--------------------------------------------------------------------------

    Molecular point group: c1
  Charge       = 0
  Multiplicity = 1
  Basis Set: AUG-CC-PVTZ
    Blend: AUG-CC-PVTZ
  Basis Set: (AUG-CC-PVTZ AUX)
    Blend: AUG-CC-PVTZ-JKFIT

    Orbital Energies [Eh]
    ---------------------

    Doubly Occupied:

       1A    -92.170073     2A    -20.550150     3A    -20.529519
       4A    -11.279287     5A    -11.276515     6A    -11.239441
       7A    -11.236246     8A     -9.141121     9A     -6.825462
      10A     -6.825385    11A     -6.824722    12A     -1.448191
      13A     -1.318159    14A     -1.090930    15A     -1.063773
      16A     -0.938931    17A     -0.868197    18A     -0.793205
      19A     -0.698872    20A     -0.672346    21A     -0.652390
      22A     -0.644524    23A     -0.612397    24A     -0.588576
      25A     -0.554139    26A     -0.551445    27A     -0.536674
      28A     -0.531368    29A     -0.521039    30A     -0.490202
      31A     -0.479944    32A     -0.457895    33A     -0.421060

  @DF-RHF Final Energy:  -704.63809959566902

   => Energetics <=

    Nuclear Repulsion Energy =            436.3492320951523880
    One-Electron Energy =               -1834.3103106952951293
    Two-Electron Energy =                 693.3229790044736092
    Total Energy =                       -704.6380995956690185
  Basis Set: (AUG-CC-PVTZ AUX)
    Blend: AUG-CC-PVTZ-RI
    Molecular point group: c1

    Geometry (in Angstrom), charge = 0, multiplicity = 1:

       Center              X                  Y                   Z               Mass
    ------------   -----------------  -----------------  -----------------  -----------------
         S           -0.015448952485     0.161555658644     0.039456827293    31.972071174400
         O            0.005451947515     0.867808458644     1.265712827293    15.994914619570
         O            0.005485947515     0.867840458644    -1.293710172707    15.994914619570
         C           -1.409689052485    -0.967769541356    -0.014040172707    12.000000000000
         C            1.420708947515    -0.967804541356    -0.014002172707    12.000000000000
         C           -2.695784052485    -0.148844541356    -0.014027172707    12.000000000000
         C            2.706737947515    -0.148823541356    -0.013972172707    12.000000000000
         H           -1.327573052485    -1.595053541356    -0.906613172707     1.007825032230
         H           -1.327581052485    -1.595095541356     0.878503827293     1.007825032230
         H            1.338544947515    -1.595099541356     0.878557827293     1.007825032230
         H            1.338572947515    -1.595076541356    -0.906581172707     1.007825032230
         H           -3.557705052485    -0.819811541356    -0.014059172707     1.007825032230
         H           -2.742531052485     0.484830458644     0.873494827293     1.007825032230
         H           -2.742512052485     0.484888458644    -0.901509172707     1.007825032230
         H            3.568725947515    -0.819703541356    -0.013986172707     1.007825032230
         H            2.753468947515     0.484913458644    -0.901458172707     1.007825032230
         H            2.753458947515     0.484867458644     0.873545827293     1.007825032230

  Basis Set: AUG-CC-PVTZ
    Blend: AUG-CC-PVTZ
  Basis Set: (AUG-CC-PVTZ AUX)
    Blend: AUG-CC-PVTZ-JKFIT
	 Reference Energy          =    -704.6380995956690185 [Eh]
	 Singles Energy            =      -0.0000000000000000 [Eh]
	 Same-Spin Energy          =      -0.3701669291576625 [Eh]
	 Opposite-Spin Energy      =      -1.1818621129894504 [Eh]
	 Correlation Energy        =      -1.5520290421471130 [Eh]
	 Total Energy              =    -706.1901286378160876 [Eh]

	 ================> DF-SCS-MP2 Energies <==================
	-----------------------------------------------------------
	 SCS Same-Spin Scale       =       0.3333333333333333 [-]
	 SCS Opposite-Spin Scale   =       1.2000000000000000 [-]
	 SCS Same-Spin Energy      =      -0.1233889763858875 [Eh]
	 SCS Opposite-Spin Energy  =      -1.4182345355873405 [Eh]
	 SCS Correlation Energy    =      -1.5416235119732280 [Eh]
	 SCS Total Energy          =    -706.1797231076423031 [Eh]
	-----------------------------------------------------------

  Dipole Moment: [D]
     X:    -0.1748      Y:    -4.1999      Z:     0.4463     Total:     4.2272

*** Psi4 exiting successfully. Buy a developer a beer!
