                               Psi4 1.3.2 release

  ==> Input File <==

--------------------------------------------------------------------------
#psi4
#
memory 32 gb

molecule  {
0 1
  S       -0.0102490     0.2008707     0.0267356
  O       -0.0000360     0.9194870     1.2797200
  O       -0.0000020     0.9195190    -1.2797030
  C       -1.4151770    -0.9160910    -0.0000330
  C        1.4152210    -0.9161260     0.0000050
  C       -2.7012720    -0.0971660    -0.0000200
  C        2.7012500    -0.0971450     0.0000350
  H       -1.3330610    -1.5433750    -0.8926060
  H       -1.3330690    -1.5434170     0.8925110
  H        1.3330570    -1.5434210     0.8925650
  H        1.3330850    -1.5433980    -0.8925740
  H       -3.5631930    -0.7681330    -0.0000520
  H       -2.7480190     0.5365090     0.8875020
  H       -2.7480000     0.5365670    -0.8875020
  H        3.5632380    -0.7680250     0.0000210
  H        2.7479810     0.5365920    -0.8874510
  H        2.7479710     0.5365460     0.8875530
units angstrom
no_reorient  #important for SAPT in psi4, default
symmetry c1  #important for SAPT in psi4, default
}

set PROPERTIES_ORIGIN ["COM"]
properties('MP2/aug-cc-pvtz', properties = ['dipole'])
--------------------------------------------------------------------------

    Molecular point group: c1
  Charge       = 0
  Multiplicity = 1
  Basis Set: AUG-CC-PVTZ
    Blend: AUG-CC-PVTZ
  Basis Set: (AUG-CC-PVTZ AUX)
    Blend: AUG-CC-PVTZ-JKFIT

    Orbital Energies [Eh]
    ---------------------

    Doubly Occupied:

       1A    -92.170981     2A    -20.543790     3A    -20.533455
       4A    -11.279508     5A    -11.278215     6A    -11.239253
       7A    -11.237694     8A     -9.141695     9A     -6.826101
      10A     -6.825750    11A     -6.825436    12A     -1.435434
      13A     -1.320877    14A     -1.092737    15A     -1.065789
      16A     -0.940906    17A     -0.869996    18A     -0.792984
      19A     -0.697515    20A     -0.672697    21A     -0.648066
      22A     -0.646012    23A     -0.609250    24A     -0.589938
      25A     -0.553257    26A     -0.549654    27A     -0.537177
      28A     -0.531488    29A     -0.522098    30A     -0.488533
      31A     -0.478060    32A     -0.459469    33A     -0.424670

  @DF-RHF Final Energy:  -704.64209680851127

   => Energetics <=

    Nuclear Repulsion Energy =            436.2494074078466610
    One-Electron Energy =               -1834.1260394214330063
    Two-Electron Energy =                 693.2345352050751899
    Total Energy =                       -704.6420968085112690
  Basis Set: (AUG-CC-PVTZ AUX)
    Blend: AUG-CC-PVTZ-RI
    Molecular point group: c1

    Geometry (in Angstrom), charge = 0, multiplicity = 1:

       Center              X                  Y                   Z               Mass
    ------------   -----------------  -----------------  -----------------  -----------------
         S           -0.007561067869     0.152431147613     0.019730731879    31.972071174400
         O            0.002651932131     0.871047447613     1.272715131879    15.994914619570
         O            0.002685932131     0.871079447613    -1.286707868121    15.994914619570
         C           -1.412489067869    -0.964530552387    -0.007037868121    12.000000000000
         C            1.417908932131    -0.964565552387    -0.006999868121    12.000000000000
         C           -2.698584067869    -0.145605552387    -0.007024868121    12.000000000000
         C            2.703937932131    -0.145584552387    -0.006969868121    12.000000000000
         H           -1.330373067869    -1.591814552387    -0.899610868121     1.007825032230
         H           -1.330381067869    -1.591856552387     0.885506131879     1.007825032230
         H            1.335744932131    -1.591860552387     0.885560131879     1.007825032230
         H            1.335772932131    -1.591837552387    -0.899578868121     1.007825032230
         H           -3.560505067869    -0.816572552387    -0.007056868121     1.007825032230
         H           -2.745331067869     0.488069447613     0.880497131879     1.007825032230
         H           -2.745312067869     0.488127447613    -0.894506868121     1.007825032230
         H            3.565925932131    -0.816464552387    -0.006983868121     1.007825032230
         H            2.750668932131     0.488152447613    -0.894455868121     1.007825032230
         H            2.750658932131     0.488106447613     0.880548131879     1.007825032230

  Basis Set: AUG-CC-PVTZ
    Blend: AUG-CC-PVTZ
  Basis Set: (AUG-CC-PVTZ AUX)
    Blend: AUG-CC-PVTZ-JKFIT
	 Reference Energy          =    -704.6420968085112690 [Eh]
	 Singles Energy            =      -0.0000000000000000 [Eh]
	 Same-Spin Energy          =      -0.3704422056071988 [Eh]
	 Opposite-Spin Energy      =      -1.1821793367537663 [Eh]
	 Correlation Energy        =      -1.5526215423609651 [Eh]
	 Total Energy              =    -706.1947183508722219 [Eh]

	 ================> DF-SCS-MP2 Energies <==================
	-----------------------------------------------------------
	 SCS Same-Spin Scale       =       0.3333333333333333 [-]
	 SCS Opposite-Spin Scale   =       1.2000000000000000 [-]
	 SCS Same-Spin Energy      =      -0.1234807352023996 [Eh]
	 SCS Opposite-Spin Energy  =      -1.4186152041045195 [Eh]
	 SCS Correlation Energy    =      -1.5420959393069191 [Eh]
	 SCS Total Energy          =    -706.1841927478182015 [Eh]
	-----------------------------------------------------------

  Dipole Moment: [D]
     X:    -0.0850      Y:    -4.2858      Z:     0.2235     Total:     4.2924

*** Psi4 exiting successfully. Buy a developer a beer!
