                               Psi4 1.3.2 release

  ==> Input File <==

--------------------------------------------------------------------------
#psi4
#
memory 32 gb

molecule  {
0 1
  S        0.0367107     0.1340288    -0.1068660
  O       -0.0000360     0.9194870     1.2797200
  O       -0.0000020     0.9195190    -1.2797030
  C       -1.4151770    -0.9160910    -0.0000330
  C        1.4152210    -0.9161260     0.0000050
  C       -2.7012720    -0.0971660    -0.0000200
  C        2.7012500    -0.0971450     0.0000350
  H       -1.3330610    -1.5433750    -0.8926060
  H       -1.3330690    -1.5434170     0.8925110
  H        1.3330570    -1.5434210     0.8925650
  H        1.3330850    -1.5433980    -0.8925740
  H       -3.5631930    -0.7681330    -0.0000520
  H       -2.7480190     0.5365090     0.8875020
  H       -2.7480000     0.5365670    -0.8875020
  H        3.5632380    -0.7680250     0.0000210
  H        2.7479810     0.5365920    -0.8874510
  H        2.7479710     0.5365460     0.8875530
units angstrom
no_reorient  #important for SAPT in psi4, default
symmetry c1  #important for SAPT in psi4, default
}

set PROPERTIES_ORIGIN ["COM"]
properties('MP2/aug-cc-pvtz', properties = ['dipole'])
--------------------------------------------------------------------------

    Molecular point group: c1
  Charge       = 0
  Multiplicity = 1
  Basis Set: AUG-CC-PVTZ
    Blend: AUG-CC-PVTZ
  Basis Set: (AUG-CC-PVTZ AUX)
    Blend: AUG-CC-PVTZ-JKFIT

    Orbital Energies [Eh]
    ---------------------

    Doubly Occupied:

       1A    -92.168649     2A    -20.552114     3A    -20.511866
       4A    -11.285453     5A    -11.281813     6A    -11.244291
       7A    -11.238791     8A     -9.141535     9A     -6.825741
      10A     -6.825605    11A     -6.824746    12A     -1.443980
      13A     -1.272061    14A     -1.105602    15A     -1.071457
      16A     -0.951351    17A     -0.878147    18A     -0.794019
      19A     -0.701868    20A     -0.679915    21A     -0.649693
      22A     -0.648047    23A     -0.605201    24A     -0.589417
      25A     -0.555844    26A     -0.552029    27A     -0.541994
      28A     -0.533636    29A     -0.524525    30A     -0.480919
      31A     -0.467670    32A     -0.433085    33A     -0.421295

  @DF-RHF Final Energy:  -704.61899450601504

   => Energetics <=

    Nuclear Repulsion Energy =            435.9458555609526798
    One-Electron Energy =               -1833.5249804993736689
    Two-Electron Energy =                 692.9601304324060038
    Total Energy =                       -704.6189945060150421
  Basis Set: (AUG-CC-PVTZ AUX)
    Blend: AUG-CC-PVTZ-RI
    Molecular point group: c1

    Geometry (in Angstrom), charge = 0, multiplicity = 1:

       Center              X                  Y                   Z               Mass
    ------------   -----------------  -----------------  -----------------  -----------------
         S            0.027096132817     0.103100484458    -0.078869929181    31.972071174400
         O           -0.009650567183     0.888558684458     1.307716070819    15.994914619570
         O           -0.009616567183     0.888590684458    -1.251706929181    15.994914619570
         C           -1.424791567183    -0.947019315542     0.027963070819    12.000000000000
         C            1.405606432817    -0.947054315542     0.028001070819    12.000000000000
         C           -2.710886567183    -0.128094315542     0.027976070819    12.000000000000
         C            2.691635432817    -0.128073315542     0.028031070819    12.000000000000
         H           -1.342675567183    -1.574303315542    -0.864609929181     1.007825032230
         H           -1.342683567183    -1.574345315542     0.920507070819     1.007825032230
         H            1.323442432817    -1.574349315542     0.920561070819     1.007825032230
         H            1.323470432817    -1.574326315542    -0.864577929181     1.007825032230
         H           -3.572807567183    -0.799061315542     0.027944070819     1.007825032230
         H           -2.757633567183     0.505580684458     0.915498070819     1.007825032230
         H           -2.757614567183     0.505638684458    -0.859505929181     1.007825032230
         H            3.553623432817    -0.798953315542     0.028017070819     1.007825032230
         H            2.738366432817     0.505663684458    -0.859454929181     1.007825032230
         H            2.738356432817     0.505617684458     0.915549070819     1.007825032230

  Basis Set: AUG-CC-PVTZ
    Blend: AUG-CC-PVTZ
  Basis Set: (AUG-CC-PVTZ AUX)
    Blend: AUG-CC-PVTZ-JKFIT
	 Reference Energy          =    -704.6189945060150421 [Eh]
	 Singles Energy            =      -0.0000000000000000 [Eh]
	 Same-Spin Energy          =      -0.3714104626230281 [Eh]
	 Opposite-Spin Energy      =      -1.1839892048309419 [Eh]
	 Correlation Energy        =      -1.5553996674539701 [Eh]
	 Total Energy              =    -706.1743941734690679 [Eh]

	 ================> DF-SCS-MP2 Energies <==================
	-----------------------------------------------------------
	 SCS Same-Spin Scale       =       0.3333333333333333 [-]
	 SCS Opposite-Spin Scale   =       1.2000000000000000 [-]
	 SCS Same-Spin Energy      =      -0.1238034875410094 [Eh]
	 SCS Opposite-Spin Energy  =      -1.4207870457971303 [Eh]
	 SCS Correlation Energy    =      -1.5445905333381398 [Eh]
	 SCS Total Energy          =    -706.1635850393531655 [Eh]
	-----------------------------------------------------------

  Dipole Moment: [D]
     X:     0.2941      Y:    -4.7687      Z:    -0.9012     Total:     4.8620

*** Psi4 exiting successfully. Buy a developer a beer!
