                               Psi4 1.3.2 release

  ==> Input File <==

--------------------------------------------------------------------------
#psi4
#
memory 32 gb

molecule  {
0 1
  S        0.0000110     0.1881670    -0.0000010
  O       -0.0000360     0.9194870     1.2797200
  O        0.1275518     0.9905390    -1.2298162
  C       -1.4151770    -0.9160910    -0.0000330
  C        1.4152210    -0.9161260     0.0000050
  C       -2.7012720    -0.0971660    -0.0000200
  C        2.7012500    -0.0971450     0.0000350
  H       -1.3330610    -1.5433750    -0.8926060
  H       -1.3330690    -1.5434170     0.8925110
  H        1.3330570    -1.5434210     0.8925650
  H        1.3330850    -1.5433980    -0.8925740
  H       -3.5631930    -0.7681330    -0.0000520
  H       -2.7480190     0.5365090     0.8875020
  H       -2.7480000     0.5365670    -0.8875020
  H        3.5632380    -0.7680250     0.0000210
  H        2.7479810     0.5365920    -0.8874510
  H        2.7479710     0.5365460     0.8875530
units angstrom
no_reorient  #important for SAPT in psi4, default
symmetry c1  #important for SAPT in psi4, default
}

set PROPERTIES_ORIGIN ["COM"]
properties('MP2/aug-cc-pvtz', properties = ['dipole'])
--------------------------------------------------------------------------

    Molecular point group: c1
  Charge       = 0
  Multiplicity = 1
  Basis Set: AUG-CC-PVTZ
    Blend: AUG-CC-PVTZ
  Basis Set: (AUG-CC-PVTZ AUX)
    Blend: AUG-CC-PVTZ-JKFIT

    Orbital Energies [Eh]
    ---------------------

    Doubly Occupied:

       1A    -92.170502     2A    -20.536356     3A    -20.532148
       4A    -11.286815     5A    -11.276486     6A    -11.243346
       7A    -11.235533     8A     -9.141350     9A     -6.825798
      10A     -6.825220    11A     -6.825130    12A     -1.427254
      13A     -1.313522    14A     -1.097701    15A     -1.067475
      16A     -0.944301    17A     -0.872312    18A     -0.792745
      19A     -0.697045    20A     -0.674488    21A     -0.648090
      22A     -0.644853    23A     -0.604032    24A     -0.591763
      25A     -0.555145    26A     -0.547595    27A     -0.537926
      28A     -0.533246    29A     -0.522031    30A     -0.481761
      31A     -0.476828    32A     -0.453745    33A     -0.427880

  @DF-RHF Final Energy:  -704.64102946625701

   => Energetics <=

    Nuclear Repulsion Energy =            436.1492102061808964
    One-Electron Energy =               -1833.9596348246450361
    Two-Electron Energy =                 693.1693951522071302
    Total Energy =                       -704.6410294662570095
  Basis Set: (AUG-CC-PVTZ AUX)
    Blend: AUG-CC-PVTZ-RI
    Molecular point group: c1

    Geometry (in Angstrom), charge = 0, multiplicity = 1:

       Center              X                  Y                   Z               Mass
    ------------   -----------------  -----------------  -----------------  -----------------
         S           -0.016706530549     0.133747487482    -0.006539715210    31.972071174400
         O           -0.016753530549     0.865067487482     1.273181284790    15.994914619570
         O            0.110834269451     0.936119487482    -1.236354915210    15.994914619570
         C           -1.431894530549    -0.970510512518    -0.006571715210    12.000000000000
         C            1.398503469451    -0.970545512518    -0.006533715210    12.000000000000
         C           -2.717989530549    -0.151585512518    -0.006558715210    12.000000000000
         C            2.684532469451    -0.151564512518    -0.006503715210    12.000000000000
         H           -1.349778530549    -1.597794512518    -0.899144715210     1.007825032230
         H           -1.349786530549    -1.597836512518     0.885972284790     1.007825032230
         H            1.316339469451    -1.597840512518     0.886026284790     1.007825032230
         H            1.316367469451    -1.597817512518    -0.899112715210     1.007825032230
         H           -3.579910530549    -0.822552512518    -0.006590715210     1.007825032230
         H           -2.764736530549     0.482089487482     0.880963284790     1.007825032230
         H           -2.764717530549     0.482147487482    -0.894040715210     1.007825032230
         H            3.546520469451    -0.822444512518    -0.006517715210     1.007825032230
         H            2.731263469451     0.482172487482    -0.893989715210     1.007825032230
         H            2.731253469451     0.482126487482     0.881014284790     1.007825032230

  Basis Set: AUG-CC-PVTZ
    Blend: AUG-CC-PVTZ
  Basis Set: (AUG-CC-PVTZ AUX)
    Blend: AUG-CC-PVTZ-JKFIT
	 Reference Energy          =    -704.6410294662570095 [Eh]
	 Singles Energy            =      -0.0000000000000000 [Eh]
	 Same-Spin Energy          =      -0.3706716288254129 [Eh]
	 Opposite-Spin Energy      =      -1.1823668265782949 [Eh]
	 Correlation Energy        =      -1.5530384554037078 [Eh]
	 Total Energy              =    -706.1940679216606895 [Eh]

	 ================> DF-SCS-MP2 Energies <==================
	-----------------------------------------------------------
	 SCS Same-Spin Scale       =       0.3333333333333333 [-]
	 SCS Opposite-Spin Scale   =       1.2000000000000000 [-]
	 SCS Same-Spin Energy      =      -0.1235572096084710 [Eh]
	 SCS Opposite-Spin Energy  =      -1.4188401918939539 [Eh]
	 SCS Correlation Energy    =      -1.5423974015024249 [Eh]
	 SCS Total Energy          =    -706.1834268677594082 [Eh]
	-----------------------------------------------------------

  Dipole Moment: [D]
     X:    -0.4075      Y:    -4.5449      Z:    -0.1228     Total:     4.5647

*** Psi4 exiting successfully. Buy a developer a beer!
