                               Psi4 1.3.2 release

  ==> Input File <==

--------------------------------------------------------------------------
#psi4
#
memory 32 gb

molecule  {
0 1
  S       -0.0679010     0.2592119     0.1601335
  O       -0.0000360     0.9194870     1.2797200
  O       -0.0000020     0.9195190    -1.2797030
  C       -1.4151770    -0.9160910    -0.0000330
  C        1.4152210    -0.9161260     0.0000050
  C       -2.7012720    -0.0971660    -0.0000200
  C        2.7012500    -0.0971450     0.0000350
  H       -1.3330610    -1.5433750    -0.8926060
  H       -1.3330690    -1.5434170     0.8925110
  H        1.3330570    -1.5434210     0.8925650
  H        1.3330850    -1.5433980    -0.8925740
  H       -3.5631930    -0.7681330    -0.0000520
  H       -2.7480190     0.5365090     0.8875020
  H       -2.7480000     0.5365670    -0.8875020
  H        3.5632380    -0.7680250     0.0000210
  H        2.7479810     0.5365920    -0.8874510
  H        2.7479710     0.5365460     0.8875530
units angstrom
no_reorient  #important for SAPT in psi4, default
symmetry c1  #important for SAPT in psi4, default
}

set PROPERTIES_ORIGIN ["COM"]
properties('MP2/aug-cc-pvtz', properties = ['dipole'])
--------------------------------------------------------------------------

    Molecular point group: c1
  Charge       = 0
  Multiplicity = 1
  Basis Set: AUG-CC-PVTZ
    Blend: AUG-CC-PVTZ
  Basis Set: (AUG-CC-PVTZ AUX)
    Blend: AUG-CC-PVTZ-JKFIT

    Orbital Energies [Eh]
    ---------------------

    Doubly Occupied:

       1A    -92.161607     2A    -20.574079     3A    -20.514014
       4A    -11.279355     5A    -11.268737     6A    -11.240598
       7A    -11.230095     8A     -9.137475     9A     -6.823117
      10A     -6.820836    11A     -6.819922    12A     -1.529004
      13A     -1.282845    14A     -1.087408    15A     -1.052732
      16A     -0.932049    17A     -0.860457    18A     -0.796412
      19A     -0.716078    20A     -0.685842    21A     -0.674123
      22A     -0.638018    23A     -0.628055    24A     -0.583211
      25A     -0.569990    26A     -0.556585    27A     -0.533162
      28A     -0.532107    29A     -0.515475    30A     -0.487171
      31A     -0.475253    32A     -0.439863    33A     -0.400857

  @DF-RHF Final Energy:  -704.58242106691125

   => Energetics <=

    Nuclear Repulsion Energy =            436.9787916004543717
    One-Electron Energy =               -1835.4293573693353210
    Two-Electron Energy =                 693.8681447019697544
    Total Energy =                       -704.5824210669112517
  Basis Set: (AUG-CC-PVTZ AUX)
    Blend: AUG-CC-PVTZ-RI
    Molecular point group: c1

    Geometry (in Angstrom), charge = 0, multiplicity = 1:

       Center              X                  Y                   Z               Mass
    ------------   -----------------  -----------------  -----------------  -----------------
         S           -0.050109400459     0.195488123629     0.118181058251    31.972071174400
         O            0.017755599541     0.855763223629     1.237767558251    15.994914619570
         O            0.017789599541     0.855795223629    -1.321655441749    15.994914619570
         C           -1.397385400459    -0.979814776371    -0.041985441749    12.000000000000
         C            1.433012599541    -0.979849776371    -0.041947441749    12.000000000000
         C           -2.683480400459    -0.160889776371    -0.041972441749    12.000000000000
         C            2.719041599541    -0.160868776371    -0.041917441749    12.000000000000
         H           -1.315269400459    -1.607098776371    -0.934558441749     1.007825032230
         H           -1.315277400459    -1.607140776371     0.850558558251     1.007825032230
         H            1.350848599541    -1.607144776371     0.850612558251     1.007825032230
         H            1.350876599541    -1.607121776371    -0.934526441749     1.007825032230
         H           -3.545401400459    -0.831856776371    -0.042004441749     1.007825032230
         H           -2.730227400459     0.472785223629     0.845549558251     1.007825032230
         H           -2.730208400459     0.472843223629    -0.929454441749     1.007825032230
         H            3.581029599541    -0.831748776371    -0.041931441749     1.007825032230
         H            2.765772599541     0.472868223629    -0.929403441749     1.007825032230
         H            2.765762599541     0.472822223629     0.845600558251     1.007825032230

  Basis Set: AUG-CC-PVTZ
    Blend: AUG-CC-PVTZ
  Basis Set: (AUG-CC-PVTZ AUX)
    Blend: AUG-CC-PVTZ-JKFIT
	 Reference Energy          =    -704.5824210669112517 [Eh]
	 Singles Energy            =      -0.0000000000000000 [Eh]
	 Same-Spin Energy          =      -0.3688928198895127 [Eh]
	 Opposite-Spin Energy      =      -1.1807999339459740 [Eh]
	 Correlation Energy        =      -1.5496927538354868 [Eh]
	 Total Energy              =    -706.1321138207467811 [Eh]

	 ================> DF-SCS-MP2 Energies <==================
	-----------------------------------------------------------
	 SCS Same-Spin Scale       =       0.3333333333333333 [-]
	 SCS Opposite-Spin Scale   =       1.2000000000000000 [-]
	 SCS Same-Spin Energy      =      -0.1229642732965042 [Eh]
	 SCS Opposite-Spin Energy  =      -1.4169599207351689 [Eh]
	 SCS Correlation Energy    =      -1.5399241940316730 [Eh]
	 SCS Total Energy          =    -706.1223452609428932 [Eh]
	-----------------------------------------------------------

  Dipole Moment: [D]
     X:    -0.5828      Y:    -3.8920      Z:     1.3315     Total:     4.1546

*** Psi4 exiting successfully. Buy a developer a beer!
