                               Psi4 1.3.2 release

  ==> Input File <==

--------------------------------------------------------------------------
#psi4
#
memory 32 gb

molecule  {
0 1
  S        0.0000110     0.1881670    -0.0000010
  O       -0.0000360     0.9194870     1.2797200
  O        0.0851203     0.9678059    -1.2479724
  C       -1.4151770    -0.9160910    -0.0000330
  C        1.4152210    -0.9161260     0.0000050
  C       -2.7012720    -0.0971660    -0.0000200
  C        2.7012500    -0.0971450     0.0000350
  H       -1.3330610    -1.5433750    -0.8926060
  H       -1.3330690    -1.5434170     0.8925110
  H        1.3330570    -1.5434210     0.8925650
  H        1.3330850    -1.5433980    -0.8925740
  H       -3.5631930    -0.7681330    -0.0000520
  H       -2.7480190     0.5365090     0.8875020
  H       -2.7480000     0.5365670    -0.8875020
  H        3.5632380    -0.7680250     0.0000210
  H        2.7479810     0.5365920    -0.8874510
  H        2.7479710     0.5365460     0.8875530
units angstrom
no_reorient  #important for SAPT in psi4, default
symmetry c1  #important for SAPT in psi4, default
}

set PROPERTIES_ORIGIN ["COM"]
properties('MP2/aug-cc-pvtz', properties = ['dipole'])
--------------------------------------------------------------------------

    Molecular point group: c1
  Charge       = 0
  Multiplicity = 1
  Basis Set: AUG-CC-PVTZ
    Blend: AUG-CC-PVTZ
  Basis Set: (AUG-CC-PVTZ AUX)
    Blend: AUG-CC-PVTZ-JKFIT

    Orbital Energies [Eh]
    ---------------------

    Doubly Occupied:

       1A    -92.170836     2A    -20.536757     3A    -20.533905
       4A    -11.284535     5A    -11.277593     6A    -11.241978
       7A    -11.236749     8A     -9.141613     9A     -6.826050
      10A     -6.825507    11A     -6.825399    12A     -1.427539
      13A     -1.315305    14A     -1.096664    15A     -1.067670
      16A     -0.943827    17A     -0.872183    18A     -0.792795
      19A     -0.697073    20A     -0.674088    21A     -0.647777
      22A     -0.645168    23A     -0.604920    24A     -0.591437
      25A     -0.554170    26A     -0.548261    27A     -0.538058
      28A     -0.532444    29A     -0.522684    30A     -0.483267
      31A     -0.476803    32A     -0.455340    33A     -0.427814

  @DF-RHF Final Energy:  -704.64221501177212

   => Energetics <=

    Nuclear Repulsion Energy =            436.1324353691999818
    One-Electron Energy =               -1833.9168840101556270
    Two-Electron Energy =                 693.1422336291834654
    Total Energy =                       -704.6422150117721230
  Basis Set: (AUG-CC-PVTZ AUX)
    Blend: AUG-CC-PVTZ-RI
    Molecular point group: c1

    Geometry (in Angstrom), charge = 0, multiplicity = 1:

       Center              X                  Y                   Z               Mass
    ------------   -----------------  -----------------  -----------------  -----------------
         S           -0.011145342567     0.136726949498    -0.004160114177    31.972071174400
         O           -0.011192342567     0.868046949498     1.275560885823    15.994914619570
         O            0.073963957433     0.916365849498    -1.252131514177    15.994914619570
         C           -1.426333342567    -0.967531050502    -0.004192114177    12.000000000000
         C            1.404064657433    -0.967566050502    -0.004154114177    12.000000000000
         C           -2.712428342567    -0.148606050502    -0.004179114177    12.000000000000
         C            2.690093657433    -0.148585050502    -0.004124114177    12.000000000000
         H           -1.344217342567    -1.594815050502    -0.896765114177     1.007825032230
         H           -1.344225342567    -1.594857050502     0.888351885823     1.007825032230
         H            1.321900657433    -1.594861050502     0.888405885823     1.007825032230
         H            1.321928657433    -1.594838050502    -0.896733114177     1.007825032230
         H           -3.574349342567    -0.819573050502    -0.004211114177     1.007825032230
         H           -2.759175342567     0.485068949498     0.883342885823     1.007825032230
         H           -2.759156342567     0.485126949498    -0.891661114177     1.007825032230
         H            3.552081657433    -0.819465050502    -0.004138114177     1.007825032230
         H            2.736824657433     0.485151949498    -0.891610114177     1.007825032230
         H            2.736814657433     0.485105949498     0.883393885823     1.007825032230

  Basis Set: AUG-CC-PVTZ
    Blend: AUG-CC-PVTZ
  Basis Set: (AUG-CC-PVTZ AUX)
    Blend: AUG-CC-PVTZ-JKFIT
	 Reference Energy          =    -704.6422150117721230 [Eh]
	 Singles Energy            =      -0.0000000000000000 [Eh]
	 Same-Spin Energy          =      -0.3706480558984575 [Eh]
	 Opposite-Spin Energy      =      -1.1823540564763606 [Eh]
	 Correlation Energy        =      -1.5530021123748181 [Eh]
	 Total Energy              =    -706.1952171241468932 [Eh]

	 ================> DF-SCS-MP2 Energies <==================
	-----------------------------------------------------------
	 SCS Same-Spin Scale       =       0.3333333333333333 [-]
	 SCS Opposite-Spin Scale   =       1.2000000000000000 [-]
	 SCS Same-Spin Energy      =      -0.1235493519661525 [Eh]
	 SCS Opposite-Spin Energy  =      -1.4188248677716326 [Eh]
	 SCS Correlation Energy    =      -1.5423742197377852 [Eh]
	 SCS Total Energy          =    -706.1845892315099036 [Eh]
	-----------------------------------------------------------

  Dipole Moment: [D]
     X:    -0.2731      Y:    -4.4918      Z:    -0.0783     Total:     4.5008

*** Psi4 exiting successfully. Buy a developer a beer!
