                               Psi4 1.3.2 release

  ==> Input File <==

--------------------------------------------------------------------------
#psi4
#
memory 32 gb

molecule  {
0 1
  O        0.0267460     1.3979150     0.0001110
  C       -0.0054050     0.1710240    -0.0004320
  C        1.2809990    -0.6351670     0.0000570
  C       -1.3071512    -0.5956372    -0.2999400
  H        1.1065290    -1.7126840     0.0002500
  H        1.8687580    -0.3632970    -0.8809030
  H        1.8683850    -0.3629330     0.8811560
  H       -1.3615300    -1.2438660     0.8812950
  H       -2.1446900     0.1021110     0.0002990
  H       -1.3620790    -1.2439230    -0.8810940
units angstrom
no_reorient  #important for SAPT in psi4, default
symmetry c1  #important for SAPT in psi4, default
}

set PROPERTIES_ORIGIN ["COM"]
properties('MP2/aug-cc-pvtz', properties = ['dipole'])
--------------------------------------------------------------------------

    Molecular point group: c1
  Charge       = 0
  Multiplicity = 1
  Basis Set: AUG-CC-PVTZ
    Blend: AUG-CC-PVTZ
  Basis Set: (AUG-CC-PVTZ AUX)
    Blend: AUG-CC-PVTZ-JKFIT

    Orbital Energies [Eh]
    ---------------------

    Doubly Occupied:

       1A    -20.546386     2A    -11.344564     3A    -11.251504
       4A    -11.238579     5A     -1.377762     6A     -1.044247
       7A     -0.975324     8A     -0.760434     9A     -0.678836
      10A     -0.632303    11A     -0.614318    12A     -0.588300
      13A     -0.544752    14A     -0.506586    15A     -0.460984
      16A     -0.414054

  @DF-RHF Final Energy:  -191.94181564957563

   => Energetics <=

    Nuclear Repulsion Energy =            118.6761673669525550
    One-Electron Energy =                -495.2781034814042869
    Two-Electron Energy =                 184.6601204648761154
    Total Energy =                       -191.9418156495756307
  Basis Set: (AUG-CC-PVTZ AUX)
    Blend: AUG-CC-PVTZ-RI
    Molecular point group: c1

    Geometry (in Angstrom), charge = 0, multiplicity = 1:

       Center              X                  Y                   Z               Mass
    ------------   -----------------  -----------------  -----------------  -----------------
         O            0.026327442129     1.315563681724     0.062152316687    15.994914619570
         C           -0.005823557871     0.088672681724     0.061609316687    12.000000000000
         C            1.280580442129    -0.717518318276     0.062098316687    12.000000000000
         C           -1.307569757871    -0.677988518276    -0.237898683313    12.000000000000
         H            1.106110442129    -1.795035318276     0.062291316687     1.007825032230
         H            1.868339442129    -0.445648318276    -0.818861683313     1.007825032230
         H            1.867966442129    -0.445284318276     0.943197316687     1.007825032230
         H           -1.361948557871    -1.326217318276     0.943336316687     1.007825032230
         H           -2.145108557871     0.019759681724     0.062340316687     1.007825032230
         H           -1.362497557871    -1.326274318276    -0.819052683313     1.007825032230

  Basis Set: AUG-CC-PVTZ
    Blend: AUG-CC-PVTZ
  Basis Set: (AUG-CC-PVTZ AUX)
    Blend: AUG-CC-PVTZ-JKFIT
	 Reference Energy          =    -191.9418156495756307 [Eh]
	 Singles Energy            =      -0.0000000000000000 [Eh]
	 Same-Spin Energy          =      -0.1884624751521514 [Eh]
	 Opposite-Spin Energy      =      -0.6425027099589636 [Eh]
	 Correlation Energy        =      -0.8309651851111151 [Eh]
	 Total Energy              =    -192.7727808346867562 [Eh]

	 ================> DF-SCS-MP2 Energies <==================
	-----------------------------------------------------------
	 SCS Same-Spin Scale       =       0.3333333333333333 [-]
	 SCS Opposite-Spin Scale   =       1.2000000000000000 [-]
	 SCS Same-Spin Energy      =      -0.0628208250507171 [Eh]
	 SCS Opposite-Spin Energy  =      -0.7710032519507564 [Eh]
	 SCS Correlation Energy    =      -0.8338240770014735 [Eh]
	 SCS Total Energy          =    -192.7756397265771113 [Eh]
	-----------------------------------------------------------

  Dipole Moment: [D]
     X:    -0.0043      Y:    -2.8635      Z:    -0.0988     Total:     2.8652

*** Psi4 exiting successfully. Buy a developer a beer!
