                               Psi4 1.3.2 release

  ==> Input File <==

--------------------------------------------------------------------------
#psi4
#
memory 32 gb

molecule  {
0 1
  O        0.0267460     1.3979150     0.0001110
  C       -0.0054050     0.1710240    -0.0004320
  C        1.2809990    -0.6351670     0.0000570
  C       -1.3071511    -0.5956424    -0.0999400
  H        1.1065290    -1.7126840     0.0002500
  H        1.8687580    -0.3632970    -0.8809030
  H        1.8683850    -0.3629330     0.8811560
  H       -1.3615300    -1.2438660     0.8812950
  H       -2.1446900     0.1021110     0.0002990
  H       -1.3620790    -1.2439230    -0.8810940
units angstrom
no_reorient  #important for SAPT in psi4, default
symmetry c1  #important for SAPT in psi4, default
}

set PROPERTIES_ORIGIN ["COM"]
properties('MP2/aug-cc-pvtz', properties = ['dipole'])
--------------------------------------------------------------------------

    Molecular point group: c1
  Charge       = 0
  Multiplicity = 1
  Basis Set: AUG-CC-PVTZ
    Blend: AUG-CC-PVTZ
  Basis Set: (AUG-CC-PVTZ AUX)
    Blend: AUG-CC-PVTZ-JKFIT

    Orbital Energies [Eh]
    ---------------------

    Doubly Occupied:

       1A    -20.544228     2A    -11.337589     3A    -11.240247
       4A    -11.237387     5A     -1.375774     6A     -1.041995
       7A     -0.969729     8A     -0.743823     9A     -0.649210
      10A     -0.635291    11A     -0.618094    12A     -0.576877
      13A     -0.552248    14A     -0.530625    15A     -0.478758
      16A     -0.414738

  @DF-RHF Final Energy:  -192.02345095372948

   => Energetics <=

    Nuclear Repulsion Energy =            118.9363638783383266
    One-Electron Energy =                -496.0264029741724130
    Two-Electron Energy =                 185.0665881421045924
    Total Energy =                       -192.0234509537294798
  Basis Set: (AUG-CC-PVTZ AUX)
    Blend: AUG-CC-PVTZ-RI
    Molecular point group: c1

    Geometry (in Angstrom), charge = 0, multiplicity = 1:

       Center              X                  Y                   Z               Mass
    ------------   -----------------  -----------------  -----------------  -----------------
         O            0.026327421455     1.315564756810     0.020802852680    15.994914619570
         C           -0.005823578545     0.088673756810     0.020259852680    12.000000000000
         C            1.280580421455    -0.717517243190     0.020748852680    12.000000000000
         C           -1.307569678545    -0.677992643190    -0.079248147320    12.000000000000
         H            1.106110421455    -1.795034243190     0.020941852680     1.007825032230
         H            1.868339421455    -0.445647243190    -0.860211147320     1.007825032230
         H            1.867966421455    -0.445283243190     0.901847852680     1.007825032230
         H           -1.361948578545    -1.326216243190     0.901986852680     1.007825032230
         H           -2.145108578545     0.019760756810     0.020990852680     1.007825032230
         H           -1.362497578545    -1.326273243190    -0.860402147320     1.007825032230

  Basis Set: AUG-CC-PVTZ
    Blend: AUG-CC-PVTZ
  Basis Set: (AUG-CC-PVTZ AUX)
    Blend: AUG-CC-PVTZ-JKFIT
	 Reference Energy          =    -192.0234509537294798 [Eh]
	 Singles Energy            =      -0.0000000000000000 [Eh]
	 Same-Spin Energy          =      -0.1875003778979274 [Eh]
	 Opposite-Spin Energy      =      -0.6388674818222461 [Eh]
	 Correlation Energy        =      -0.8263678597201735 [Eh]
	 Total Energy              =    -192.8498188134496445 [Eh]

	 ================> DF-SCS-MP2 Energies <==================
	-----------------------------------------------------------
	 SCS Same-Spin Scale       =       0.3333333333333333 [-]
	 SCS Opposite-Spin Scale   =       1.2000000000000000 [-]
	 SCS Same-Spin Energy      =      -0.0625001259659758 [Eh]
	 SCS Opposite-Spin Energy  =      -0.7666409781866953 [Eh]
	 SCS Correlation Energy    =      -0.8291411041526711 [Eh]
	 SCS Total Energy          =    -192.8525920578821626 [Eh]
	-----------------------------------------------------------

  Dipole Moment: [D]
     X:    -0.0441      Y:    -2.9324      Z:    -0.0406     Total:     2.9330

*** Psi4 exiting successfully. Buy a developer a beer!
