                               Psi4 1.3.2 release

  ==> Input File <==

--------------------------------------------------------------------------
#psi4
#
memory 32 gb

molecule  {
0 1
  O        0.0267460     1.3979150     0.0001110
  C       -0.0054050     0.1710240    -0.0004320
  C        1.2809990    -0.6351670     0.0000570
  C       -1.3071512    -0.5956398    -0.1999400
  H        1.1065290    -1.7126840     0.0002500
  H        1.8687580    -0.3632970    -0.8809030
  H        1.8683850    -0.3629330     0.8811560
  H       -1.3615300    -1.2438660     0.8812950
  H       -2.1446900     0.1021110     0.0002990
  H       -1.3620790    -1.2439230    -0.8810940
units angstrom
no_reorient  #important for SAPT in psi4, default
symmetry c1  #important for SAPT in psi4, default
}

set PROPERTIES_ORIGIN ["COM"]
properties('MP2/aug-cc-pvtz', properties = ['dipole'])
--------------------------------------------------------------------------

    Molecular point group: c1
  Charge       = 0
  Multiplicity = 1
  Basis Set: AUG-CC-PVTZ
    Blend: AUG-CC-PVTZ
  Basis Set: (AUG-CC-PVTZ AUX)
    Blend: AUG-CC-PVTZ-JKFIT

    Orbital Energies [Eh]
    ---------------------

    Doubly Occupied:

       1A    -20.545050     2A    -11.340259     3A    -11.244511
       4A    -11.237827     5A     -1.376536     6A     -1.042755
       7A     -0.971718     8A     -0.749680     9A     -0.665042
      10A     -0.634125    11A     -0.615647    12A     -0.584433
      13A     -0.547313    14A     -0.516786    15A     -0.473171
      16A     -0.414536

  @DF-RHF Final Energy:  -191.99331505619938

   => Energetics <=

    Nuclear Repulsion Energy =            118.8378181744834308
    One-Electron Energy =                -495.7434878091449946
    Two-Electron Energy =                 184.9123545784621570
    Total Energy =                       -191.9933150561993784
  Basis Set: (AUG-CC-PVTZ AUX)
    Blend: AUG-CC-PVTZ-RI
    Molecular point group: c1

    Geometry (in Angstrom), charge = 0, multiplicity = 1:

       Center              X                  Y                   Z               Mass
    ------------   -----------------  -----------------  -----------------  -----------------
         O            0.026327442129     1.315564219267     0.041477584683    15.994914619570
         C           -0.005823557871     0.088673219267     0.040934584683    12.000000000000
         C            1.280580442129    -0.717517780733     0.041423584683    12.000000000000
         C           -1.307569757871    -0.677990580733    -0.158573415317    12.000000000000
         H            1.106110442129    -1.795034780733     0.041616584683     1.007825032230
         H            1.868339442129    -0.445647780733    -0.839536415317     1.007825032230
         H            1.867966442129    -0.445283780733     0.922522584683     1.007825032230
         H           -1.361948557871    -1.326216780733     0.922661584683     1.007825032230
         H           -2.145108557871     0.019760219267     0.041665584683     1.007825032230
         H           -1.362497557871    -1.326273780733    -0.839727415317     1.007825032230

  Basis Set: AUG-CC-PVTZ
    Blend: AUG-CC-PVTZ
  Basis Set: (AUG-CC-PVTZ AUX)
    Blend: AUG-CC-PVTZ-JKFIT
	 Reference Energy          =    -191.9933150561993784 [Eh]
	 Singles Energy            =      -0.0000000000000000 [Eh]
	 Same-Spin Energy          =      -0.1878548382311926 [Eh]
	 Opposite-Spin Energy      =      -0.6402179903204273 [Eh]
	 Correlation Energy        =      -0.8280728285516199 [Eh]
	 Total Energy              =    -192.8213878847510045 [Eh]

	 ================> DF-SCS-MP2 Energies <==================
	-----------------------------------------------------------
	 SCS Same-Spin Scale       =       0.3333333333333333 [-]
	 SCS Opposite-Spin Scale   =       1.2000000000000000 [-]
	 SCS Same-Spin Energy      =      -0.0626182794103975 [Eh]
	 SCS Opposite-Spin Energy  =      -0.7682615883845126 [Eh]
	 SCS Correlation Energy    =      -0.8308798677949102 [Eh]
	 SCS Total Energy          =    -192.8241949239942983 [Eh]
	-----------------------------------------------------------

  Dipole Moment: [D]
     X:    -0.0298      Y:    -2.9040      Z:    -0.0757     Total:     2.9051

*** Psi4 exiting successfully. Buy a developer a beer!
