                               Psi4 1.3.2 release

  ==> Input File <==

--------------------------------------------------------------------------
#psi4
#
memory 32 gb

molecule  {
0 1
  O        0.0267460     1.3979150     0.0001110
  C       -0.0054050     0.1710240    -0.0004320
  C        1.2809990    -0.6351670     0.0000570
  C       -1.3071512    -0.5956385    -0.2499400
  H        1.1065290    -1.7126840     0.0002500
  H        1.8687580    -0.3632970    -0.8809030
  H        1.8683850    -0.3629330     0.8811560
  H       -1.3615300    -1.2438660     0.8812950
  H       -2.1446900     0.1021110     0.0002990
  H       -1.3620790    -1.2439230    -0.8810940
units angstrom
no_reorient  #important for SAPT in psi4, default
symmetry c1  #important for SAPT in psi4, default
}

set PROPERTIES_ORIGIN ["COM"]
properties('MP2/aug-cc-pvtz', properties = ['dipole'])
--------------------------------------------------------------------------

    Molecular point group: c1
  Charge       = 0
  Multiplicity = 1
  Basis Set: AUG-CC-PVTZ
    Blend: AUG-CC-PVTZ
  Basis Set: (AUG-CC-PVTZ AUX)
    Blend: AUG-CC-PVTZ-JKFIT

    Orbital Energies [Eh]
    ---------------------

    Doubly Occupied:

       1A    -20.545657     2A    -11.342220     3A    -11.247677
       4A    -11.238164     5A     -1.377095     6A     -1.043391
       7A     -0.973303     8A     -0.754481     9A     -0.672582
      10A     -0.633283    11A     -0.614867    12A     -0.586700
      13A     -0.545963    14A     -0.510811    15A     -0.467922
      16A     -0.414344

  @DF-RHF Final Energy:  -191.97030030851622

   => Energetics <=

    Nuclear Repulsion Energy =            118.7647332805022984
    One-Electron Energy =                -495.5331516736055164
    Two-Electron Energy =                 184.7981180845870028
    Total Energy =                       -191.9703003085162152
  Basis Set: (AUG-CC-PVTZ AUX)
    Blend: AUG-CC-PVTZ-RI
    Molecular point group: c1

    Geometry (in Angstrom), charge = 0, multiplicity = 1:

       Center              X                  Y                   Z               Mass
    ------------   -----------------  -----------------  -----------------  -----------------
         O            0.026327442129     1.315563950496     0.051814950685    15.994914619570
         C           -0.005823557871     0.088672950496     0.051271950685    12.000000000000
         C            1.280580442129    -0.717518049504     0.051760950685    12.000000000000
         C           -1.307569757871    -0.677989549504    -0.198236049315    12.000000000000
         H            1.106110442129    -1.795035049504     0.051953950685     1.007825032230
         H            1.868339442129    -0.445648049504    -0.829199049315     1.007825032230
         H            1.867966442129    -0.445284049504     0.932859950685     1.007825032230
         H           -1.361948557871    -1.326217049504     0.932998950685     1.007825032230
         H           -2.145108557871     0.019759950496     0.052002950685     1.007825032230
         H           -1.362497557871    -1.326274049504    -0.829390049315     1.007825032230

  Basis Set: AUG-CC-PVTZ
    Blend: AUG-CC-PVTZ
  Basis Set: (AUG-CC-PVTZ AUX)
    Blend: AUG-CC-PVTZ-JKFIT
	 Reference Energy          =    -191.9703003085162152 [Eh]
	 Singles Energy            =      -0.0000000000000000 [Eh]
	 Same-Spin Energy          =      -0.1881256634461665 [Eh]
	 Opposite-Spin Energy      =      -0.6412414713891712 [Eh]
	 Correlation Energy        =      -0.8293671348353377 [Eh]
	 Total Energy              =    -192.7996674433515523 [Eh]

	 ================> DF-SCS-MP2 Energies <==================
	-----------------------------------------------------------
	 SCS Same-Spin Scale       =       0.3333333333333333 [-]
	 SCS Opposite-Spin Scale   =       1.2000000000000000 [-]
	 SCS Same-Spin Energy      =      -0.0627085544820555 [Eh]
	 SCS Opposite-Spin Energy  =      -0.7694897656670054 [Eh]
	 SCS Correlation Energy    =      -0.8321983201490609 [Eh]
	 SCS Total Energy          =    -192.8024986286652620 [Eh]
	-----------------------------------------------------------

  Dipole Moment: [D]
     X:    -0.0186      Y:    -2.8847      Z:    -0.0893     Total:     2.8861

*** Psi4 exiting successfully. Buy a developer a beer!
