                               Psi4 1.3.2 release

  ==> Input File <==

--------------------------------------------------------------------------
#psi4
#
memory 32 gb

molecule  {
0 1
  O        0.0267460     1.3979150     0.0001110
  C       -0.0054050     0.1710240    -0.0004320
  C        1.2809990    -0.6351670     0.0000570
  C       -1.3071510    -0.5956437    -0.0499400
  H        1.1065290    -1.7126840     0.0002500
  H        1.8687580    -0.3632970    -0.8809030
  H        1.8683850    -0.3629330     0.8811560
  H       -1.3615300    -1.2438660     0.8812950
  H       -2.1446900     0.1021110     0.0002990
  H       -1.3620790    -1.2439230    -0.8810940
units angstrom
no_reorient  #important for SAPT in psi4, default
symmetry c1  #important for SAPT in psi4, default
}

set PROPERTIES_ORIGIN ["COM"]
properties('MP2/aug-cc-pvtz', properties = ['dipole'])
--------------------------------------------------------------------------

    Molecular point group: c1
  Charge       = 0
  Multiplicity = 1
  Basis Set: AUG-CC-PVTZ
    Blend: AUG-CC-PVTZ
  Basis Set: (AUG-CC-PVTZ AUX)
    Blend: AUG-CC-PVTZ-JKFIT

    Orbital Energies [Eh]
    ---------------------

    Doubly Occupied:

       1A    -20.544021     2A    -11.336913     3A    -11.239174
       4A    -11.237279     5A     -1.375581     6A     -1.041821
       7A     -0.969257     8A     -0.742511     9A     -0.643407
      10A     -0.635574    11A     -0.619514    12A     -0.571179
      13A     -0.557429    14A     -0.535020    15A     -0.479842
      16A     -0.414778

  @DF-RHF Final Energy:  -192.03086562751940

   => Energetics <=

    Nuclear Repulsion Energy =            118.9611959831927805
    One-Electron Energy =                -496.0975236814130085
    Two-Electron Energy =                 185.1054620707008098
    Total Energy =                       -192.0308656275194039
  Basis Set: (AUG-CC-PVTZ AUX)
    Blend: AUG-CC-PVTZ-RI
    Molecular point group: c1

    Geometry (in Angstrom), charge = 0, multiplicity = 1:

       Center              X                  Y                   Z               Mass
    ------------   -----------------  -----------------  -----------------  -----------------
         O            0.026327400780     1.315565025582     0.010465486678    15.994914619570
         C           -0.005823599220     0.088674025582     0.009922486678    12.000000000000
         C            1.280580400780    -0.717516974418     0.010411486678    12.000000000000
         C           -1.307569599220    -0.677993674418    -0.039585513322    12.000000000000
         H            1.106110400780    -1.795033974418     0.010604486678     1.007825032230
         H            1.868339400780    -0.445646974418    -0.870548513322     1.007825032230
         H            1.867966400780    -0.445282974418     0.891510486678     1.007825032230
         H           -1.361948599220    -1.326215974418     0.891649486678     1.007825032230
         H           -2.145108599220     0.019761025582     0.010653486678     1.007825032230
         H           -1.362497599220    -1.326272974418    -0.870739513322     1.007825032230

  Basis Set: AUG-CC-PVTZ
    Blend: AUG-CC-PVTZ
  Basis Set: (AUG-CC-PVTZ AUX)
    Blend: AUG-CC-PVTZ-JKFIT
	 Reference Energy          =    -192.0308656275194039 [Eh]
	 Singles Energy            =      -0.0000000000000000 [Eh]
	 Same-Spin Energy          =      -0.1874130313147098 [Eh]
	 Opposite-Spin Energy      =      -0.6385326350058562 [Eh]
	 Correlation Energy        =      -0.8259456663205661 [Eh]
	 Total Energy              =    -192.8568112938399679 [Eh]

	 ================> DF-SCS-MP2 Energies <==================
	-----------------------------------------------------------
	 SCS Same-Spin Scale       =       0.3333333333333333 [-]
	 SCS Opposite-Spin Scale   =       1.2000000000000000 [-]
	 SCS Same-Spin Energy      =      -0.0624710104382366 [Eh]
	 SCS Opposite-Spin Energy  =      -0.7662391620070275 [Eh]
	 SCS Correlation Energy    =      -0.8287101724452641 [Eh]
	 SCS Total Energy          =    -192.8595757999646594 [Eh]
	-----------------------------------------------------------

  Dipole Moment: [D]
     X:    -0.0476      Y:    -2.9400      Z:    -0.0207     Total:     2.9404

*** Psi4 exiting successfully. Buy a developer a beer!
