                               Psi4 1.3.2 release

  ==> Input File <==

--------------------------------------------------------------------------
#psi4
#
memory 32 gb

molecule  {
0 1
  O        0.0267460     1.3979150     0.0001110
  C       -0.0054050     0.1710240    -0.0004320
  C        1.2809990    -0.6351670     0.0000570
  C       -1.3071511    -0.5956411    -0.1499400
  H        1.1065290    -1.7126840     0.0002500
  H        1.8687580    -0.3632970    -0.8809030
  H        1.8683850    -0.3629330     0.8811560
  H       -1.3615300    -1.2438660     0.8812950
  H       -2.1446900     0.1021110     0.0002990
  H       -1.3620790    -1.2439230    -0.8810940
units angstrom
no_reorient  #important for SAPT in psi4, default
symmetry c1  #important for SAPT in psi4, default
}

set PROPERTIES_ORIGIN ["COM"]
properties('MP2/aug-cc-pvtz', properties = ['dipole'])
--------------------------------------------------------------------------

    Molecular point group: c1
  Charge       = 0
  Multiplicity = 1
  Basis Set: AUG-CC-PVTZ
    Blend: AUG-CC-PVTZ
  Basis Set: (AUG-CC-PVTZ AUX)
    Blend: AUG-CC-PVTZ-JKFIT

    Orbital Energies [Eh]
    ---------------------

    Doubly Occupied:

       1A    -20.544572     2A    -11.338709     3A    -11.242030
       4A    -11.237569     5A     -1.376094     6A     -1.042300
       7A     -0.970539     8A     -0.746158     9A     -0.656893
      10A     -0.634802    11A     -0.616722    12A     -0.581250
      13A     -0.549156    14A     -0.523909    15A     -0.476668
      16A     -0.414661

  @DF-RHF Final Energy:  -192.01098096055355

   => Energetics <=

    Nuclear Repulsion Energy =            118.8951395790921453
    One-Electron Energy =                -495.9081798401692254
    Two-Electron Energy =                 185.0020593005235412
    Total Energy =                       -192.0109809605535531
  Basis Set: (AUG-CC-PVTZ AUX)
    Blend: AUG-CC-PVTZ-RI
    Molecular point group: c1

    Geometry (in Angstrom), charge = 0, multiplicity = 1:

       Center              X                  Y                   Z               Mass
    ------------   -----------------  -----------------  -----------------  -----------------
         O            0.026327421455     1.315564488039     0.031140218682    15.994914619570
         C           -0.005823578545     0.088673488039     0.030597218682    12.000000000000
         C            1.280580421455    -0.717517511961     0.031086218682    12.000000000000
         C           -1.307569678545    -0.677991611961    -0.118910781318    12.000000000000
         H            1.106110421455    -1.795034511961     0.031279218682     1.007825032230
         H            1.868339421455    -0.445647511961    -0.849873781318     1.007825032230
         H            1.867966421455    -0.445283511961     0.912185218682     1.007825032230
         H           -1.361948578545    -1.326216511961     0.912324218682     1.007825032230
         H           -2.145108578545     0.019760488039     0.031328218682     1.007825032230
         H           -1.362497578545    -1.326273511961    -0.850064781318     1.007825032230

  Basis Set: AUG-CC-PVTZ
    Blend: AUG-CC-PVTZ
  Basis Set: (AUG-CC-PVTZ AUX)
    Blend: AUG-CC-PVTZ-JKFIT
	 Reference Energy          =    -192.0109809605535531 [Eh]
	 Singles Energy            =      -0.0000000000000000 [Eh]
	 Same-Spin Energy          =      -0.1876471323656583 [Eh]
	 Opposite-Spin Energy      =      -0.6394281336891101 [Eh]
	 Correlation Energy        =      -0.8270752660547684 [Eh]
	 Total Energy              =    -192.8380562266083302 [Eh]

	 ================> DF-SCS-MP2 Energies <==================
	-----------------------------------------------------------
	 SCS Same-Spin Scale       =       0.3333333333333333 [-]
	 SCS Opposite-Spin Scale   =       1.2000000000000000 [-]
	 SCS Same-Spin Energy      =      -0.0625490441218861 [Eh]
	 SCS Opposite-Spin Energy  =      -0.7673137604269321 [Eh]
	 SCS Correlation Energy    =      -0.8298628045488182 [Eh]
	 SCS Total Energy          =    -192.8408437651023632 [Eh]
	-----------------------------------------------------------

  Dipole Moment: [D]
     X:    -0.0383      Y:    -2.9202      Z:    -0.0592     Total:     2.9211

*** Psi4 exiting successfully. Buy a developer a beer!
