                               Psi4 1.4a2.dev612

  ==> Input File <==

--------------------------------------------------------------------------
#psi4
#
memory 32 gb

molecule  {
-1 1
  O       -1.1345620     1.3004230     0.1446500
  O        1.3567840     1.0286670    -0.3584360
  O        1.4410930    -1.1800310     0.1828540
  C       -0.6396870    -0.0151150     0.4106200
  C       -1.4459790    -1.0465850    -0.3602330
  C        0.8594390    -0.0718910     0.0480600
  H       -0.7136530    -0.2389580     1.4893480
  H       -1.3405200    -0.8612460    -1.4337260
  H       -1.0819010    -2.0514490    -0.1379210
  H       -2.5056370    -0.9845300    -0.0954150
  H       -0.3074570     1.7452560    -0.1655130
units angstrom
no_reorient  #important for SAPT in psi4, default
symmetry c1  #important for SAPT in psi4, default
}

set PROPERTIES_ORIGIN ["COM"]
properties('MP2/aug-cc-pvtz', properties = ['dipole'])
--------------------------------------------------------------------------

    Molecular point group: c1
  Charge       = -1
  Multiplicity = 1
  Basis Set: AUG-CC-PVTZ
    Blend: AUG-CC-PVTZ
  Basis Set: (AUG-CC-PVTZ AUX)
    Blend: AUG-CC-PVTZ-JKFIT

    Orbital Energies [Eh]
    ---------------------

    Doubly Occupied:

       1A    -20.381714     2A    -20.317725     3A    -20.310051
       4A    -11.152318     5A    -11.116246     6A    -11.071887
       7A     -1.204331     8A     -1.163440     9A     -1.082947
      10A     -0.861992    11A     -0.701391    12A     -0.566524
      13A     -0.500211    14A     -0.477477    15A     -0.436713
      16A     -0.404678    17A     -0.400032    18A     -0.372295
      19A     -0.366014    20A     -0.349200    21A     -0.279101
      22A     -0.233506    23A     -0.215071    24A     -0.213298

  @DF-RHF Final Energy:  -341.27976025727708

   => Energetics <=

    Nuclear Repulsion Energy =            239.0300132269892117
    One-Electron Energy =                -952.2632275423653709
    Two-Electron Energy =                 371.9534540580990551
    Total Energy =                       -341.2797602572770757
  Basis Set: (AUG-CC-PVTZ AUX)
    Blend: AUG-CC-PVTZ-RI
    Molecular point group: c1

    Geometry (in Angstrom), charge = -1, multiplicity = 1:

       Center              X                  Y                   Z               Mass
    ------------   -----------------  -----------------  -----------------  -----------------
         O           -1.200770501652     1.273841673631     0.140822975378    15.994914619570
         O            1.290575498348     1.002085673631    -0.362263024622    15.994914619570
         O            1.374884498348    -1.206612326369     0.179026975378    15.994914619570
         C           -0.705895501652    -0.041696326369     0.406792975378    12.000000000000
         C           -1.512187501652    -1.073166326369    -0.364060024622    12.000000000000
         C            0.793230498348    -0.098472326369     0.044232975378    12.000000000000
         H           -0.779861501652    -0.265539326369     1.485520975378     1.007825032230
         H           -1.406728501652    -0.887827326369    -1.437553024622     1.007825032230
         H           -1.148109501652    -2.078030326369    -0.141748024622     1.007825032230
         H           -2.571845501652    -1.011111326369    -0.099242024622     1.007825032230
         H           -0.373665501652     1.718674673631    -0.169340024622     1.007825032230

  Basis Set: AUG-CC-PVTZ
    Blend: AUG-CC-PVTZ
  Basis Set: (AUG-CC-PVTZ AUX)
    Blend: AUG-CC-PVTZ-JKFIT
	 Reference Energy          =    -341.2797602572770757 [Eh]
	 Singles Energy            =      -0.0000000000000000 [Eh]
	 Same-Spin Energy          =      -0.3364842105674393 [Eh]
	 Opposite-Spin Energy      =      -1.0189832057761985 [Eh]
	 Correlation Energy        =      -1.3554674163436378 [Eh]
	 Total Energy              =    -342.6352276736207045 [Eh]

	 ================> DF-SCS-MP2 Energies <==================
	-----------------------------------------------------------
	 SCS Same-Spin Scale       =       0.3333333333333333 [-]
	 SCS Opposite-Spin Scale   =       1.2000000000000000 [-]
	 SCS Same-Spin Energy      =      -0.1121614035224797 [Eh]
	 SCS Opposite-Spin Energy  =      -1.2227798469314382 [Eh]
	 SCS Correlation Energy    =      -1.3349412504539180 [Eh]
	 SCS Total Energy          =    -342.6147015077310130 [Eh]
	-----------------------------------------------------------

  Dipole Moment: [D]
     X:    -3.7976      Y:    -0.4743      Z:     0.3666     Total:     3.8446

*** Psi4 exiting successfully. Buy a developer a beer!
