                               Psi4 1.4a2.dev612

  ==> Input File <==

--------------------------------------------------------------------------
#psi4
#
memory 32 gb

molecule  {
-1 1
  O       -1.1345620     1.3004230     0.1446500
  O        1.3567840     1.0286670    -0.3584360
  O        1.4410930    -1.1800310     0.1828540
  C       -0.6634148    -0.0390915     0.3164812
  C       -1.4459790    -1.0465850    -0.3602330
  C        0.8594390    -0.0718910     0.0480600
  H       -0.7136530    -0.2389580     1.4893480
  H       -1.3405200    -0.8612460    -1.4337260
  H       -1.0819010    -2.0514490    -0.1379210
  H       -2.5056370    -0.9845300    -0.0954150
  H       -0.3074570     1.7452560    -0.1655130
units angstrom
no_reorient  #important for SAPT in psi4, default
symmetry c1  #important for SAPT in psi4, default
}

set PROPERTIES_ORIGIN ["COM"]
properties('MP2/aug-cc-pvtz', properties = ['dipole'])
--------------------------------------------------------------------------

    Molecular point group: c1
  Charge       = -1
  Multiplicity = 1
  Basis Set: AUG-CC-PVTZ
    Blend: AUG-CC-PVTZ
  Basis Set: (AUG-CC-PVTZ AUX)
    Blend: AUG-CC-PVTZ-JKFIT

    Orbital Energies [Eh]
    ---------------------

    Doubly Occupied:

       1A    -20.382864     2A    -20.318303     3A    -20.310198
       4A    -11.153697     5A    -11.120243     6A    -11.071259
       7A     -1.205381     8A     -1.164300     9A     -1.083417
      10A     -0.880491    11A     -0.694635    12A     -0.565630
      13A     -0.496958    14A     -0.481455    15A     -0.444691
      16A     -0.410165    17A     -0.403559    18A     -0.371960
      19A     -0.365931    20A     -0.346711    21A     -0.273351
      22A     -0.232826    23A     -0.214423    24A     -0.212917

  @DF-RHF Final Energy:  -341.26864263322875

   => Energetics <=

    Nuclear Repulsion Energy =            239.5719813805608283
    One-Electron Energy =                -953.2705228318741320
    Two-Electron Energy =                 372.4298988180845527
    Total Energy =                       -341.2686426332287510
  Basis Set: (AUG-CC-PVTZ AUX)
    Blend: AUG-CC-PVTZ-RI
    Molecular point group: c1

    Geometry (in Angstrom), charge = -1, multiplicity = 1:

       Center              X                  Y                   Z               Mass
    ------------   -----------------  -----------------  -----------------  -----------------
         O           -1.197572105502     1.277073593376     0.153512444084    15.994914619570
         O            1.293773894498     1.005317593376    -0.349573555916    15.994914619570
         O            1.378082894498    -1.203380406624     0.191716444084    15.994914619570
         C           -0.726424905502    -0.062440906624     0.325343644084    12.000000000000
         C           -1.508989105502    -1.069934406624    -0.351370555916    12.000000000000
         C            0.796428894498    -0.095240406624     0.056922444084    12.000000000000
         H           -0.776663105502    -0.262307406624     1.498210444084     1.007825032230
         H           -1.403530105502    -0.884595406624    -1.424863555916     1.007825032230
         H           -1.144911105502    -2.074798406624    -0.129058555916     1.007825032230
         H           -2.568647105502    -1.007879406624    -0.086552555916     1.007825032230
         H           -0.370467105502     1.721906593376    -0.156650555916     1.007825032230

  Basis Set: AUG-CC-PVTZ
    Blend: AUG-CC-PVTZ
  Basis Set: (AUG-CC-PVTZ AUX)
    Blend: AUG-CC-PVTZ-JKFIT
	 Reference Energy          =    -341.2686426332287510 [Eh]
	 Singles Energy            =      -0.0000000000000000 [Eh]
	 Same-Spin Energy          =      -0.3372121559704306 [Eh]
	 Opposite-Spin Energy      =      -1.0199969079741429 [Eh]
	 Correlation Energy        =      -1.3572090639445735 [Eh]
	 Total Energy              =    -342.6258516971733457 [Eh]

	 ================> DF-SCS-MP2 Energies <==================
	-----------------------------------------------------------
	 SCS Same-Spin Scale       =       0.3333333333333333 [-]
	 SCS Opposite-Spin Scale   =       1.2000000000000000 [-]
	 SCS Same-Spin Energy      =      -0.1124040519901435 [Eh]
	 SCS Opposite-Spin Energy  =      -1.2239962895689713 [Eh]
	 SCS Correlation Energy    =      -1.3364003415591148 [Eh]
	 SCS Total Energy          =    -342.6050429747878638 [Eh]
	-----------------------------------------------------------

  Dipole Moment: [D]
     X:    -3.8634      Y:    -0.5482      Z:     0.1037     Total:     3.9035

*** Psi4 exiting successfully. Buy a developer a beer!
