                               Psi4 1.4a2.dev612

  ==> Input File <==

--------------------------------------------------------------------------
#psi4
#
memory 32 gb

molecule  {
-1 1
  O       -1.1345620     1.3004230     0.1446500
  O        1.3567840     1.0286670    -0.3584360
  O        1.4410930    -1.1800310     0.1828540
  C       -0.6515509    -0.0271033     0.3635506
  C       -1.4459790    -1.0465850    -0.3602330
  C        0.8594390    -0.0718910     0.0480600
  H       -0.7136530    -0.2389580     1.4893480
  H       -1.3405200    -0.8612460    -1.4337260
  H       -1.0819010    -2.0514490    -0.1379210
  H       -2.5056370    -0.9845300    -0.0954150
  H       -0.3074570     1.7452560    -0.1655130
units angstrom
no_reorient  #important for SAPT in psi4, default
symmetry c1  #important for SAPT in psi4, default
}

set PROPERTIES_ORIGIN ["COM"]
properties('MP2/aug-cc-pvtz', properties = ['dipole'])
--------------------------------------------------------------------------

    Molecular point group: c1
  Charge       = -1
  Multiplicity = 1
  Basis Set: AUG-CC-PVTZ
    Blend: AUG-CC-PVTZ
  Basis Set: (AUG-CC-PVTZ AUX)
    Blend: AUG-CC-PVTZ-JKFIT

    Orbital Energies [Eh]
    ---------------------

    Doubly Occupied:

       1A    -20.382161     2A    -20.317962     3A    -20.310095
       4A    -11.152764     5A    -11.117984     6A    -11.071540
       7A     -1.204950     8A     -1.163929     9A     -1.083137
      10A     -0.870692    11A     -0.697930    12A     -0.565879
      13A     -0.498338    14A     -0.479097    15A     -0.440493
      16A     -0.407177    17A     -0.401919    18A     -0.371763
      19A     -0.365622    20A     -0.348358    21A     -0.277451
      22A     -0.233227    23A     -0.214787    24A     -0.213262

  @DF-RHF Final Energy:  -341.27666674893584

   => Energetics <=

    Nuclear Repulsion Energy =            239.3145252796056752
    One-Electron Energy =                -952.8013471992438781
    Two-Electron Energy =                 372.2101551707024214
    Total Energy =                       -341.2766667489358383
  Basis Set: (AUG-CC-PVTZ AUX)
    Blend: AUG-CC-PVTZ-RI
    Molecular point group: c1

    Geometry (in Angstrom), charge = -1, multiplicity = 1:

       Center              X                  Y                   Z               Mass
    ------------   -----------------  -----------------  -----------------  -----------------
         O           -1.199171303577     1.275457640243     0.147167709731    15.994914619570
         O            1.292174696423     1.003701640243    -0.355918290269    15.994914619570
         O            1.376483696423    -1.204996359757     0.185371709731    15.994914619570
         C           -0.716160203577    -0.052068659757     0.366068309731    12.000000000000
         C           -1.510588303577    -1.071550359757    -0.357715290269    12.000000000000
         C            0.794829696423    -0.096856359757     0.050577709731    12.000000000000
         H           -0.778262303577    -0.263923359757     1.491865709731     1.007825032230
         H           -1.405129303577    -0.886211359757    -1.431208290269     1.007825032230
         H           -1.146510303577    -2.076414359757    -0.135403290269     1.007825032230
         H           -2.570246303577    -1.009495359757    -0.092897290269     1.007825032230
         H           -0.372066303577     1.720290640243    -0.162995290269     1.007825032230

  Basis Set: AUG-CC-PVTZ
    Blend: AUG-CC-PVTZ
  Basis Set: (AUG-CC-PVTZ AUX)
    Blend: AUG-CC-PVTZ-JKFIT
	 Reference Energy          =    -341.2766667489358383 [Eh]
	 Singles Energy            =      -0.0000000000000000 [Eh]
	 Same-Spin Energy          =      -0.3367833685376961 [Eh]
	 Opposite-Spin Energy      =      -1.0193401745635142 [Eh]
	 Correlation Energy        =      -1.3561235431012104 [Eh]
	 Total Energy              =    -342.6327902920370434 [Eh]

	 ================> DF-SCS-MP2 Energies <==================
	-----------------------------------------------------------
	 SCS Same-Spin Scale       =       0.3333333333333333 [-]
	 SCS Opposite-Spin Scale   =       1.2000000000000000 [-]
	 SCS Same-Spin Energy      =      -0.1122611228458987 [Eh]
	 SCS Opposite-Spin Energy  =      -1.2232082094762171 [Eh]
	 SCS Correlation Energy    =      -1.3354693323221158 [Eh]
	 SCS Total Energy          =    -342.6121360812579724 [Eh]
	-----------------------------------------------------------

  Dipole Moment: [D]
     X:    -3.8322      Y:    -0.5120      Z:     0.2390     Total:     3.8737

*** Psi4 exiting successfully. Buy a developer a beer!
