                               Psi4 1.4a2.dev612

  ==> Input File <==

--------------------------------------------------------------------------
#psi4
#
memory 32 gb

molecule  {
-1 1
  O       -1.1345620     1.3004230     0.1446500
  O        1.3567840     1.0286670    -0.3584360
  O        1.4410930    -1.1800310     0.1828540
  C       -0.6990064    -0.0750563     0.1752729
  C       -1.4459790    -1.0465850    -0.3602330
  C        0.8594390    -0.0718910     0.0480600
  H       -0.7136530    -0.2389580     1.4893480
  H       -1.3405200    -0.8612460    -1.4337260
  H       -1.0819010    -2.0514490    -0.1379210
  H       -2.5056370    -0.9845300    -0.0954150
  H       -0.3074570     1.7452560    -0.1655130
units angstrom
no_reorient  #important for SAPT in psi4, default
symmetry c1  #important for SAPT in psi4, default
}

set PROPERTIES_ORIGIN ["COM"]
properties('MP2/aug-cc-pvtz', properties = ['dipole'])
--------------------------------------------------------------------------

    Molecular point group: c1
  Charge       = -1
  Multiplicity = 1
  Basis Set: AUG-CC-PVTZ
    Blend: AUG-CC-PVTZ
  Basis Set: (AUG-CC-PVTZ AUX)
    Blend: AUG-CC-PVTZ-JKFIT

    Orbital Energies [Eh]
    ---------------------

    Doubly Occupied:

       1A    -20.386414     2A    -20.319976     3A    -20.310935
       4A    -11.159343     5A    -11.130041     6A    -11.071216
       7A     -1.205588     8A     -1.164759     9A     -1.084826
      10A     -0.916240    11A     -0.685206    12A     -0.566524
      13A     -0.497574    14A     -0.492818    15A     -0.458044
      16A     -0.420780    17A     -0.407616    18A     -0.376166
      19A     -0.364495    20A     -0.343122    21A     -0.253909
      22A     -0.230667    23A     -0.214679    24A     -0.204898

  @DF-RHF Final Energy:  -341.21612142334243

   => Energetics <=

    Nuclear Repulsion Energy =            240.1796766133177812
    One-Electron Energy =                -954.2599196350707871
    Two-Electron Energy =                 372.8641215984105202
    Total Energy =                       -341.2161214233424289
  Basis Set: (AUG-CC-PVTZ AUX)
    Blend: AUG-CC-PVTZ-RI
    Molecular point group: c1

    Geometry (in Angstrom), charge = -1, multiplicity = 1:

       Center              X                  Y                   Z               Mass
    ------------   -----------------  -----------------  -----------------  -----------------
         O           -1.192774524755     1.281921479732     0.172546660623    15.994914619570
         O            1.298571475245     1.010165479732    -0.330539339377    15.994914619570
         O            1.382880475245    -1.198532520268     0.210750660623    15.994914619570
         C           -0.757218924755    -0.093557820268     0.203169560623    12.000000000000
         C           -1.504191524755    -1.065086520268    -0.332336339377    12.000000000000
         C            0.801226475245    -0.090392520268     0.075956660623    12.000000000000
         H           -0.771865524755    -0.257459520268     1.517244660623     1.007825032230
         H           -1.398732524755    -0.879747520268    -1.405829339377     1.007825032230
         H           -1.140113524755    -2.069950520268    -0.110024339377     1.007825032230
         H           -2.563849524755    -1.003031520268    -0.067518339377     1.007825032230
         H           -0.365669524755     1.726754479732    -0.137616339377     1.007825032230

  Basis Set: AUG-CC-PVTZ
    Blend: AUG-CC-PVTZ
  Basis Set: (AUG-CC-PVTZ AUX)
    Blend: AUG-CC-PVTZ-JKFIT
	 Reference Energy          =    -341.2161214233424289 [Eh]
	 Singles Energy            =      -0.0000000000000000 [Eh]
	 Same-Spin Energy          =      -0.3393039607762512 [Eh]
	 Opposite-Spin Energy      =      -1.0236493644819529 [Eh]
	 Correlation Energy        =      -1.3629533252582040 [Eh]
	 Total Energy              =    -342.5790747486006467 [Eh]

	 ================> DF-SCS-MP2 Energies <==================
	-----------------------------------------------------------
	 SCS Same-Spin Scale       =       0.3333333333333333 [-]
	 SCS Opposite-Spin Scale   =       1.2000000000000000 [-]
	 SCS Same-Spin Energy      =      -0.1131013202587504 [Eh]
	 SCS Opposite-Spin Energy  =      -1.2283792373783433 [Eh]
	 SCS Correlation Energy    =      -1.3414805576370936 [Eh]
	 SCS Total Energy          =    -342.5576019809795412 [Eh]
	-----------------------------------------------------------

  Dipole Moment: [D]
     X:    -3.9370      Y:    -0.6523      Z:    -0.3541     Total:     4.0064

*** Psi4 exiting successfully. Buy a developer a beer!
