                               Psi4 1.4a2.dev612

  ==> Input File <==

--------------------------------------------------------------------------
#psi4
#
memory 32 gb

molecule  {
-1 1
  O       -1.1345620     1.3004230     0.1446500
  O        1.3567840     1.0286670    -0.3584360
  O        1.4410930    -1.1800310     0.1828540
  C       -0.6752786    -0.0510798     0.2694117
  C       -1.4459790    -1.0465850    -0.3602330
  C        0.8594390    -0.0718910     0.0480600
  H       -0.7136530    -0.2389580     1.4893480
  H       -1.3405200    -0.8612460    -1.4337260
  H       -1.0819010    -2.0514490    -0.1379210
  H       -2.5056370    -0.9845300    -0.0954150
  H       -0.3074570     1.7452560    -0.1655130
units angstrom
no_reorient  #important for SAPT in psi4, default
symmetry c1  #important for SAPT in psi4, default
}

set PROPERTIES_ORIGIN ["COM"]
properties('MP2/aug-cc-pvtz', properties = ['dipole'])
--------------------------------------------------------------------------

    Molecular point group: c1
  Charge       = -1
  Multiplicity = 1
  Basis Set: AUG-CC-PVTZ
    Blend: AUG-CC-PVTZ
  Basis Set: (AUG-CC-PVTZ AUX)
    Blend: AUG-CC-PVTZ-JKFIT

    Orbital Energies [Eh]
    ---------------------

    Doubly Occupied:

       1A    -20.383814     2A    -20.318751     3A    -20.310366
       4A    -11.155111     5A    -11.123016     6A    -11.071079
       7A     -1.205622     8A     -1.164558     9A     -1.083788
      10A     -0.891367    11A     -0.691446    12A     -0.565683
      13A     -0.496157    14A     -0.484678    15A     -0.449152
      16A     -0.413511    17A     -0.405010    18A     -0.373016
      19A     -0.365879    20A     -0.345137    21A     -0.267373
      22A     -0.232278    23A     -0.214315    24A     -0.211685

  @DF-RHF Final Energy:  -341.25582313044720

   => Energetics <=

    Nuclear Repulsion Energy =            239.8020312050907421
    One-Electron Energy =                -953.6701310959018656
    Two-Electron Energy =                 372.6122767603638977
    Total Energy =                       -341.2558231304471974
  Basis Set: (AUG-CC-PVTZ AUX)
    Blend: AUG-CC-PVTZ-RI
    Molecular point group: c1

    Geometry (in Angstrom), charge = -1, multiplicity = 1:

       Center              X                  Y                   Z               Mass
    ------------   -----------------  -----------------  -----------------  -----------------
         O           -1.195972920906     1.278689559988     0.159857191917    15.994914619570
         O            1.295373079094     1.006933559988    -0.343228808083    15.994914619570
         O            1.379682079094    -1.201764440012     0.198061191917    15.994914619570
         C           -0.736689520906    -0.072813240012     0.284618891917    12.000000000000
         C           -1.507389920906    -1.068318440012    -0.345025808083    12.000000000000
         C            0.798028079094    -0.093624440012     0.063267191917    12.000000000000
         H           -0.775063920906    -0.260691440012     1.504555191917     1.007825032230
         H           -1.401930920906    -0.882979440012    -1.418518808083     1.007825032230
         H           -1.143311920906    -2.073182440012    -0.122713808083     1.007825032230
         H           -2.567047920906    -1.006263440012    -0.080207808083     1.007825032230
         H           -0.368867920906     1.723522559988    -0.150305808083     1.007825032230

  Basis Set: AUG-CC-PVTZ
    Blend: AUG-CC-PVTZ
  Basis Set: (AUG-CC-PVTZ AUX)
    Blend: AUG-CC-PVTZ-JKFIT
	 Reference Energy          =    -341.2558231304471974 [Eh]
	 Singles Energy            =      -0.0000000000000000 [Eh]
	 Same-Spin Energy          =      -0.3377735366866896 [Eh]
	 Opposite-Spin Energy      =      -1.0209407881364796 [Eh]
	 Correlation Energy        =      -1.3587143248231692 [Eh]
	 Total Energy              =    -342.6145374552703515 [Eh]

	 ================> DF-SCS-MP2 Energies <==================
	-----------------------------------------------------------
	 SCS Same-Spin Scale       =       0.3333333333333333 [-]
	 SCS Opposite-Spin Scale   =       1.2000000000000000 [-]
	 SCS Same-Spin Energy      =      -0.1125911788955632 [Eh]
	 SCS Opposite-Spin Energy  =      -1.2251289457637755 [Eh]
	 SCS Correlation Energy    =      -1.3377201246593386 [Eh]
	 SCS Total Energy          =    -342.5935432551065105 [Eh]
	-----------------------------------------------------------

  Dipole Moment: [D]
     X:    -3.8912      Y:    -0.5831      Z:    -0.0398     Total:     3.9348

*** Psi4 exiting successfully. Buy a developer a beer!
