                               Psi4 1.4a2.dev612

  ==> Input File <==

--------------------------------------------------------------------------
#psi4
#
memory 32 gb

molecule  {
-1 1
  O       -1.1345620     1.3004230     0.1446500
  O        1.3567840     1.0286670    -0.3584360
  O        1.4410930    -1.1800310     0.1828540
  C       -0.6871425    -0.0630680     0.2223423
  C       -1.4459790    -1.0465850    -0.3602330
  C        0.8594390    -0.0718910     0.0480600
  H       -0.7136530    -0.2389580     1.4893480
  H       -1.3405200    -0.8612460    -1.4337260
  H       -1.0819010    -2.0514490    -0.1379210
  H       -2.5056370    -0.9845300    -0.0954150
  H       -0.3074570     1.7452560    -0.1655130
units angstrom
no_reorient  #important for SAPT in psi4, default
symmetry c1  #important for SAPT in psi4, default
}

set PROPERTIES_ORIGIN ["COM"]
properties('MP2/aug-cc-pvtz', properties = ['dipole'])
--------------------------------------------------------------------------

    Molecular point group: c1
  Charge       = -1
  Multiplicity = 1
  Basis Set: AUG-CC-PVTZ
    Blend: AUG-CC-PVTZ
  Basis Set: (AUG-CC-PVTZ AUX)
    Blend: AUG-CC-PVTZ-JKFIT

    Orbital Energies [Eh]
    ---------------------

    Doubly Occupied:

       1A    -20.385001     2A    -20.319308     3A    -20.310608
       4A    -11.156997     5A    -11.126289     6A    -11.071045
       7A     -1.205683     8A     -1.164710     9A     -1.084256
      10A     -0.903295    11A     -0.688315    12A     -0.565985
      13A     -0.496092    14A     -0.488730    15A     -0.453668
      16A     -0.417078    17A     -0.406345    18A     -0.374555
      19A     -0.365325    20A     -0.343951    21A     -0.260496
      22A     -0.231559    23A     -0.214444    24A     -0.209169

  @DF-RHF Final Energy:  -341.23829647890864

   => Energetics <=

    Nuclear Repulsion Energy =            240.0045658699535522
    One-Electron Energy =                -953.9999169630556253
    Two-Electron Energy =                 372.7570546141934074
    Total Energy =                       -341.2382964789086373
  Basis Set: (AUG-CC-PVTZ AUX)
    Blend: AUG-CC-PVTZ-RI
    Molecular point group: c1

    Geometry (in Angstrom), charge = -1, multiplicity = 1:

       Center              X                  Y                   Z               Mass
    ------------   -----------------  -----------------  -----------------  -----------------
         O           -1.194373722830     1.280305513120     0.166201926270    15.994914619570
         O            1.296972277170     1.008549513120    -0.336884073730    15.994914619570
         O            1.381281277170    -1.200148486880     0.204405926270    15.994914619570
         C           -0.746954222830    -0.083185486880     0.243894226270    12.000000000000
         C           -1.505790722830    -1.066702486880    -0.338681073730    12.000000000000
         C            0.799627277170    -0.092008486880     0.069611926270    12.000000000000
         H           -0.773464722830    -0.259075486880     1.510899926270     1.007825032230
         H           -1.400331722830    -0.881363486880    -1.412174073730     1.007825032230
         H           -1.141712722830    -2.071566486880    -0.116369073730     1.007825032230
         H           -2.565448722830    -1.004647486880    -0.073863073730     1.007825032230
         H           -0.367268722830     1.725138513120    -0.143961073730     1.007825032230

  Basis Set: AUG-CC-PVTZ
    Blend: AUG-CC-PVTZ
  Basis Set: (AUG-CC-PVTZ AUX)
    Blend: AUG-CC-PVTZ-JKFIT
	 Reference Energy          =    -341.2382964789086373 [Eh]
	 Singles Energy            =      -0.0000000000000000 [Eh]
	 Same-Spin Energy          =      -0.3384702901380898 [Eh]
	 Opposite-Spin Energy      =      -1.0221614934149768 [Eh]
	 Correlation Energy        =      -1.3606317835530666 [Eh]
	 Total Energy              =    -342.5989282624616976 [Eh]

	 ================> DF-SCS-MP2 Energies <==================
	-----------------------------------------------------------
	 SCS Same-Spin Scale       =       0.3333333333333333 [-]
	 SCS Opposite-Spin Scale   =       1.2000000000000000 [-]
	 SCS Same-Spin Energy      =      -0.1128234300460299 [Eh]
	 SCS Opposite-Spin Energy  =      -1.2265937920979721 [Eh]
	 SCS Correlation Energy    =      -1.3394172221440022 [Eh]
	 SCS Total Energy          =    -342.5777137010526303 [Eh]
	-----------------------------------------------------------

  Dipole Moment: [D]
     X:    -3.9156      Y:    -0.6175      Z:    -0.1921     Total:     3.9686

*** Psi4 exiting successfully. Buy a developer a beer!
