                               Psi4 1.4a2.dev612

  ==> Input File <==

--------------------------------------------------------------------------
#psi4
#
memory 32 gb

molecule  {
-1 1
  O       -1.1345620     1.3004230     0.1446500
  O        1.3567840     1.0286670    -0.3584360
  O        1.4410930    -1.1800310     0.1828540
  C       -0.7108703    -0.0870445     0.1282035
  C       -1.4459790    -1.0465850    -0.3602330
  C        0.8594390    -0.0718910     0.0480600
  H       -0.7136530    -0.2389580     1.4893480
  H       -1.3405200    -0.8612460    -1.4337260
  H       -1.0819010    -2.0514490    -0.1379210
  H       -2.5056370    -0.9845300    -0.0954150
  H       -0.3074570     1.7452560    -0.1655130
units angstrom
no_reorient  #important for SAPT in psi4, default
symmetry c1  #important for SAPT in psi4, default
}

set PROPERTIES_ORIGIN ["COM"]
properties('MP2/aug-cc-pvtz', properties = ['dipole'])
--------------------------------------------------------------------------

    Molecular point group: c1
  Charge       = -1
  Multiplicity = 1
  Basis Set: AUG-CC-PVTZ
    Blend: AUG-CC-PVTZ
  Basis Set: (AUG-CC-PVTZ AUX)
    Blend: AUG-CC-PVTZ-JKFIT

    Orbital Energies [Eh]
    ---------------------

    Doubly Occupied:

       1A    -20.388037     2A    -20.320758     3A    -20.311357
       4A    -11.162135     5A    -11.134245     6A    -11.071663
       7A     -1.205369     8A     -1.164706     9A     -1.085506
      10A     -0.930149    11A     -0.682099    12A     -0.567325
      13A     -0.502353    14A     -0.495103    15A     -0.462161
      16A     -0.424581    17A     -0.408856    18A     -0.377676
      19A     -0.363533    20A     -0.342529    21A     -0.248632
      22A     -0.229661    23A     -0.214972    24A     -0.198355

  @DF-RHF Final Energy:  -341.18934859220155

   => Energetics <=

    Nuclear Repulsion Energy =            240.3275914275899652
    One-Electron Energy =                -954.4503573543881885
    Two-Electron Energy =                 372.9334173345966974
    Total Energy =                       -341.1893485922015543
  Basis Set: (AUG-CC-PVTZ AUX)
    Blend: AUG-CC-PVTZ-RI
    Molecular point group: c1

    Geometry (in Angstrom), charge = -1, multiplicity = 1:

       Center              X                  Y                   Z               Mass
    ------------   -----------------  -----------------  -----------------  -----------------
         O           -1.191175326680     1.283537432864     0.178891394975    15.994914619570
         O            1.300170673320     1.011781432864    -0.324194605025    15.994914619570
         O            1.384479673320    -1.196916567136     0.217095394975    15.994914619570
         C           -0.767483626680    -0.103930067136     0.162444894975    12.000000000000
         C           -1.502592326680    -1.063470567136    -0.325991605025    12.000000000000
         C            0.802825673320    -0.088776567136     0.082301394975    12.000000000000
         H           -0.770266326680    -0.255843567136     1.523589394975     1.007825032230
         H           -1.397133326680    -0.878131567136    -1.399484605025     1.007825032230
         H           -1.138514326680    -2.068334567136    -0.103679605025     1.007825032230
         H           -2.562250326680    -1.001415567136    -0.061173605025     1.007825032230
         H           -0.364070326680     1.728370432864    -0.131271605025     1.007825032230

  Basis Set: AUG-CC-PVTZ
    Blend: AUG-CC-PVTZ
  Basis Set: (AUG-CC-PVTZ AUX)
    Blend: AUG-CC-PVTZ-JKFIT
	 Reference Energy          =    -341.1893485922015543 [Eh]
	 Singles Energy            =      -0.0000000000000000 [Eh]
	 Same-Spin Energy          =      -0.3402733759873005 [Eh]
	 Opposite-Spin Energy      =      -1.0253927805810259 [Eh]
	 Correlation Energy        =      -1.3656661565683264 [Eh]
	 Total Energy              =    -342.5550147487699064 [Eh]

	 ================> DF-SCS-MP2 Energies <==================
	-----------------------------------------------------------
	 SCS Same-Spin Scale       =       0.3333333333333333 [-]
	 SCS Opposite-Spin Scale   =       1.2000000000000000 [-]
	 SCS Same-Spin Energy      =      -0.1134244586624335 [Eh]
	 SCS Opposite-Spin Energy  =      -1.2304713366972311 [Eh]
	 SCS Correlation Energy    =      -1.3438957953596646 [Eh]
	 SCS Total Energy          =    -342.5332443875612398 [Eh]
	-----------------------------------------------------------

  Dipole Moment: [D]
     X:    -3.9558      Y:    -0.6883      Z:    -0.5269     Total:     4.0496

*** Psi4 exiting successfully. Buy a developer a beer!
