                               Psi4 1.3.2 release

  ==> Input File <==

--------------------------------------------------------------------------
#psi4
#
memory 32 gb

molecule  {
0 1
  N        2.3228640    -0.0000190    -0.0807740
  N       -1.9067410     0.0000080     0.0117080
  C        0.9299840    -0.0000240    -0.0024660
  C        0.1996340     1.1955560    -0.0090950
  C        0.1996160    -1.1955790    -0.0091200
  C       -1.1907070     1.1396190     0.0037780
  C       -1.1907490    -1.1395810     0.0038230
  H        0.7084684     2.1562127    -0.1157395
  H        0.7090670    -2.1569450    -0.0157620
  H       -1.7697200     2.0619740     0.0063330
  H       -1.7697630    -2.0619320     0.0061490
  H        2.7609080    -0.8358400     0.2906890
  H        2.7608480     0.8359780     0.2902720
units angstrom
no_reorient  #important for SAPT in psi4, default
symmetry c1  #important for SAPT in psi4, default
}

set PROPERTIES_ORIGIN ["COM"]
properties('MP2/aug-cc-pvtz', properties = ['dipole'])
--------------------------------------------------------------------------

    Molecular point group: c1
  Charge       = 0
  Multiplicity = 1
  Basis Set: AUG-CC-PVTZ
    Blend: AUG-CC-PVTZ
  Basis Set: (AUG-CC-PVTZ AUX)
    Blend: AUG-CC-PVTZ-JKFIT

    Orbital Energies [Eh]
    ---------------------

    Doubly Occupied:

       1A    -15.585150     2A    -15.551125     3A    -11.303183
       4A    -11.274921     5A    -11.274889     6A    -11.232011
       7A    -11.231781     8A     -1.255603     9A     -1.224209
      10A     -1.051614    11A     -1.027679    12A     -0.857480
      13A     -0.842501    14A     -0.718557    15A     -0.710216
      16A     -0.653450    17A     -0.622823    18A     -0.607689
      19A     -0.590006    20A     -0.555364    21A     -0.510312
      22A     -0.486747    23A     -0.414137    24A     -0.347386
      25A     -0.335056

  @DF-RHF Final Energy:  -301.83672774240347

   => Energetics <=

    Nuclear Repulsion Energy =            273.6747559655891564
    One-Electron Energy =                -950.4951889874596418
    Two-Electron Energy =                 374.9837052794670171
    Total Energy =                       -301.8367277424034683
  Basis Set: (AUG-CC-PVTZ AUX)
    Blend: AUG-CC-PVTZ-RI
    Molecular point group: c1

    Geometry (in Angstrom), charge = 0, multiplicity = 1:

       Center              X                  Y                   Z               Mass
    ------------   -----------------  -----------------  -----------------  -----------------
         N            2.358729387640    -0.000010295815    -0.073772209366    14.003074004430
         N           -1.870875612360     0.000016704185     0.018709790634    14.003074004430
         C            0.965849387640    -0.000015295815     0.004535790634    12.000000000000
         C            0.235499387640     1.195564704185    -0.002093209366    12.000000000000
         C            0.235481387640    -1.195570295815    -0.002118209366    12.000000000000
         C           -1.154841612360     1.139627704185     0.010779790634    12.000000000000
         C           -1.154883612360    -1.139572295815     0.010824790634    12.000000000000
         H            0.744333787640     2.156221404185    -0.108737709366     1.007825032230
         H            0.744932387640    -2.156936295815    -0.008760209366     1.007825032230
         H           -1.733854612360     2.061982704185     0.013334790634     1.007825032230
         H           -1.733897612360    -2.061923295815     0.013150790634     1.007825032230
         H            2.796773387640    -0.835831295815     0.297690790634     1.007825032230
         H            2.796713387640     0.835986704185     0.297273790634     1.007825032230

  Basis Set: AUG-CC-PVTZ
    Blend: AUG-CC-PVTZ
  Basis Set: (AUG-CC-PVTZ AUX)
    Blend: AUG-CC-PVTZ-JKFIT
	 Reference Energy          =    -301.8367277424034683 [Eh]
	 Singles Energy            =      -0.0000000000000000 [Eh]
	 Same-Spin Energy          =      -0.3281300446698774 [Eh]
	 Opposite-Spin Energy      =      -1.0131754787635070 [Eh]
	 Correlation Energy        =      -1.3413055234333844 [Eh]
	 Total Energy              =    -303.1780332658368593 [Eh]

	 ================> DF-SCS-MP2 Energies <==================
	-----------------------------------------------------------
	 SCS Same-Spin Scale       =       0.3333333333333333 [-]
	 SCS Opposite-Spin Scale   =       1.2000000000000000 [-]
	 SCS Same-Spin Energy      =      -0.1093766815566258 [Eh]
	 SCS Opposite-Spin Energy  =      -1.2158105745162084 [Eh]
	 SCS Correlation Energy    =      -1.3251872560728342 [Eh]
	 SCS Total Energy          =    -303.1619149984762771 [Eh]
	-----------------------------------------------------------

  Dipole Moment: [D]
     X:     3.5889      Y:    -0.0067      Z:     0.9140     Total:     3.7035

*** Psi4 exiting successfully. Buy a developer a beer!
