                               Psi4 1.3.2 release

  ==> Input File <==

--------------------------------------------------------------------------
#psi4
#
memory 32 gb

molecule  {
0 1
  N        2.3228640    -0.0000190    -0.0807740
  N       -1.9067410     0.0000080     0.0117080
  C        0.9299840    -0.0000240    -0.0024660
  C        0.1996340     1.1955560    -0.0090950
  C        0.1996160    -1.1955790    -0.0091200
  C       -1.1907070     1.1396190     0.0037780
  C       -1.1907490    -1.1395810     0.0038230
  H        0.7078067     2.1555294    -0.2157350
  H        0.7090670    -2.1569450    -0.0157620
  H       -1.7697200     2.0619740     0.0063330
  H       -1.7697630    -2.0619320     0.0061490
  H        2.7609080    -0.8358400     0.2906890
  H        2.7608480     0.8359780     0.2902720
units angstrom
no_reorient  #important for SAPT in psi4, default
symmetry c1  #important for SAPT in psi4, default
}

set PROPERTIES_ORIGIN ["COM"]
properties('MP2/aug-cc-pvtz', properties = ['dipole'])
--------------------------------------------------------------------------

    Molecular point group: c1
  Charge       = 0
  Multiplicity = 1
  Basis Set: AUG-CC-PVTZ
    Blend: AUG-CC-PVTZ
  Basis Set: (AUG-CC-PVTZ AUX)
    Blend: AUG-CC-PVTZ-JKFIT

    Orbital Energies [Eh]
    ---------------------

    Doubly Occupied:

       1A    -15.585122     2A    -15.551273     3A    -11.303447
       4A    -11.275252     5A    -11.275174     6A    -11.233024
       7A    -11.231910     8A     -1.255717     9A     -1.224295
      10A     -1.051588    11A     -1.027503    12A     -0.857064
      13A     -0.842429    14A     -0.718448    15A     -0.710219
      16A     -0.651294    17A     -0.622867    18A     -0.607950
      19A     -0.589176    20A     -0.555243    21A     -0.509563
      22A     -0.486830    23A     -0.414310    24A     -0.347299
      25A     -0.335033

  @DF-RHF Final Energy:  -301.83499393725589

   => Energetics <=

    Nuclear Repulsion Energy =            273.6228169483226225
    One-Electron Energy =                -950.3915602317755429
    Two-Electron Energy =                 374.9337493461970894
    Total Energy =                       -301.8349939372558879
  Basis Set: (AUG-CC-PVTZ AUX)
    Blend: AUG-CC-PVTZ-RI
    Molecular point group: c1

    Geometry (in Angstrom), charge = 0, multiplicity = 1:

       Center              X                  Y                   Z               Mass
    ------------   -----------------  -----------------  -----------------  -----------------
         N            2.358736478080    -0.000002973921    -0.072700708587    14.003074004430
         N           -1.870868521920     0.000024026079     0.019781291413    14.003074004430
         C            0.965856478080    -0.000007973921     0.005607291413    12.000000000000
         C            0.235506478080     1.195572026079    -0.001021708587    12.000000000000
         C            0.235488478080    -1.195562973921    -0.001046708587    12.000000000000
         C           -1.154834521920     1.139635026079     0.011851291413    12.000000000000
         C           -1.154876521920    -1.139564973921     0.011896291413    12.000000000000
         H            0.743679178080     2.155545426079    -0.207661708587     1.007825032230
         H            0.744939478080    -2.156928973921    -0.007688708587     1.007825032230
         H           -1.733847521920     2.061990026079     0.014406291413     1.007825032230
         H           -1.733890521920    -2.061915973921     0.014222291413     1.007825032230
         H            2.796780478080    -0.835823973921     0.298762291413     1.007825032230
         H            2.796720478080     0.835994026079     0.298345291413     1.007825032230

  Basis Set: AUG-CC-PVTZ
    Blend: AUG-CC-PVTZ
  Basis Set: (AUG-CC-PVTZ AUX)
    Blend: AUG-CC-PVTZ-JKFIT
	 Reference Energy          =    -301.8349939372558879 [Eh]
	 Singles Energy            =      -0.0000000000000000 [Eh]
	 Same-Spin Energy          =      -0.3281899255885075 [Eh]
	 Opposite-Spin Energy      =      -1.0133203805160091 [Eh]
	 Correlation Energy        =      -1.3415103061045166 [Eh]
	 Total Energy              =    -303.1765042433603980 [Eh]

	 ================> DF-SCS-MP2 Energies <==================
	-----------------------------------------------------------
	 SCS Same-Spin Scale       =       0.3333333333333333 [-]
	 SCS Opposite-Spin Scale   =       1.2000000000000000 [-]
	 SCS Same-Spin Energy      =      -0.1093966418628358 [Eh]
	 SCS Opposite-Spin Energy  =      -1.2159844566192108 [Eh]
	 SCS Correlation Energy    =      -1.3253810984820467 [Eh]
	 SCS Total Energy          =    -303.1603750357379568 [Eh]
	-----------------------------------------------------------

  Dipole Moment: [D]
     X:     3.5777      Y:    -0.0283      Z:     0.8518     Total:     3.6778

*** Psi4 exiting successfully. Buy a developer a beer!
