                               Psi4 1.3.2 release

  ==> Input File <==

--------------------------------------------------------------------------
#psi4
#
memory 32 gb

molecule  {
0 1
  N        2.3228640    -0.0000190    -0.0807740
  N       -1.9067410     0.0000080     0.0117080
  C        0.9299840    -0.0000240    -0.0024660
  C        0.1996340     1.1955560    -0.0090950
  C        0.2029894    -1.1955801     0.0908231
  C       -1.1907070     1.1396190     0.0037780
  C       -1.1907490    -1.1395810     0.0038230
  H        0.7091300     2.1568960    -0.0157440
  H        0.7090670    -2.1569450    -0.0157620
  H       -1.7697200     2.0619740     0.0063330
  H       -1.7697630    -2.0619320     0.0061490
  H        2.7609080    -0.8358400     0.2906890
  H        2.7608480     0.8359780     0.2902720
units angstrom
no_reorient  #important for SAPT in psi4, default
symmetry c1  #important for SAPT in psi4, default
}

set PROPERTIES_ORIGIN ["COM"]
properties('MP2/aug-cc-pvtz', properties = ['dipole'])
--------------------------------------------------------------------------

    Molecular point group: c1
  Charge       = 0
  Multiplicity = 1
  Basis Set: AUG-CC-PVTZ
    Blend: AUG-CC-PVTZ
  Basis Set: (AUG-CC-PVTZ AUX)
    Blend: AUG-CC-PVTZ-JKFIT

    Orbital Energies [Eh]
    ---------------------

    Doubly Occupied:

       1A    -15.585058     2A    -15.551302     3A    -11.303728
       4A    -11.276247     5A    -11.275421     6A    -11.232387
       7A    -11.231763     8A     -1.255599     9A     -1.224310
      10A     -1.051376    11A     -1.027276    12A     -0.857851
      13A     -0.841805    14A     -0.718591    15A     -0.709957
      16A     -0.653639    17A     -0.622518    18A     -0.608499
      19A     -0.589569    20A     -0.554255    21A     -0.510590
      22A     -0.486175    23A     -0.413926    24A     -0.347169
      25A     -0.335679

  @DF-RHF Final Energy:  -301.83488705822811

   => Energetics <=

    Nuclear Repulsion Energy =            273.5768954275591796
    One-Electron Energy =                -950.2941879158402116
    Two-Electron Energy =                 374.8824054300529269
    Total Energy =                       -301.8348870582281052
  Basis Set: (AUG-CC-PVTZ AUX)
    Blend: AUG-CC-PVTZ-RI
    Molecular point group: c1

    Geometry (in Angstrom), charge = 0, multiplicity = 1:

       Center              X                  Y                   Z               Mass
    ------------   -----------------  -----------------  -----------------  -----------------
         N            2.358291894587    -0.000017477363    -0.087595200771    14.003074004430
         N           -1.871313105413     0.000009522637     0.004886799229    14.003074004430
         C            0.965411894587    -0.000022477363    -0.009287200771    12.000000000000
         C            0.235061894587     1.195557522637    -0.015916200771    12.000000000000
         C            0.238417294587    -1.195578577363     0.084001899229    12.000000000000
         C           -1.155279105413     1.139620522637    -0.003043200771    12.000000000000
         C           -1.155321105413    -1.139579477363    -0.002998200771    12.000000000000
         H            0.744557894587     2.156897522637    -0.022565200771     1.007825032230
         H            0.744494894587    -2.156943477363    -0.022583200771     1.007825032230
         H           -1.734292105413     2.061975522637    -0.000488200771     1.007825032230
         H           -1.734335105413    -2.061930477363    -0.000672200771     1.007825032230
         H            2.796335894587    -0.835838477363     0.283867799229     1.007825032230
         H            2.796275894587     0.835979522637     0.283450799229     1.007825032230

  Basis Set: AUG-CC-PVTZ
    Blend: AUG-CC-PVTZ
  Basis Set: (AUG-CC-PVTZ AUX)
    Blend: AUG-CC-PVTZ-JKFIT
	 Reference Energy          =    -301.8348870582281052 [Eh]
	 Singles Energy            =      -0.0000000000000000 [Eh]
	 Same-Spin Energy          =      -0.3281428597465565 [Eh]
	 Opposite-Spin Energy      =      -1.0132762442523584 [Eh]
	 Correlation Energy        =      -1.3414191039989150 [Eh]
	 Total Energy              =    -303.1763061622270357 [Eh]

	 ================> DF-SCS-MP2 Energies <==================
	-----------------------------------------------------------
	 SCS Same-Spin Scale       =       0.3333333333333333 [-]
	 SCS Opposite-Spin Scale   =       1.2000000000000000 [-]
	 SCS Same-Spin Energy      =      -0.1093809532488522 [Eh]
	 SCS Opposite-Spin Energy  =      -1.2159314931028300 [Eh]
	 SCS Correlation Energy    =      -1.3253124463516821 [Eh]
	 SCS Total Energy          =    -303.1601995045797935 [Eh]
	-----------------------------------------------------------

  Dipole Moment: [D]
     X:     3.5731      Y:     0.0210      Z:     0.9263     Total:     3.6913

*** Psi4 exiting successfully. Buy a developer a beer!
