                               Psi4 1.3.2 release

  ==> Input File <==

--------------------------------------------------------------------------
#psi4
#
memory 32 gb

molecule  {
0 1
  N        2.3228640    -0.0000190    -0.0807740
  N       -1.9067410     0.0000080     0.0117080
  C        0.9299840    -0.0000240    -0.0024660
  C        0.1996340     1.1955560    -0.0090950
  C        0.2097363    -1.1955822     0.2907093
  C       -1.1907070     1.1396190     0.0037780
  C       -1.1907490    -1.1395810     0.0038230
  H        0.7091300     2.1568960    -0.0157440
  H        0.7090670    -2.1569450    -0.0157620
  H       -1.7697200     2.0619740     0.0063330
  H       -1.7697630    -2.0619320     0.0061490
  H        2.7609080    -0.8358400     0.2906890
  H        2.7608480     0.8359780     0.2902720
units angstrom
no_reorient  #important for SAPT in psi4, default
symmetry c1  #important for SAPT in psi4, default
}

set PROPERTIES_ORIGIN ["COM"]
properties('MP2/aug-cc-pvtz', properties = ['dipole'])
--------------------------------------------------------------------------

    Molecular point group: c1
  Charge       = 0
  Multiplicity = 1
  Basis Set: AUG-CC-PVTZ
    Blend: AUG-CC-PVTZ
  Basis Set: (AUG-CC-PVTZ AUX)
    Blend: AUG-CC-PVTZ-JKFIT

    Orbital Energies [Eh]
    ---------------------

    Doubly Occupied:

       1A    -15.586100     2A    -15.552018     3A    -11.309380
       4A    -11.283862     5A    -11.279770     6A    -11.237848
       7A    -11.231941     8A     -1.255702     9A     -1.225513
      10A     -1.049385    11A     -1.023686    12A     -0.857366
      13A     -0.837914    14A     -0.718451    15A     -0.708442
      16A     -0.647925    17A     -0.620771    18A     -0.609267
      19A     -0.582909    20A     -0.550783    21A     -0.506589
      22A     -0.483977    23A     -0.413282    24A     -0.346141
      25A     -0.337479

  @DF-RHF Final Energy:  -301.81332958964367

   => Energetics <=

    Nuclear Repulsion Energy =            272.6983287169140908
    One-Electron Energy =                -948.5103110072690242
    Two-Electron Energy =                 373.9986527007113182
    Total Energy =                       -301.8133295896436721
  Basis Set: (AUG-CC-PVTZ AUX)
    Blend: AUG-CC-PVTZ-RI
    Molecular point group: c1

    Geometry (in Angstrom), charge = 0, multiplicity = 1:

       Center              X                  Y                   Z               Mass
    ------------   -----------------  -----------------  -----------------  -----------------
         N            2.357431074460    -0.000017209429    -0.113098182021    14.003074004430
         N           -1.872173925540     0.000009790571    -0.020616182021    14.003074004430
         C            0.964551074460    -0.000022209429    -0.034790182021    12.000000000000
         C            0.234201074460     1.195557790571    -0.041419182021    12.000000000000
         C            0.244303374460    -1.195580409429     0.258385117979    12.000000000000
         C           -1.156139925540     1.139620790571    -0.028546182021    12.000000000000
         C           -1.156181925540    -1.139579209429    -0.028501182021    12.000000000000
         H            0.743697074460     2.156897790571    -0.048068182021     1.007825032230
         H            0.743634074460    -2.156943209429    -0.048086182021     1.007825032230
         H           -1.735152925540     2.061975790571    -0.025991182021     1.007825032230
         H           -1.735195925540    -2.061930209429    -0.026175182021     1.007825032230
         H            2.795475074460    -0.835838209429     0.258364817979     1.007825032230
         H            2.795415074460     0.835979790571     0.257947817979     1.007825032230

  Basis Set: AUG-CC-PVTZ
    Blend: AUG-CC-PVTZ
  Basis Set: (AUG-CC-PVTZ AUX)
    Blend: AUG-CC-PVTZ-JKFIT
	 Reference Energy          =    -301.8133295896436721 [Eh]
	 Singles Energy            =      -0.0000000000000000 [Eh]
	 Same-Spin Energy          =      -0.3285920975697973 [Eh]
	 Opposite-Spin Energy      =      -1.0155368938509015 [Eh]
	 Correlation Energy        =      -1.3441289914206989 [Eh]
	 Total Energy              =    -303.1574585810643612 [Eh]

	 ================> DF-SCS-MP2 Energies <==================
	-----------------------------------------------------------
	 SCS Same-Spin Scale       =       0.3333333333333333 [-]
	 SCS Opposite-Spin Scale   =       1.2000000000000000 [-]
	 SCS Same-Spin Energy      =      -0.1095306991899324 [Eh]
	 SCS Opposite-Spin Energy  =      -1.2186442726210818 [Eh]
	 SCS Correlation Energy    =      -1.3281749718110143 [Eh]
	 SCS Total Energy          =    -303.1415045614546671 [Eh]
	-----------------------------------------------------------

  Dipole Moment: [D]
     X:     3.5002      Y:     0.1791      Z:     0.8042     Total:     3.5958

*** Psi4 exiting successfully. Buy a developer a beer!
