                               Psi4 1.3.2 release

  ==> Input File <==

--------------------------------------------------------------------------
#psi4
#
memory 32 gb

molecule  {
0 1
  N        2.3228640    -0.0000190    -0.0807740
  N       -1.9067410     0.0000080     0.0117080
  C        0.9299840    -0.0000240    -0.0024660
  C        0.1996340     1.1955560    -0.0090950
  C        0.1996160    -1.1955790    -0.0091200
  C       -1.1907070     1.1396190     0.0037780
  C       -1.1907490    -1.1395810     0.0038230
  H        0.7087992     2.1565543    -0.0657417
  H        0.7090670    -2.1569450    -0.0157620
  H       -1.7697200     2.0619740     0.0063330
  H       -1.7697630    -2.0619320     0.0061490
  H        2.7609080    -0.8358400     0.2906890
  H        2.7608480     0.8359780     0.2902720
units angstrom
no_reorient  #important for SAPT in psi4, default
symmetry c1  #important for SAPT in psi4, default
}

set PROPERTIES_ORIGIN ["COM"]
properties('MP2/aug-cc-pvtz', properties = ['dipole'])
--------------------------------------------------------------------------

    Molecular point group: c1
  Charge       = 0
  Multiplicity = 1
  Basis Set: AUG-CC-PVTZ
    Blend: AUG-CC-PVTZ
  Basis Set: (AUG-CC-PVTZ AUX)
    Blend: AUG-CC-PVTZ-JKFIT

    Orbital Energies [Eh]
    ---------------------

    Doubly Occupied:

       1A    -15.585186     2A    -15.551089     3A    -11.303112
       4A    -11.274838     5A    -11.274820     6A    -11.231782
       7A    -11.231746     8A     -1.255581     9A     -1.224198
      10A     -1.051627    11A     -1.027729    12A     -0.857597
      13A     -0.842528    14A     -0.718576    15A     -0.710226
      16A     -0.654069    17A     -0.622817    18A     -0.607594
      19A     -0.590208    20A     -0.555377    21A     -0.510492
      22A     -0.486727    23A     -0.414084    24A     -0.347418
      25A     -0.335078

  @DF-RHF Final Energy:  -301.83711751197563

   => Energetics <=

    Nuclear Repulsion Energy =            273.6877165097039892
    One-Electron Energy =                -950.5206694571286334
    Two-Electron Energy =                 374.9958354354490666
    Total Energy =                       -301.8371175119756344
  Basis Set: (AUG-CC-PVTZ AUX)
    Blend: AUG-CC-PVTZ-RI
    Molecular point group: c1

    Geometry (in Angstrom), charge = 0, multiplicity = 1:

       Center              X                  Y                   Z               Mass
    ------------   -----------------  -----------------  -----------------  -----------------
         N            2.358725842956    -0.000013956226    -0.074307960292    14.003074004430
         N           -1.870879157044     0.000013043774     0.018174039708    14.003074004430
         C            0.965845842956    -0.000018956226     0.004000039708    12.000000000000
         C            0.235495842956     1.195561043774    -0.002628960292    12.000000000000
         C            0.235477842956    -1.195573956226    -0.002653960292    12.000000000000
         C           -1.154845157044     1.139624043774     0.010244039708    12.000000000000
         C           -1.154887157044    -1.139575956226     0.010289039708    12.000000000000
         H            0.744661042956     2.156559343774    -0.059275660292     1.007825032230
         H            0.744928842956    -2.156939956226    -0.009295960292     1.007825032230
         H           -1.733858157044     2.061979043774     0.012799039708     1.007825032230
         H           -1.733901157044    -2.061926956226     0.012615039708     1.007825032230
         H            2.796769842956    -0.835834956226     0.297155039708     1.007825032230
         H            2.796709842956     0.835983043774     0.296738039708     1.007825032230

  Basis Set: AUG-CC-PVTZ
    Blend: AUG-CC-PVTZ
  Basis Set: (AUG-CC-PVTZ AUX)
    Blend: AUG-CC-PVTZ-JKFIT
	 Reference Energy          =    -301.8371175119756344 [Eh]
	 Singles Energy            =      -0.0000000000000000 [Eh]
	 Same-Spin Energy          =      -0.3281171084388490 [Eh]
	 Opposite-Spin Energy      =      -1.0131462675909839 [Eh]
	 Correlation Energy        =      -1.3412633760298329 [Eh]
	 Total Energy              =    -303.1783808880054494 [Eh]

	 ================> DF-SCS-MP2 Energies <==================
	-----------------------------------------------------------
	 SCS Same-Spin Scale       =       0.3333333333333333 [-]
	 SCS Opposite-Spin Scale   =       1.2000000000000000 [-]
	 SCS Same-Spin Energy      =      -0.1093723694796163 [Eh]
	 SCS Opposite-Spin Energy  =      -1.2157755211091807 [Eh]
	 SCS Correlation Energy    =      -1.3251478905887970 [Eh]
	 SCS Total Energy          =    -303.1622654025644579 [Eh]
	-----------------------------------------------------------

  Dipole Moment: [D]
     X:     3.5919      Y:    -0.0013      Z:     0.9454     Total:     3.7142

*** Psi4 exiting successfully. Buy a developer a beer!
