                               Psi4 1.3.2 release

  ==> Input File <==

--------------------------------------------------------------------------
#psi4
#
memory 32 gb

molecule  {
0 1
  N        2.3228640    -0.0000190    -0.0807740
  N       -1.9067410     0.0000080     0.0117080
  C        0.9299840    -0.0000240    -0.0024660
  C        0.1996340     1.1955560    -0.0090950
  C        0.1996160    -1.1955790    -0.0091200
  C       -1.1907070     1.1396190     0.0037780
  C       -1.1907490    -1.1395810     0.0038230
  H        0.7091300     2.1568960    -0.0157440
  H        0.7090670    -2.1569450    -0.0157620
  H       -1.7679749     2.0623794     0.2063250
  H       -1.7697630    -2.0619320     0.0061490
  H        2.7609080    -0.8358400     0.2906890
  H        2.7608480     0.8359780     0.2902720
units angstrom
no_reorient  #important for SAPT in psi4, default
symmetry c1  #important for SAPT in psi4, default
}

set PROPERTIES_ORIGIN ["COM"]
properties('MP2/aug-cc-pvtz', properties = ['dipole'])
--------------------------------------------------------------------------

    Molecular point group: c1
  Charge       = 0
  Multiplicity = 1
  Basis Set: AUG-CC-PVTZ
    Blend: AUG-CC-PVTZ
  Basis Set: (AUG-CC-PVTZ AUX)
    Blend: AUG-CC-PVTZ-JKFIT

    Orbital Energies [Eh]
    ---------------------

    Doubly Occupied:

       1A    -15.585395     2A    -15.551405     3A    -11.303209
       4A    -11.276597     5A    -11.275034     6A    -11.232039
       7A    -11.232011     8A     -1.255752     9A     -1.224360
      10A     -1.051843    11A     -1.027456    12A     -0.857055
      13A     -0.842079    14A     -0.717162    15A     -0.710356
      16A     -0.654016    17A     -0.622793    18A     -0.607464
      19A     -0.589524    20A     -0.554436    21A     -0.510107
      22A     -0.486000    23A     -0.414316    24A     -0.347005
      25A     -0.335215

  @DF-RHF Final Energy:  -301.83441129102607

   => Energetics <=

    Nuclear Repulsion Energy =            273.6230579847676267
    One-Electron Energy =                -950.3896802655795000
    Two-Electron Energy =                 374.9322109897857445
    Total Energy =                       -301.8344112910260719
  Basis Set: (AUG-CC-PVTZ AUX)
    Blend: AUG-CC-PVTZ-RI
    Molecular point group: c1

    Geometry (in Angstrom), charge = 0, multiplicity = 1:

       Center              X                  Y                   Z               Mass
    ------------   -----------------  -----------------  -----------------  -----------------
         N            2.358703598670    -0.000021961769    -0.076986722419    14.003074004430
         N           -1.870901401330     0.000005038231     0.015495277581    14.003074004430
         C            0.965823598670    -0.000026961769     0.001321277581    12.000000000000
         C            0.235473598670     1.195553038231    -0.005307722419    12.000000000000
         C            0.235455598670    -1.195581961769    -0.005332722419    12.000000000000
         C           -1.154867401330     1.139616038231     0.007565277581    12.000000000000
         C           -1.154909401330    -1.139583961769     0.007610277581    12.000000000000
         H            0.744969598670     2.156893038231    -0.011956722419     1.007825032230
         H            0.744906598670    -2.156947961769    -0.011974722419     1.007825032230
         H           -1.732135301330     2.062376438231     0.210112277581     1.007825032230
         H           -1.733923401330    -2.061934961769     0.009936277581     1.007825032230
         H            2.796747598670    -0.835842961769     0.294476277581     1.007825032230
         H            2.796687598670     0.835975038231     0.294059277581     1.007825032230

  Basis Set: AUG-CC-PVTZ
    Blend: AUG-CC-PVTZ
  Basis Set: (AUG-CC-PVTZ AUX)
    Blend: AUG-CC-PVTZ-JKFIT
	 Reference Energy          =    -301.8344112910260719 [Eh]
	 Singles Energy            =      -0.0000000000000000 [Eh]
	 Same-Spin Energy          =      -0.3283030278841804 [Eh]
	 Opposite-Spin Energy      =      -1.0135364760109646 [Eh]
	 Correlation Energy        =      -1.3418395038951449 [Eh]
	 Total Energy              =    -303.1762507949212022 [Eh]

	 ================> DF-SCS-MP2 Energies <==================
	-----------------------------------------------------------
	 SCS Same-Spin Scale       =       0.3333333333333333 [-]
	 SCS Opposite-Spin Scale   =       1.2000000000000000 [-]
	 SCS Same-Spin Energy      =      -0.1094343426280601 [Eh]
	 SCS Opposite-Spin Energy  =      -1.2162437712131575 [Eh]
	 SCS Correlation Energy    =      -1.3256781138412177 [Eh]
	 SCS Total Energy          =    -303.1600894048672785 [Eh]
	-----------------------------------------------------------

  Dipole Moment: [D]
     X:     3.6088      Y:    -0.0294      Z:     1.0790     Total:     3.7668

*** Psi4 exiting successfully. Buy a developer a beer!
