                               Psi4 1.3.2 release

  ==> Input File <==

--------------------------------------------------------------------------
#psi4
#
memory 32 gb

molecule  {
0 1
  N        2.3228640    -0.0000190    -0.0807740
  N       -1.9067410     0.0000080     0.0117080
  C        0.9299840    -0.0000240    -0.0024660
  C        0.1996340     1.1955560    -0.0090950
  C        0.1996160    -1.1955790    -0.0091200
  C       -1.1907070     1.1396190     0.0037780
  C       -1.1907490    -1.1395810     0.0038230
  H        0.7081376     2.1558710    -0.1657372
  H        0.7090670    -2.1569450    -0.0157620
  H       -1.7697200     2.0619740     0.0063330
  H       -1.7697630    -2.0619320     0.0061490
  H        2.7609080    -0.8358400     0.2906890
  H        2.7608480     0.8359780     0.2902720
units angstrom
no_reorient  #important for SAPT in psi4, default
symmetry c1  #important for SAPT in psi4, default
}

set PROPERTIES_ORIGIN ["COM"]
properties('MP2/aug-cc-pvtz', properties = ['dipole'])
--------------------------------------------------------------------------

    Molecular point group: c1
  Charge       = 0
  Multiplicity = 1
  Basis Set: AUG-CC-PVTZ
    Blend: AUG-CC-PVTZ
  Basis Set: (AUG-CC-PVTZ AUX)
    Blend: AUG-CC-PVTZ-JKFIT

    Orbital Energies [Eh]
    ---------------------

    Doubly Occupied:

       1A    -15.585129     2A    -15.551186     3A    -11.303295
       4A    -11.275060     5A    -11.275007     6A    -11.232427
       7A    -11.231835     8A     -1.255648     9A     -1.224241
      10A     -1.051600    11A     -1.027603    12A     -0.857299
      13A     -0.842467    14A     -0.718512    15A     -0.710213
      16A     -0.652516    17A     -0.622840    18A     -0.607808
      19A     -0.589664    20A     -0.555319    21A     -0.510005
      22A     -0.486781    23A     -0.414213    24A     -0.347346
      25A     -0.335041

  @DF-RHF Final Energy:  -301.83603058331801

   => Energetics <=

    Nuclear Repulsion Energy =            273.6530245170405351
    One-Electron Energy =                -950.4519990513197172
    Two-Electron Energy =                 374.9629439509611757
    Total Energy =                       -301.8360305833180064
  Basis Set: (AUG-CC-PVTZ AUX)
    Blend: AUG-CC-PVTZ-RI
    Molecular point group: c1

    Geometry (in Angstrom), charge = 0, multiplicity = 1:

       Center              X                  Y                   Z               Mass
    ------------   -----------------  -----------------  -----------------  -----------------
         N            2.358732932324    -0.000006634332    -0.073236459512    14.003074004430
         N           -1.870872067676     0.000020365668     0.019245540488    14.003074004430
         C            0.965852932324    -0.000011634332     0.005071540488    12.000000000000
         C            0.235502932324     1.195568365668    -0.001557459512    12.000000000000
         C            0.235484932324    -1.195566634332    -0.001582459512    12.000000000000
         C           -1.154838067676     1.139631365668     0.011315540488    12.000000000000
         C           -1.154880067676    -1.139568634332     0.011360540488    12.000000000000
         H            0.744006532324     2.155883365668    -0.158199659512     1.007825032230
         H            0.744935932324    -2.156932634332    -0.008224459512     1.007825032230
         H           -1.733851067676     2.061986365668     0.013870540488     1.007825032230
         H           -1.733894067676    -2.061919634332     0.013686540488     1.007825032230
         H            2.796776932324    -0.835827634332     0.298226540488     1.007825032230
         H            2.796716932324     0.835990365668     0.297809540488     1.007825032230

  Basis Set: AUG-CC-PVTZ
    Blend: AUG-CC-PVTZ
  Basis Set: (AUG-CC-PVTZ AUX)
    Blend: AUG-CC-PVTZ-JKFIT
	 Reference Energy          =    -301.8360305833180064 [Eh]
	 Singles Energy            =      -0.0000000000000000 [Eh]
	 Same-Spin Energy          =      -0.3281543977282642 [Eh]
	 Opposite-Spin Energy      =      -1.0132323453793837 [Eh]
	 Correlation Energy        =      -1.3413867431076478 [Eh]
	 Total Energy              =    -303.1774173264256547 [Eh]

	 ================> DF-SCS-MP2 Energies <==================
	-----------------------------------------------------------
	 SCS Same-Spin Scale       =       0.3333333333333333 [-]
	 SCS Opposite-Spin Scale   =       1.2000000000000000 [-]
	 SCS Same-Spin Energy      =      -0.1093847992427547 [Eh]
	 SCS Opposite-Spin Energy  =      -1.2158788144552604 [Eh]
	 SCS Correlation Energy    =      -1.3252636136980152 [Eh]
	 SCS Total Energy          =    -303.1612941970160477 [Eh]
	-----------------------------------------------------------

  Dipole Moment: [D]
     X:     3.5842      Y:    -0.0157      Z:     0.8827     Total:     3.6913

*** Psi4 exiting successfully. Buy a developer a beer!
