                               Psi4 1.3.2 release

  ==> Input File <==

--------------------------------------------------------------------------
#psi4
#
memory 32 gb

molecule  {
0 1
  N        2.3228640    -0.0000190    -0.0807740
  N       -1.9067410     0.0000080     0.0117080
  C        0.9299840    -0.0000240    -0.0024660
  C        0.1996340     1.1955560    -0.0090950
  C        0.1996160    -1.1955790    -0.0091200
  C       -1.1907070     1.1396190     0.0037780
  C       -1.1907490    -1.1395810     0.0038230
  H        0.7091300     2.1568960    -0.0157440
  H        0.7090670    -2.1569450    -0.0157620
  H       -1.7671024     2.0625820     0.3063210
  H       -1.7697630    -2.0619320     0.0061490
  H        2.7609080    -0.8358400     0.2906890
  H        2.7608480     0.8359780     0.2902720
units angstrom
no_reorient  #important for SAPT in psi4, default
symmetry c1  #important for SAPT in psi4, default
}

set PROPERTIES_ORIGIN ["COM"]
properties('MP2/aug-cc-pvtz', properties = ['dipole'])
--------------------------------------------------------------------------

    Molecular point group: c1
  Charge       = 0
  Multiplicity = 1
  Basis Set: AUG-CC-PVTZ
    Blend: AUG-CC-PVTZ
  Basis Set: (AUG-CC-PVTZ AUX)
    Blend: AUG-CC-PVTZ-JKFIT

    Orbital Energies [Eh]
    ---------------------

    Doubly Occupied:

       1A    -15.585552     2A    -15.551810     3A    -11.303389
       4A    -11.278761     5A    -11.275323     6A    -11.232404
       7A    -11.232380     8A     -1.255962     9A     -1.224540
      10A     -1.052104    11A     -1.027140    12A     -0.856494
      13A     -0.841473    14A     -0.715678    15A     -0.710461
      16A     -0.653693    17A     -0.622784    18A     -0.606925
      19A     -0.588532    20A     -0.553956    21A     -0.509498
      22A     -0.484910    23A     -0.414521    24A     -0.346527
      25A     -0.335376

  @DF-RHF Final Energy:  -301.83055637846633

   => Energetics <=

    Nuclear Repulsion Energy =            273.5404003460336639
    One-Electron Energy =                -950.2215284181206698
    Two-Electron Energy =                 374.8505716936206227
    Total Energy =                       -301.8305563784663264
  Basis Set: (AUG-CC-PVTZ AUX)
    Blend: AUG-CC-PVTZ-RI
    Molecular point group: c1

    Geometry (in Angstrom), charge = 0, multiplicity = 1:

       Center              X                  Y                   Z               Mass
    ------------   -----------------  -----------------  -----------------  -----------------
         N            2.358694249405    -0.000024132727    -0.078058228556    14.003074004430
         N           -1.870910750595     0.000002867273     0.014423771444    14.003074004430
         C            0.965814249405    -0.000029132727     0.000249771444    12.000000000000
         C            0.235464249405     1.195550867273    -0.006379228556    12.000000000000
         C            0.235446249405    -1.195584132727    -0.006404228556    12.000000000000
         C           -1.154876750595     1.139613867273     0.006493771444    12.000000000000
         C           -1.154918750595    -1.139586132727     0.006538771444    12.000000000000
         H            0.744960249405     2.156890867273    -0.013028228556     1.007825032230
         H            0.744897249405    -2.156950132727    -0.013046228556     1.007825032230
         H           -1.731272150595     2.062576867273     0.309036771444     1.007825032230
         H           -1.733932750595    -2.061937132727     0.008864771444     1.007825032230
         H            2.796738249405    -0.835845132727     0.293404771444     1.007825032230
         H            2.796678249405     0.835972867273     0.292987771444     1.007825032230

  Basis Set: AUG-CC-PVTZ
    Blend: AUG-CC-PVTZ
  Basis Set: (AUG-CC-PVTZ AUX)
    Blend: AUG-CC-PVTZ-JKFIT
	 Reference Energy          =    -301.8305563784663264 [Eh]
	 Singles Energy            =      -0.0000000000000000 [Eh]
	 Same-Spin Energy          =      -0.3285279729423218 [Eh]
	 Opposite-Spin Energy      =      -1.0140607314281116 [Eh]
	 Correlation Energy        =      -1.3425887043704334 [Eh]
	 Total Energy              =    -303.1731450828367542 [Eh]

	 ================> DF-SCS-MP2 Energies <==================
	-----------------------------------------------------------
	 SCS Same-Spin Scale       =       0.3333333333333333 [-]
	 SCS Opposite-Spin Scale   =       1.2000000000000000 [-]
	 SCS Same-Spin Energy      =      -0.1095093243141073 [Eh]
	 SCS Opposite-Spin Energy  =      -1.2168728777137339 [Eh]
	 SCS Correlation Energy    =      -1.3263822020278411 [Eh]
	 SCS Total Energy          =    -303.1569385804941703 [Eh]
	-----------------------------------------------------------

  Dipole Moment: [D]
     X:     3.6275      Y:    -0.0665      Z:     1.1277     Total:     3.7993

*** Psi4 exiting successfully. Buy a developer a beer!
