                               Psi4 1.3.2 release

  ==> Input File <==

--------------------------------------------------------------------------
#psi4
#
memory 32 gb

molecule  {
0 1
  N        2.3228640    -0.0000190    -0.0807740
  N       -1.9067410     0.0000080     0.0117080
  C        0.9299840    -0.0000240    -0.0024660
  C        0.1996340     1.1955560    -0.0090950
  C        0.1996160    -1.1955790    -0.0091200
  C       -1.1907070     1.1396190     0.0037780
  C       -1.1907490    -1.1395810     0.0038230
  H        0.7091300     2.1568960    -0.0157440
  H        0.7090670    -2.1569450    -0.0157620
  H       -1.7684112     2.0622780     0.1563270
  H       -1.7697630    -2.0619320     0.0061490
  H        2.7609080    -0.8358400     0.2906890
  H        2.7608480     0.8359780     0.2902720
units angstrom
no_reorient  #important for SAPT in psi4, default
symmetry c1  #important for SAPT in psi4, default
}

set PROPERTIES_ORIGIN ["COM"]
properties('MP2/aug-cc-pvtz', properties = ['dipole'])
--------------------------------------------------------------------------

    Molecular point group: c1
  Charge       = 0
  Multiplicity = 1
  Basis Set: AUG-CC-PVTZ
    Blend: AUG-CC-PVTZ
  Basis Set: (AUG-CC-PVTZ AUX)
    Blend: AUG-CC-PVTZ-JKFIT

    Orbital Energies [Eh]
    ---------------------

    Doubly Occupied:

       1A    -15.585337     2A    -15.551263     3A    -11.303149
       4A    -11.275821     5A    -11.274933     6A    -11.231910
       7A    -11.231885     8A     -1.255679     9A     -1.224297
      10A     -1.051753    11A     -1.027581    12A     -0.857296
      13A     -0.842290    14A     -0.717743    15A     -0.710312
      16A     -0.654146    17A     -0.622804    18A     -0.607622
      19A     -0.589854    20A     -0.554676    21A     -0.510310
      22A     -0.486359    23A     -0.414227    24A     -0.347184
      25A     -0.335162

  @DF-RHF Final Energy:  -301.83567461422973

   => Energetics <=

    Nuclear Repulsion Energy =            273.6528634991246918
    One-Electron Energy =                -950.4498872153983484
    Two-Electron Energy =                 374.9613491020439255
    Total Energy =                       -301.8356746142297311
  Basis Set: (AUG-CC-PVTZ AUX)
    Blend: AUG-CC-PVTZ-RI
    Molecular point group: c1

    Geometry (in Angstrom), charge = 0, multiplicity = 1:

       Center              X                  Y                   Z               Mass
    ------------   -----------------  -----------------  -----------------  -----------------
         N            2.358708273838    -0.000020875218    -0.076450969351    14.003074004430
         N           -1.870896726162     0.000006124782     0.016031030649    14.003074004430
         C            0.965828273838    -0.000025875218     0.001857030649    12.000000000000
         C            0.235478273838     1.195554124782    -0.004771969351    12.000000000000
         C            0.235460273838    -1.195580875218    -0.004796969351    12.000000000000
         C           -1.154862726162     1.139617124782     0.008101030649    12.000000000000
         C           -1.154904726162    -1.139582875218     0.008146030649    12.000000000000
         H            0.744974273838     2.156894124782    -0.011420969351     1.007825032230
         H            0.744911273838    -2.156946875218    -0.011438969351     1.007825032230
         H           -1.732566926162     2.062276124782     0.160650030649     1.007825032230
         H           -1.733918726162    -2.061933875218     0.010472030649     1.007825032230
         H            2.796752273838    -0.835841875218     0.295012030649     1.007825032230
         H            2.796692273838     0.835976124782     0.294595030649     1.007825032230

  Basis Set: AUG-CC-PVTZ
    Blend: AUG-CC-PVTZ
  Basis Set: (AUG-CC-PVTZ AUX)
    Blend: AUG-CC-PVTZ-JKFIT
	 Reference Energy          =    -301.8356746142297311 [Eh]
	 Singles Energy            =      -0.0000000000000000 [Eh]
	 Same-Spin Energy          =      -0.3282225254124926 [Eh]
	 Opposite-Spin Energy      =      -1.0133596614184346 [Eh]
	 Correlation Energy        =      -1.3415821868309272 [Eh]
	 Total Energy              =    -303.1772568010606506 [Eh]

	 ================> DF-SCS-MP2 Energies <==================
	-----------------------------------------------------------
	 SCS Same-Spin Scale       =       0.3333333333333333 [-]
	 SCS Opposite-Spin Scale   =       1.2000000000000000 [-]
	 SCS Same-Spin Energy      =      -0.1094075084708309 [Eh]
	 SCS Opposite-Spin Energy  =      -1.2160315937021215 [Eh]
	 SCS Correlation Energy    =      -1.3254391021729524 [Eh]
	 SCS Total Energy          =    -303.1611137164026673 [Eh]
	-----------------------------------------------------------

  Dipole Moment: [D]
     X:     3.6021      Y:    -0.0164      Z:     1.0539     Total:     3.7532

*** Psi4 exiting successfully. Buy a developer a beer!
