                               Psi4 1.3.2 release

  ==> Input File <==

--------------------------------------------------------------------------
#psi4
#
memory 32 gb

molecule  {
0 1
  N        2.3228640    -0.0000190    -0.0807740
  N       -1.9067410     0.0000080     0.0117080
  C        0.9299840    -0.0000240    -0.0024660
  C        0.1996340     1.1955560    -0.0090950
  C        0.2013027    -1.1955795     0.0408515
  C       -1.1907070     1.1396190     0.0037780
  C       -1.1907490    -1.1395810     0.0038230
  H        0.7091300     2.1568960    -0.0157440
  H        0.7090670    -2.1569450    -0.0157620
  H       -1.7697200     2.0619740     0.0063330
  H       -1.7697630    -2.0619320     0.0061490
  H        2.7609080    -0.8358400     0.2906890
  H        2.7608480     0.8359780     0.2902720
units angstrom
no_reorient  #important for SAPT in psi4, default
symmetry c1  #important for SAPT in psi4, default
}

set PROPERTIES_ORIGIN ["COM"]
properties('MP2/aug-cc-pvtz', properties = ['dipole'])
--------------------------------------------------------------------------

    Molecular point group: c1
  Charge       = 0
  Multiplicity = 1
  Basis Set: AUG-CC-PVTZ
    Blend: AUG-CC-PVTZ
  Basis Set: (AUG-CC-PVTZ AUX)
    Blend: AUG-CC-PVTZ-JKFIT

    Orbital Energies [Eh]
    ---------------------

    Doubly Occupied:

       1A    -15.585092     2A    -15.551187     3A    -11.303214
       4A    -11.275312     5A    -11.274986     6A    -11.231879
       7A    -11.231751     8A     -1.255593     9A     -1.224221
      10A     -1.051595    11A     -1.027601    12A     -0.857794
      13A     -0.842296    14A     -0.718613    15A     -0.710148
      16A     -0.654239    17A     -0.622739    18A     -0.608043
      19A     -0.590099    20A     -0.554896    21A     -0.510717
      22A     -0.486491    23A     -0.414003    24A     -0.347339
      25A     -0.335371

  @DF-RHF Final Energy:  -301.83673822196886

   => Energetics <=

    Nuclear Repulsion Energy =            273.6623794015238218
    One-Electron Energy =                -950.4677984015844459
    Two-Electron Energy =                 374.9686807780917661
    Total Energy =                       -301.8367382219688579
  Basis Set: (AUG-CC-PVTZ AUX)
    Blend: AUG-CC-PVTZ-RI
    Molecular point group: c1

    Geometry (in Angstrom), charge = 0, multiplicity = 1:

       Center              X                  Y                   Z               Mass
    ------------   -----------------  -----------------  -----------------  -----------------
         N            2.358507096429    -0.000017553915    -0.081219449079    14.003074004430
         N           -1.871097903571     0.000009446085     0.011262550921    14.003074004430
         C            0.965627096429    -0.000022553915    -0.002911449079    12.000000000000
         C            0.235277096429     1.195557446085    -0.009540449079    12.000000000000
         C            0.236945796429    -1.195578053915     0.040406050921    12.000000000000
         C           -1.155063903571     1.139620446085     0.003332550921    12.000000000000
         C           -1.155105903571    -1.139579553915     0.003377550921    12.000000000000
         H            0.744773096429     2.156897446085    -0.016189449079     1.007825032230
         H            0.744710096429    -2.156943553915    -0.016207449079     1.007825032230
         H           -1.734076903571     2.061975446085     0.005887550921     1.007825032230
         H           -1.734119903571    -2.061930553915     0.005703550921     1.007825032230
         H            2.796551096429    -0.835838553915     0.290243550921     1.007825032230
         H            2.796491096429     0.835979446085     0.289826550921     1.007825032230

  Basis Set: AUG-CC-PVTZ
    Blend: AUG-CC-PVTZ
  Basis Set: (AUG-CC-PVTZ AUX)
    Blend: AUG-CC-PVTZ-JKFIT
	 Reference Energy          =    -301.8367382219688579 [Eh]
	 Singles Energy            =      -0.0000000000000000 [Eh]
	 Same-Spin Energy          =      -0.3281114818418589 [Eh]
	 Opposite-Spin Energy      =      -1.0131433468219742 [Eh]
	 Correlation Energy        =      -1.3412548286638331 [Eh]
	 Total Energy              =    -303.1779930506326650 [Eh]

	 ================> DF-SCS-MP2 Energies <==================
	-----------------------------------------------------------
	 SCS Same-Spin Scale       =       0.3333333333333333 [-]
	 SCS Opposite-Spin Scale   =       1.2000000000000000 [-]
	 SCS Same-Spin Energy      =      -0.1093704939472863 [Eh]
	 SCS Opposite-Spin Energy  =      -1.2157720161863690 [Eh]
	 SCS Correlation Energy    =      -1.3251425101336554 [Eh]
	 SCS Total Energy          =    -303.1618807321025315 [Eh]
	-----------------------------------------------------------

  Dipole Moment: [D]
     X:     3.5846      Y:     0.0057      Z:     0.9521     Total:     3.7089

*** Psi4 exiting successfully. Buy a developer a beer!
