                               Psi4 1.3.2 release

  ==> Input File <==

--------------------------------------------------------------------------
#psi4
#
memory 32 gb

molecule  {
0 1
  N        2.3228640    -0.0000190    -0.0807740
  N       -1.9067410     0.0000080     0.0117080
  C        0.9299840    -0.0000240    -0.0024660
  C        0.1996340     1.1955560    -0.0090950
  C        0.2080495    -1.1955817     0.2407377
  C       -1.1907070     1.1396190     0.0037780
  C       -1.1907490    -1.1395810     0.0038230
  H        0.7091300     2.1568960    -0.0157440
  H        0.7090670    -2.1569450    -0.0157620
  H       -1.7697200     2.0619740     0.0063330
  H       -1.7697630    -2.0619320     0.0061490
  H        2.7609080    -0.8358400     0.2906890
  H        2.7608480     0.8359780     0.2902720
units angstrom
no_reorient  #important for SAPT in psi4, default
symmetry c1  #important for SAPT in psi4, default
}

set PROPERTIES_ORIGIN ["COM"]
properties('MP2/aug-cc-pvtz', properties = ['dipole'])
--------------------------------------------------------------------------

    Molecular point group: c1
  Charge       = 0
  Multiplicity = 1
  Basis Set: AUG-CC-PVTZ
    Blend: AUG-CC-PVTZ
  Basis Set: (AUG-CC-PVTZ AUX)
    Blend: AUG-CC-PVTZ-JKFIT

    Orbital Energies [Eh]
    ---------------------

    Doubly Occupied:

       1A    -15.585655     2A    -15.551778     3A    -11.307472
       4A    -11.281439     5A    -11.278292     6A    -11.236006
       7A    -11.231861     8A     -1.255649     9A     -1.225080
      10A     -1.049955    11A     -1.025014    12A     -0.857573
      13A     -0.839112    14A     -0.718416    15A     -0.708906
      16A     -0.649628    17A     -0.621238    18A     -0.609319
      19A     -0.585377    20A     -0.551675    21A     -0.508185
      22A     -0.484700    23A     -0.413509    24A     -0.346404
      25A     -0.336932

  @DF-RHF Final Energy:  -301.82090189244855

   => Energetics <=

    Nuclear Repulsion Energy =            272.9947501918140915
    One-Electron Energy =                -949.1129509623018521
    Two-Electron Energy =                 374.2972988780392143
    Total Energy =                       -301.8209018924485463
  Basis Set: (AUG-CC-PVTZ AUX)
    Blend: AUG-CC-PVTZ-RI
    Molecular point group: c1

    Geometry (in Angstrom), charge = 0, multiplicity = 1:

       Center              X                  Y                   Z               Mass
    ------------   -----------------  -----------------  -----------------  -----------------
         N            2.357646289061    -0.000017273223    -0.106722430329    14.003074004430
         N           -1.871958710939     0.000009726777    -0.014240430329    14.003074004430
         C            0.964766289061    -0.000022273223    -0.028414430329    12.000000000000
         C            0.234416289061     1.195557726777    -0.035043430329    12.000000000000
         C            0.242831789061    -1.195579973223     0.214789269671    12.000000000000
         C           -1.155924710939     1.139620726777    -0.022170430329    12.000000000000
         C           -1.155966710939    -1.139579273223    -0.022125430329    12.000000000000
         H            0.743912289061     2.156897726777    -0.041692430329     1.007825032230
         H            0.743849289061    -2.156943273223    -0.041710430329     1.007825032230
         H           -1.734937710939     2.061975726777    -0.019615430329     1.007825032230
         H           -1.734980710939    -2.061930273223    -0.019799430329     1.007825032230
         H            2.795690289061    -0.835838273223     0.264740569671     1.007825032230
         H            2.795630289061     0.835979726777     0.264323569671     1.007825032230

  Basis Set: AUG-CC-PVTZ
    Blend: AUG-CC-PVTZ
  Basis Set: (AUG-CC-PVTZ AUX)
    Blend: AUG-CC-PVTZ-JKFIT
	 Reference Energy          =    -301.8209018924485463 [Eh]
	 Singles Energy            =      -0.0000000000000000 [Eh]
	 Same-Spin Energy          =      -0.3284381082813579 [Eh]
	 Opposite-Spin Energy      =      -1.0147287440254296 [Eh]
	 Correlation Energy        =      -1.3431668523067875 [Eh]
	 Total Energy              =    -303.1640687447553546 [Eh]

	 ================> DF-SCS-MP2 Energies <==================
	-----------------------------------------------------------
	 SCS Same-Spin Scale       =       0.3333333333333333 [-]
	 SCS Opposite-Spin Scale   =       1.2000000000000000 [-]
	 SCS Same-Spin Energy      =      -0.1094793694271193 [Eh]
	 SCS Opposite-Spin Energy  =      -1.2176744928305154 [Eh]
	 SCS Correlation Energy    =      -1.3271538622576347 [Eh]
	 SCS Total Energy          =    -303.1480557547062062 [Eh]
	-----------------------------------------------------------

  Dipole Moment: [D]
     X:     3.5219      Y:     0.1254      Z:     0.8381     Total:     3.6224

*** Psi4 exiting successfully. Buy a developer a beer!
