                               Psi4 1.3.2 release

  ==> Input File <==

--------------------------------------------------------------------------
#psi4
#
memory 32 gb

molecule  {
0 1
  N        2.3228640    -0.0000190    -0.0807740
  N       -1.9067410     0.0000080     0.0117080
  C        0.9299840    -0.0000240    -0.0024660
  C        0.1996340     1.1955560    -0.0090950
  C        0.1996160    -1.1955790    -0.0091200
  C       -1.1907070     1.1396190     0.0037780
  C       -1.1907490    -1.1395810     0.0038230
  H        0.7071451     2.1548460    -0.3157304
  H        0.7090670    -2.1569450    -0.0157620
  H       -1.7697200     2.0619740     0.0063330
  H       -1.7697630    -2.0619320     0.0061490
  H        2.7609080    -0.8358400     0.2906890
  H        2.7608480     0.8359780     0.2902720
units angstrom
no_reorient  #important for SAPT in psi4, default
symmetry c1  #important for SAPT in psi4, default
}

set PROPERTIES_ORIGIN ["COM"]
properties('MP2/aug-cc-pvtz', properties = ['dipole'])
--------------------------------------------------------------------------

    Molecular point group: c1
  Charge       = 0
  Multiplicity = 1
  Basis Set: AUG-CC-PVTZ
    Blend: AUG-CC-PVTZ
  Basis Set: (AUG-CC-PVTZ AUX)
    Blend: AUG-CC-PVTZ-JKFIT

    Orbital Energies [Eh]
    ---------------------

    Doubly Occupied:

       1A    -15.585149     2A    -15.551524     3A    -11.303874
       4A    -11.275791     5A    -11.275655     6A    -11.234736
       7A    -11.232123     8A     -1.255926     9A     -1.224466
      10A     -1.051583    11A     -1.027249    12A     -0.856484
      13A     -0.842335    14A     -0.718299    15A     -0.710255
      16A     -0.648153    17A     -0.622947    18A     -0.608293
      19A     -0.587740    20A     -0.555004    21A     -0.508220
      22A     -0.486971    23A     -0.414563    24A     -0.347200
      25A     -0.335041

  @DF-RHF Final Energy:  -301.83173768425462

   => Energetics <=

    Nuclear Repulsion Energy =            273.5386499622154020
    One-Electron Energy =                -950.2216128370355364
    Two-Electron Energy =                 374.8512251905654580
    Total Energy =                       -301.8317376842546196
  Basis Set: (AUG-CC-PVTZ AUX)
    Blend: AUG-CC-PVTZ-RI
    Molecular point group: c1

    Geometry (in Angstrom), charge = 0, multiplicity = 1:

       Center              X                  Y                   Z               Mass
    ------------   -----------------  -----------------  -----------------  -----------------
         N            2.358743567448     0.000004349045    -0.071629208879    14.003074004430
         N           -1.870861432552     0.000031349045     0.020852791121    14.003074004430
         C            0.965863567448    -0.000000650955     0.006678791121    12.000000000000
         C            0.235513567448     1.195579349045     0.000049791121    12.000000000000
         C            0.235495567448    -1.195555650955     0.000024791121    12.000000000000
         C           -1.154827432552     1.139642349045     0.012922791121    12.000000000000
         C           -1.154869432552    -1.139557650955     0.012967791121    12.000000000000
         H            0.743024667448     2.154869349045    -0.306585608879     1.007825032230
         H            0.744946567448    -2.156921650955    -0.006617208879     1.007825032230
         H           -1.733840432552     2.061997349045     0.015477791121     1.007825032230
         H           -1.733883432552    -2.061908650955     0.015293791121     1.007825032230
         H            2.796787567448    -0.835816650955     0.299833791121     1.007825032230
         H            2.796727567448     0.836001349045     0.299416791121     1.007825032230

  Basis Set: AUG-CC-PVTZ
    Blend: AUG-CC-PVTZ
  Basis Set: (AUG-CC-PVTZ AUX)
    Blend: AUG-CC-PVTZ-JKFIT
	 Reference Energy          =    -301.8317376842546196 [Eh]
	 Singles Energy            =      -0.0000000000000000 [Eh]
	 Same-Spin Energy          =      -0.3282926948004748 [Eh]
	 Opposite-Spin Energy      =      -1.0136010338925470 [Eh]
	 Correlation Energy        =      -1.3418937286930217 [Eh]
	 Total Energy              =    -303.1736314129476568 [Eh]

	 ================> DF-SCS-MP2 Energies <==================
	-----------------------------------------------------------
	 SCS Same-Spin Scale       =       0.3333333333333333 [-]
	 SCS Opposite-Spin Scale   =       1.2000000000000000 [-]
	 SCS Same-Spin Energy      =      -0.1094308982668249 [Eh]
	 SCS Opposite-Spin Energy  =      -1.2163212406710564 [Eh]
	 SCS Correlation Energy    =      -1.3257521389378812 [Eh]
	 SCS Total Energy          =    -303.1574898231925204 [Eh]
	-----------------------------------------------------------

  Dipole Moment: [D]
     X:     3.5597      Y:    -0.0638      Z:     0.7912     Total:     3.6472

*** Psi4 exiting successfully. Buy a developer a beer!
