                               Psi4 1.3.2 release

  ==> Input File <==

--------------------------------------------------------------------------
#psi4
#
memory 32 gb

molecule  {
0 1
  N        2.3228640    -0.0000190    -0.0807740
  N       -1.9067410     0.0000080     0.0117080
  C        0.9299840    -0.0000240    -0.0024660
  C        0.1996340     1.1955560    -0.0090950
  C        0.1996160    -1.1955790    -0.0091200
  C       -1.1907070     1.1396190     0.0037780
  C       -1.1907490    -1.1395810     0.0038230
  H        0.7091300     2.1568960    -0.0157440
  H        0.7090670    -2.1569450    -0.0157620
  H       -1.7692837     2.0620753     0.0563310
  H       -1.7697630    -2.0619320     0.0061490
  H        2.7609080    -0.8358400     0.2906890
  H        2.7608480     0.8359780     0.2902720
units angstrom
no_reorient  #important for SAPT in psi4, default
symmetry c1  #important for SAPT in psi4, default
}

set PROPERTIES_ORIGIN ["COM"]
properties('MP2/aug-cc-pvtz', properties = ['dipole'])
--------------------------------------------------------------------------

    Molecular point group: c1
  Charge       = 0
  Multiplicity = 1
  Basis Set: AUG-CC-PVTZ
    Blend: AUG-CC-PVTZ
  Basis Set: (AUG-CC-PVTZ AUX)
    Blend: AUG-CC-PVTZ-JKFIT

    Orbital Energies [Eh]
    ---------------------

    Doubly Occupied:

       1A    -15.585257     2A    -15.551101     3A    -11.303086
       4A    -11.274922     5A    -11.274818     6A    -11.231762
       7A    -11.231744     8A     -1.255595     9A     -1.224222
      10A     -1.051650    11A     -1.027732    12A     -0.857603
      13A     -0.842526    14A     -0.718460    15A     -0.710254
      16A     -0.654318    17A     -0.622822    18A     -0.607656
      19A     -0.590224    20A     -0.555140    21A     -0.510529
      22A     -0.486718    23A     -0.414094    24A     -0.347404
      25A     -0.335109

  @DF-RHF Final Energy:  -301.83705444025020

   => Energetics <=

    Nuclear Repulsion Energy =            273.6874399345988991
    One-Electron Energy =                -950.5194929648628204
    Two-Electron Energy =                 374.9949985900137790
    Total Energy =                       -301.8370544402501991
  Basis Set: (AUG-CC-PVTZ AUX)
    Blend: AUG-CC-PVTZ-RI
    Molecular point group: c1

    Geometry (in Angstrom), charge = 0, multiplicity = 1:

       Center              X                  Y                   Z               Mass
    ------------   -----------------  -----------------  -----------------  -----------------
         N            2.358717623103    -0.000018703188    -0.075379463214    14.003074004430
         N           -1.870887376897     0.000008296812     0.017102536786    14.003074004430
         C            0.965837623103    -0.000023703188     0.002928536786    12.000000000000
         C            0.235487623103     1.195556296812    -0.003700463214    12.000000000000
         C            0.235469623103    -1.195578703188    -0.003725463214    12.000000000000
         C           -1.154853376897     1.139619296812     0.009172536786    12.000000000000
         C           -1.154895376897    -1.139580703188     0.009217536786    12.000000000000
         H            0.744983623103     2.156896296812    -0.010349463214     1.007825032230
         H            0.744920623103    -2.156944703188    -0.010367463214     1.007825032230
         H           -1.733430076897     2.062075596812     0.061725536786     1.007825032230
         H           -1.733909376897    -2.061931703188     0.011543536786     1.007825032230
         H            2.796761623103    -0.835839703188     0.296083536786     1.007825032230
         H            2.796701623103     0.835978296812     0.295666536786     1.007825032230

  Basis Set: AUG-CC-PVTZ
    Blend: AUG-CC-PVTZ
  Basis Set: (AUG-CC-PVTZ AUX)
    Blend: AUG-CC-PVTZ-JKFIT
	 Reference Energy          =    -301.8370544402501991 [Eh]
	 Singles Energy            =      -0.0000000000000000 [Eh]
	 Same-Spin Energy          =      -0.3281286606063010 [Eh]
	 Opposite-Spin Energy      =      -1.0131657768223448 [Eh]
	 Correlation Energy        =      -1.3412944374286457 [Eh]
	 Total Energy              =    -303.1783488776788431 [Eh]

	 ================> DF-SCS-MP2 Energies <==================
	-----------------------------------------------------------
	 SCS Same-Spin Scale       =       0.3333333333333333 [-]
	 SCS Opposite-Spin Scale   =       1.2000000000000000 [-]
	 SCS Same-Spin Energy      =      -0.1093762202021003 [Eh]
	 SCS Opposite-Spin Energy  =      -1.2157989321868137 [Eh]
	 SCS Correlation Energy    =      -1.3251751523889139 [Eh]
	 SCS Total Energy          =    -303.1622295926391075 [Eh]
	-----------------------------------------------------------

  Dipole Moment: [D]
     X:     3.5942      Y:    -0.0015      Z:     1.0027     Total:     3.7315

*** Psi4 exiting successfully. Buy a developer a beer!
