                               Psi4 1.3.2 release

  ==> Input File <==

--------------------------------------------------------------------------
#psi4
#
memory 32 gb

molecule  {
0 1
  N        2.3228640    -0.0000190    -0.0807740
  N       -1.9067410     0.0000080     0.0117080
  C        0.9299840    -0.0000240    -0.0024660
  C        0.1996340     1.1955560    -0.0090950
  C        0.2063628    -1.1955811     0.1907662
  C       -1.1907070     1.1396190     0.0037780
  C       -1.1907490    -1.1395810     0.0038230
  H        0.7091300     2.1568960    -0.0157440
  H        0.7090670    -2.1569450    -0.0157620
  H       -1.7697200     2.0619740     0.0063330
  H       -1.7697630    -2.0619320     0.0061490
  H        2.7609080    -0.8358400     0.2906890
  H        2.7608480     0.8359780     0.2902720
units angstrom
no_reorient  #important for SAPT in psi4, default
symmetry c1  #important for SAPT in psi4, default
}

set PROPERTIES_ORIGIN ["COM"]
properties('MP2/aug-cc-pvtz', properties = ['dipole'])
--------------------------------------------------------------------------

    Molecular point group: c1
  Charge       = 0
  Multiplicity = 1
  Basis Set: AUG-CC-PVTZ
    Blend: AUG-CC-PVTZ
  Basis Set: (AUG-CC-PVTZ AUX)
    Blend: AUG-CC-PVTZ-JKFIT

    Orbital Energies [Eh]
    ---------------------

    Doubly Occupied:

       1A    -15.585335     2A    -15.551587     3A    -11.305875
       4A    -11.279338     5A    -11.277073     6A    -11.234468
       7A    -11.231811     8A     -1.255620     9A     -1.224737
      10A     -1.050514    11A     -1.026021    12A     -0.857729
      13A     -0.840186    14A     -0.718455    15A     -0.709324
      16A     -0.651234    17A     -0.621729    18A     -0.609171
      19A     -0.587268    20A     -0.552592    21A     -0.509360
      22A     -0.485289    23A     -0.413685    24A     -0.346681
      25A     -0.336453

  @DF-RHF Final Energy:  -301.82699816282275

   => Energetics <=

    Nuclear Repulsion Energy =            273.2414525456117644
    One-Electron Energy =                -949.6138282276053815
    Two-Electron Energy =                 374.5453775191708701
    Total Energy =                       -301.8269981628227470
  Basis Set: (AUG-CC-PVTZ AUX)
    Blend: AUG-CC-PVTZ-RI
    Molecular point group: c1

    Geometry (in Angstrom), charge = 0, multiplicity = 1:

       Center              X                  Y                   Z               Mass
    ------------   -----------------  -----------------  -----------------  -----------------
         N            2.357861490903    -0.000017349775    -0.100346691396    14.003074004430
         N           -1.871743509097     0.000009650225    -0.007864691396    14.003074004430
         C            0.964981490903    -0.000022349775    -0.022038691396    12.000000000000
         C            0.234631490903     1.195557650225    -0.028667691396    12.000000000000
         C            0.241360290903    -1.195579449775     0.171193508604    12.000000000000
         C           -1.155709509097     1.139620650225    -0.015794691396    12.000000000000
         C           -1.155751509097    -1.139579349775    -0.015749691396    12.000000000000
         H            0.744127490903     2.156897650225    -0.035316691396     1.007825032230
         H            0.744064490903    -2.156943349775    -0.035334691396     1.007825032230
         H           -1.734722509097     2.061975650225    -0.013239691396     1.007825032230
         H           -1.734765509097    -2.061930349775    -0.013423691396     1.007825032230
         H            2.795905490903    -0.835838349775     0.271116308604     1.007825032230
         H            2.795845490903     0.835979650225     0.270699308604     1.007825032230

  Basis Set: AUG-CC-PVTZ
    Blend: AUG-CC-PVTZ
  Basis Set: (AUG-CC-PVTZ AUX)
    Blend: AUG-CC-PVTZ-JKFIT
	 Reference Energy          =    -301.8269981628227470 [Eh]
	 Singles Energy            =      -0.0000000000000000 [Eh]
	 Same-Spin Energy          =      -0.3283089593644080 [Eh]
	 Opposite-Spin Energy      =      -1.0140722617689819 [Eh]
	 Correlation Energy        =      -1.3423812211333899 [Eh]
	 Total Energy              =    -303.1693793839561408 [Eh]

	 ================> DF-SCS-MP2 Energies <==================
	-----------------------------------------------------------
	 SCS Same-Spin Scale       =       0.3333333333333333 [-]
	 SCS Opposite-Spin Scale   =       1.2000000000000000 [-]
	 SCS Same-Spin Energy      =      -0.1094363197881360 [Eh]
	 SCS Opposite-Spin Energy  =      -1.2168867141227782 [Eh]
	 SCS Correlation Energy    =      -1.3263230339109142 [Eh]
	 SCS Total Energy          =    -303.1533211967336570 [Eh]
	-----------------------------------------------------------

  Dipole Moment: [D]
     X:     3.5415      Y:     0.0811      Z:     0.8696     Total:     3.6476

*** Psi4 exiting successfully. Buy a developer a beer!
