                               Psi4 1.3.2 release

  ==> Input File <==

--------------------------------------------------------------------------
#psi4
#
memory 32 gb

molecule  {
0 1
  N        2.3228640    -0.0000190    -0.0807740
  N       -1.9067410     0.0000080     0.0117080
  C        0.9299840    -0.0000240    -0.0024660
  C        0.1996340     1.1955560    -0.0090950
  C        0.1996160    -1.1955790    -0.0091200
  C       -1.1907070     1.1396190     0.0037780
  C       -1.1907490    -1.1395810     0.0038230
  H        0.7091300     2.1568960    -0.0157440
  H        0.7090670    -2.1569450    -0.0157620
  H       -1.7688475     2.0621767     0.1063290
  H       -1.7697630    -2.0619320     0.0061490
  H        2.7609080    -0.8358400     0.2906890
  H        2.7608480     0.8359780     0.2902720
units angstrom
no_reorient  #important for SAPT in psi4, default
symmetry c1  #important for SAPT in psi4, default
}

set PROPERTIES_ORIGIN ["COM"]
properties('MP2/aug-cc-pvtz', properties = ['dipole'])
--------------------------------------------------------------------------

    Molecular point group: c1
  Charge       = 0
  Multiplicity = 1
  Basis Set: AUG-CC-PVTZ
    Blend: AUG-CC-PVTZ
  Basis Set: (AUG-CC-PVTZ AUX)
    Blend: AUG-CC-PVTZ-JKFIT

    Orbital Energies [Eh]
    ---------------------

    Doubly Occupied:

       1A    -15.585291     2A    -15.551162     3A    -11.303109
       4A    -11.275261     5A    -11.274861     6A    -11.231818
       7A    -11.231796     8A     -1.255627     9A     -1.224251
      10A     -1.051688    11A     -1.027674    12A     -0.857484
      13A     -0.842439    14A     -0.718183    15A     -0.710278
      16A     -0.654248    17A     -0.622815    18A     -0.607688
      19A     -0.590086    20A     -0.554912    21A     -0.510450
      22A     -0.486598    23A     -0.414152    24A     -0.347318
      25A     -0.335127

  @DF-RHF Final Energy:  -301.83654565773037

   => Energetics <=

    Nuclear Repulsion Energy =            273.6744238029972394
    One-Electron Energy =                -950.4933090872555113
    Two-Electron Energy =                 374.9823396265279030
    Total Energy =                       -301.8365456577303689
  Basis Set: (AUG-CC-PVTZ AUX)
    Blend: AUG-CC-PVTZ-RI
    Molecular point group: c1

    Geometry (in Angstrom), charge = 0, multiplicity = 1:

       Center              X                  Y                   Z               Mass
    ------------   -----------------  -----------------  -----------------  -----------------
         N            2.358712949007    -0.000019789739    -0.075915216282    14.003074004430
         N           -1.870892050993     0.000007210261     0.016566783718    14.003074004430
         C            0.965832949007    -0.000024789739     0.002392783718    12.000000000000
         C            0.235482949007     1.195555210261    -0.004236216282    12.000000000000
         C            0.235464949007    -1.195579789739    -0.004261216282    12.000000000000
         C           -1.154858050993     1.139618210261     0.008636783718    12.000000000000
         C           -1.154900050993    -1.139581789739     0.008681783718    12.000000000000
         H            0.744978949007     2.156895210261    -0.010885216282     1.007825032230
         H            0.744915949007    -2.156945789739    -0.010903216282     1.007825032230
         H           -1.732998550993     2.062175910261     0.111187783718     1.007825032230
         H           -1.733914050993    -2.061932789739     0.011007783718     1.007825032230
         H            2.796756949007    -0.835840789739     0.295547783718     1.007825032230
         H            2.796696949007     0.835977210261     0.295130783718     1.007825032230

  Basis Set: AUG-CC-PVTZ
    Blend: AUG-CC-PVTZ
  Basis Set: (AUG-CC-PVTZ AUX)
    Blend: AUG-CC-PVTZ-JKFIT
	 Reference Energy          =    -301.8365456577303689 [Eh]
	 Singles Energy            =      -0.0000000000000000 [Eh]
	 Same-Spin Energy          =      -0.3281642980190551 [Eh]
	 Opposite-Spin Energy      =      -1.0132372454543130 [Eh]
	 Correlation Energy        =      -1.3414015434733682 [Eh]
	 Total Energy              =    -303.1779472012037218 [Eh]

	 ================> DF-SCS-MP2 Energies <==================
	-----------------------------------------------------------
	 SCS Same-Spin Scale       =       0.3333333333333333 [-]
	 SCS Opposite-Spin Scale   =       1.2000000000000000 [-]
	 SCS Same-Spin Energy      =      -0.1093880993396850 [Eh]
	 SCS Opposite-Spin Energy  =      -1.2158846945451756 [Eh]
	 SCS Correlation Energy    =      -1.3252727938848605 [Eh]
	 SCS Total Energy          =    -303.1618184516152041 [Eh]
	-----------------------------------------------------------

  Dipole Moment: [D]
     X:     3.5973      Y:    -0.0070      Z:     1.0284     Total:     3.7414

*** Psi4 exiting successfully. Buy a developer a beer!
