                               Psi4 1.3.2 release

  ==> Input File <==

--------------------------------------------------------------------------
#psi4
#
memory 32 gb

molecule  {
0 1
  N        2.3228640    -0.0000190    -0.0807740
  N       -1.9067410     0.0000080     0.0117080
  C        0.9299840    -0.0000240    -0.0024660
  C        0.1996340     1.1955560    -0.0090950
  C        0.1996160    -1.1955790    -0.0091200
  C       -1.1907070     1.1396190     0.0037780
  C       -1.1907490    -1.1395810     0.0038230
  H        0.7091300     2.1568960    -0.0157440
  H        0.7090670    -2.1569450    -0.0157620
  H       -1.7675386     2.0624807     0.2563230
  H       -1.7697630    -2.0619320     0.0061490
  H        2.7609080    -0.8358400     0.2906890
  H        2.7608480     0.8359780     0.2902720
units angstrom
no_reorient  #important for SAPT in psi4, default
symmetry c1  #important for SAPT in psi4, default
}

set PROPERTIES_ORIGIN ["COM"]
properties('MP2/aug-cc-pvtz', properties = ['dipole'])
--------------------------------------------------------------------------

    Molecular point group: c1
  Charge       = 0
  Multiplicity = 1
  Basis Set: AUG-CC-PVTZ
    Blend: AUG-CC-PVTZ
  Basis Set: (AUG-CC-PVTZ AUX)
    Blend: AUG-CC-PVTZ-JKFIT

    Orbital Energies [Eh]
    ---------------------

    Doubly Occupied:

       1A    -15.585467     2A    -15.551587     3A    -11.303289
       4A    -11.277580     5A    -11.275164     6A    -11.232204
       7A    -11.232176     8A     -1.255846     9A     -1.224440
      10A     -1.051960    11A     -1.027307    12A     -0.856780
      13A     -0.841806    14A     -0.716462    15A     -0.710408
      16A     -0.653864    17A     -0.622784    18A     -0.607227
      19A     -0.589087    20A     -0.554195    21A     -0.509837
      22A     -0.485519    23A     -0.414416    24A     -0.346784
      25A     -0.335287

  @DF-RHF Final Energy:  -301.83271857837292

   => Energetics <=

    Nuclear Repulsion Energy =            273.5854090414143229
    One-Electron Energy =                -950.3133081063209602
    Two-Electron Energy =                 374.8951804865337181
    Total Energy =                       -301.8327185783729192
  Basis Set: (AUG-CC-PVTZ AUX)
    Blend: AUG-CC-PVTZ-RI
    Molecular point group: c1

    Geometry (in Angstrom), charge = 0, multiplicity = 1:

       Center              X                  Y                   Z               Mass
    ------------   -----------------  -----------------  -----------------  -----------------
         N            2.358698923502    -0.000023047248    -0.077522475488    14.003074004430
         N           -1.870906076498     0.000003952752     0.014959524512    14.003074004430
         C            0.965818923502    -0.000028047248     0.000785524512    12.000000000000
         C            0.235468923502     1.195551952752    -0.005843475488    12.000000000000
         C            0.235450923502    -1.195583047248    -0.005868475488    12.000000000000
         C           -1.154872076498     1.139614952752     0.007029524512    12.000000000000
         C           -1.154914076498    -1.139585047248     0.007074524512    12.000000000000
         H            0.744964923502     2.156891952752    -0.012492475488     1.007825032230
         H            0.744901923502    -2.156949047248    -0.012510475488     1.007825032230
         H           -1.731703676498     2.062476652752     0.259574524512     1.007825032230
         H           -1.733928076498    -2.061936047248     0.009400524512     1.007825032230
         H            2.796742923502    -0.835844047248     0.293940524512     1.007825032230
         H            2.796682923502     0.835973952752     0.293523524512     1.007825032230

  Basis Set: AUG-CC-PVTZ
    Blend: AUG-CC-PVTZ
  Basis Set: (AUG-CC-PVTZ AUX)
    Blend: AUG-CC-PVTZ-JKFIT
	 Reference Energy          =    -301.8327185783729192 [Eh]
	 Singles Energy            =      -0.0000000000000000 [Eh]
	 Same-Spin Energy          =      -0.3284051557345495 [Eh]
	 Opposite-Spin Energy      =      -1.0137698732810709 [Eh]
	 Correlation Energy        =      -1.3421750290156205 [Eh]
	 Total Energy              =    -303.1748936073885261 [Eh]

	 ================> DF-SCS-MP2 Energies <==================
	-----------------------------------------------------------
	 SCS Same-Spin Scale       =       0.3333333333333333 [-]
	 SCS Opposite-Spin Scale   =       1.2000000000000000 [-]
	 SCS Same-Spin Energy      =      -0.1094683852448498 [Eh]
	 SCS Opposite-Spin Energy  =      -1.2165238479372851 [Eh]
	 SCS Correlation Energy    =      -1.3259922331821350 [Eh]
	 SCS Total Energy          =    -303.1587108115550677 [Eh]
	-----------------------------------------------------------

  Dipole Moment: [D]
     X:     3.6173      Y:    -0.0462      Z:     1.1037     Total:     3.7822

*** Psi4 exiting successfully. Buy a developer a beer!
