                               Psi4 1.3.2 release

  ==> Input File <==

--------------------------------------------------------------------------
#psi4
#
memory 32 gb

molecule  {
0 1
  N        2.3228640    -0.0000190    -0.0807740
  N       -1.9067410     0.0000080     0.0117080
  C        0.9299840    -0.0000240    -0.0024660
  C        0.1996340     1.1955560    -0.0090950
  C        0.2046761    -1.1955806     0.1407946
  C       -1.1907070     1.1396190     0.0037780
  C       -1.1907490    -1.1395810     0.0038230
  H        0.7091300     2.1568960    -0.0157440
  H        0.7090670    -2.1569450    -0.0157620
  H       -1.7697200     2.0619740     0.0063330
  H       -1.7697630    -2.0619320     0.0061490
  H        2.7609080    -0.8358400     0.2906890
  H        2.7608480     0.8359780     0.2902720
units angstrom
no_reorient  #important for SAPT in psi4, default
symmetry c1  #important for SAPT in psi4, default
}

set PROPERTIES_ORIGIN ["COM"]
properties('MP2/aug-cc-pvtz', properties = ['dipole'])
--------------------------------------------------------------------------

    Molecular point group: c1
  Charge       = 0
  Multiplicity = 1
  Basis Set: AUG-CC-PVTZ
    Blend: AUG-CC-PVTZ
  Basis Set: (AUG-CC-PVTZ AUX)
    Blend: AUG-CC-PVTZ-JKFIT

    Orbital Energies [Eh]
    ---------------------

    Doubly Occupied:

       1A    -15.585137     2A    -15.551432     3A    -11.304620
       4A    -11.277597     5A    -11.276117     6A    -11.233255
       7A    -11.231780     8A     -1.255606     9A     -1.224481
      10A     -1.051004    11A     -1.026760    12A     -0.857825
      13A     -0.841094    14A     -0.718526    15A     -0.709679
      16A     -0.652609    17A     -0.622172    18A     -0.608883
      19A     -0.588644    20A     -0.553471    21A     -0.510148
      22A     -0.485776    23A     -0.413821    24A     -0.346944
      25A     -0.336038

  @DF-RHF Final Energy:  -301.83164928358582

   => Energetics <=

    Nuclear Repulsion Energy =            273.4361257644221155
    One-Electron Energy =                -950.0087095742183010
    Two-Electron Energy =                 374.7409345262104239
    Total Energy =                       -301.8316492835858185
  Basis Set: (AUG-CC-PVTZ AUX)
    Blend: AUG-CC-PVTZ-RI
    Molecular point group: c1

    Geometry (in Angstrom), charge = 0, multiplicity = 1:

       Center              X                  Y                   Z               Mass
    ------------   -----------------  -----------------  -----------------  -----------------
         N            2.358076692745    -0.000017413569    -0.093970939704    14.003074004430
         N           -1.871528307255     0.000009586431    -0.001488939704    14.003074004430
         C            0.965196692745    -0.000022413569    -0.015662939704    12.000000000000
         C            0.234846692745     1.195557586431    -0.022291939704    12.000000000000
         C            0.239888792745    -1.195579013569     0.127597660296    12.000000000000
         C           -1.155494307255     1.139620586431    -0.009418939704    12.000000000000
         C           -1.155536307255    -1.139579413569    -0.009373939704    12.000000000000
         H            0.744342692745     2.156897586431    -0.028940939704     1.007825032230
         H            0.744279692745    -2.156943413569    -0.028958939704     1.007825032230
         H           -1.734507307255     2.061975586431    -0.006863939704     1.007825032230
         H           -1.734550307255    -2.061930413569    -0.007047939704     1.007825032230
         H            2.796120692745    -0.835838413569     0.277492060296     1.007825032230
         H            2.796060692745     0.835979586431     0.277075060296     1.007825032230

  Basis Set: AUG-CC-PVTZ
    Blend: AUG-CC-PVTZ
  Basis Set: (AUG-CC-PVTZ AUX)
    Blend: AUG-CC-PVTZ-JKFIT
	 Reference Energy          =    -301.8316492835858185 [Eh]
	 Singles Energy            =      -0.0000000000000000 [Eh]
	 Same-Spin Energy          =      -0.3282093685693743 [Eh]
	 Opposite-Spin Energy      =      -1.0135838701673561 [Eh]
	 Correlation Energy        =      -1.3417932387367304 [Eh]
	 Total Energy              =    -303.1734425223225458 [Eh]

	 ================> DF-SCS-MP2 Energies <==================
	-----------------------------------------------------------
	 SCS Same-Spin Scale       =       0.3333333333333333 [-]
	 SCS Opposite-Spin Scale   =       1.2000000000000000 [-]
	 SCS Same-Spin Energy      =      -0.1094031228564581 [Eh]
	 SCS Opposite-Spin Energy  =      -1.2163006442008273 [Eh]
	 SCS Correlation Energy    =      -1.3257037670572853 [Eh]
	 SCS Total Energy          =    -303.1573530506431098 [Eh]
	-----------------------------------------------------------

  Dipole Moment: [D]
     X:     3.5587      Y:     0.0462      Z:     0.8989     Total:     3.6707

*** Psi4 exiting successfully. Buy a developer a beer!
