                               Psi4 1.3.2 release

  ==> Input File <==

--------------------------------------------------------------------------
#psi4
#
memory 32 gb

molecule  {
0 1
  N        2.3228640    -0.0000190    -0.0807740
  N       -1.9067410     0.0000080     0.0117080
  C        0.9299840    -0.0000240    -0.0024660
  C        0.1996340     1.1955560    -0.0090950
  C        0.1996160    -1.1955790    -0.0091200
  C       -1.1907070     1.1396190     0.0037780
  C       -1.1907490    -1.1395810     0.0038230
  H        0.7074759     2.1551877    -0.2657327
  H        0.7090670    -2.1569450    -0.0157620
  H       -1.7697200     2.0619740     0.0063330
  H       -1.7697630    -2.0619320     0.0061490
  H        2.7609080    -0.8358400     0.2906890
  H        2.7608480     0.8359780     0.2902720
units angstrom
no_reorient  #important for SAPT in psi4, default
symmetry c1  #important for SAPT in psi4, default
}

set PROPERTIES_ORIGIN ["COM"]
properties('MP2/aug-cc-pvtz', properties = ['dipole'])
--------------------------------------------------------------------------

    Molecular point group: c1
  Charge       = 0
  Multiplicity = 1
  Basis Set: AUG-CC-PVTZ
    Blend: AUG-CC-PVTZ
  Basis Set: (AUG-CC-PVTZ AUX)
    Blend: AUG-CC-PVTZ-JKFIT

    Orbital Energies [Eh]
    ---------------------

    Doubly Occupied:

       1A    -15.585129     2A    -15.551386     3A    -11.303640
       4A    -11.275496     5A    -11.275390     6A    -11.233797
       7A    -11.232006     8A     -1.255810     9A     -1.224370
      10A     -1.051582    11A     -1.027384    12A     -0.856788
      13A     -0.842384    14A     -0.718373    15A     -0.710233
      16A     -0.649823    17A     -0.622903    18A     -0.608112
      19A     -0.588537    20A     -0.555138    21A     -0.508973
      22A     -0.486894    23A     -0.414427    24A     -0.347250
      25A     -0.335033

  @DF-RHF Final Energy:  -301.83357763624264

   => Energetics <=

    Nuclear Repulsion Energy =            273.5845314925391563
    One-Electron Energy =                -950.3145053180206787
    Two-Electron Energy =                 374.8963961892388284
    Total Energy =                       -301.8335776362426373
  Basis Set: (AUG-CC-PVTZ AUX)
    Blend: AUG-CC-PVTZ-RI
    Molecular point group: c1

    Geometry (in Angstrom), charge = 0, multiplicity = 1:

       Center              X                  Y                   Z               Mass
    ------------   -----------------  -----------------  -----------------  -----------------
         N            2.358740022764     0.000000687562    -0.072164958733    14.003074004430
         N           -1.870864977236     0.000027687562     0.020317041267    14.003074004430
         C            0.965860022764    -0.000004312438     0.006143041267    12.000000000000
         C            0.235510022764     1.195575687562    -0.000485958733    12.000000000000
         C            0.235492022764    -1.195559312438    -0.000510958733    12.000000000000
         C           -1.154830977236     1.139638687562     0.012387041267    12.000000000000
         C           -1.154872977236    -1.139561312438     0.012432041267    12.000000000000
         H            0.743351922764     2.155207387562    -0.257123658733     1.007825032230
         H            0.744943022764    -2.156925312438    -0.007152958733     1.007825032230
         H           -1.733843977236     2.061993687562     0.014942041267     1.007825032230
         H           -1.733886977236    -2.061912312438     0.014758041267     1.007825032230
         H            2.796784022764    -0.835820312438     0.299298041267     1.007825032230
         H            2.796724022764     0.835997687562     0.298881041267     1.007825032230

  Basis Set: AUG-CC-PVTZ
    Blend: AUG-CC-PVTZ
  Basis Set: (AUG-CC-PVTZ AUX)
    Blend: AUG-CC-PVTZ-JKFIT
	 Reference Energy          =    -301.8335776362426373 [Eh]
	 Singles Energy            =      -0.0000000000000000 [Eh]
	 Same-Spin Energy          =      -0.3282362112937854 [Eh]
	 Opposite-Spin Energy      =      -1.0134425604029520 [Eh]
	 Correlation Energy        =      -1.3416787716967375 [Eh]
	 Total Energy              =    -303.1752564079394006 [Eh]

	 ================> DF-SCS-MP2 Energies <==================
	-----------------------------------------------------------
	 SCS Same-Spin Scale       =       0.3333333333333333 [-]
	 SCS Opposite-Spin Scale   =       1.2000000000000000 [-]
	 SCS Same-Spin Energy      =      -0.1094120704312618 [Eh]
	 SCS Opposite-Spin Energy  =      -1.2161310724835424 [Eh]
	 SCS Correlation Energy    =      -1.3255431429148041 [Eh]
	 SCS Total Energy          =    -303.1591207791574334 [Eh]
	-----------------------------------------------------------

  Dipole Moment: [D]
     X:     3.5695      Y:    -0.0444      Z:     0.8213     Total:     3.6630

*** Psi4 exiting successfully. Buy a developer a beer!
