                               Psi4 1.3.2 release

  ==> Input File <==

--------------------------------------------------------------------------
#psi4
#
memory 32 gb

molecule  {
0 1
 Cl        0.2076870     2.2487580     0.1866360
  O        2.2653220     0.2846580    -0.8778020
  C        0.1642190    -0.4887810    -0.0665560
  C       -0.5729690     0.7033250     0.0302020
  C       -0.5420740    -1.7002010    -0.1332520
  C        1.6632570    -0.5094160    -0.1597980
  C       -1.9684630     0.6780340     0.0679080
  C       -1.9349490    -1.7304420    -0.1201220
  C       -2.6487990    -0.5355840    -0.0206560
  C        2.4018569    -1.4573552     0.7716053
  H        0.0096830    -2.6331730    -0.2140200
  H       -2.5123770     1.6138940     0.1595600
  H       -2.4587670    -2.6802070    -0.1882350
  H       -3.7356500    -0.5434820    -0.0013820
  H        2.2064120    -2.5587800     0.2654600
  H        2.0546340    -1.5354670     1.6969810
  H        3.4631710    -1.3484660     0.6031360
units angstrom
no_reorient  #important for SAPT in psi4, default
symmetry c1  #important for SAPT in psi4, default
}

set PROPERTIES_ORIGIN ["COM"]
properties('MP2/aug-cc-pvtz', properties = ['dipole'])
--------------------------------------------------------------------------

    Molecular point group: c1
  Charge       = 0
  Multiplicity = 1
  Basis Set: AUG-CC-PVTZ
    Blend: AUG-CC-PVTZ
  Basis Set: (AUG-CC-PVTZ AUX)
    Blend: AUG-CC-PVTZ-JKFIT

    Orbital Energies [Eh]
    ---------------------

    Doubly Occupied:

       1A   -104.841425     2A    -20.553203     3A    -11.348039
       4A    -11.320747     5A    -11.270854     6A    -11.266847
       7A    -11.263801     8A    -11.260208     9A    -11.257740
      10A    -11.247183    11A    -10.565209    12A     -8.032106
      13A     -8.030145    14A     -8.030090    15A     -1.384173
      16A     -1.199572    17A     -1.126742    18A     -1.066312
      19A     -1.013842    20A     -1.000601    21A     -0.876437
      22A     -0.838414    23A     -0.772975    24A     -0.706323
      25A     -0.672913    26A     -0.667636    27A     -0.635651
      28A     -0.620588    29A     -0.609251    30A     -0.596723
      31A     -0.559378    32A     -0.545820    33A     -0.538834
      34A     -0.524444    35A     -0.489710    36A     -0.473091
      37A     -0.455041    38A     -0.419964    39A     -0.362056
      40A     -0.344498

  @DF-RHF Final Energy:  -841.50603172105582

   => Energetics <=

    Nuclear Repulsion Energy =            563.6048570167382650
    One-Electron Energy =               -2272.6446083147393438
    Two-Electron Energy =                 867.5337195769453729
    Total Energy =                       -841.5060317210558196
  Basis Set: (AUG-CC-PVTZ AUX)
    Blend: AUG-CC-PVTZ-RI
    Molecular point group: c1

    Geometry (in Angstrom), charge = 0, multiplicity = 1:

       Center              X                  Y                   Z               Mass
    ------------   -----------------  -----------------  -----------------  -----------------
         CL           0.199501959840     2.164722316719     0.191455418683    34.968852682000
         O            2.257136959840     0.200622316719    -0.872982581317    15.994914619570
         C            0.156033959840    -0.572816683281    -0.061736581317    12.000000000000
         C           -0.581154040160     0.619289316719     0.035021418683    12.000000000000
         C           -0.550259040160    -1.784236683281    -0.128432581317    12.000000000000
         C            1.655071959840    -0.593451683281    -0.154978581317    12.000000000000
         C           -1.976648040160     0.593998316719     0.072727418683    12.000000000000
         C           -1.943134040160    -1.814477683281    -0.115302581317    12.000000000000
         C           -2.656984040160    -0.619619683281    -0.015836581317    12.000000000000
         C            2.393671859840    -1.541390883281     0.776424718683    12.000000000000
         H            0.001497959840    -2.717208683281    -0.209200581317     1.007825032230
         H           -2.520562040160     1.529858316719     0.164379418683     1.007825032230
         H           -2.466952040160    -2.764242683281    -0.183415581317     1.007825032230
         H           -3.743835040160    -0.627517683281     0.003437418683     1.007825032230
         H            2.198226959840    -2.642815683281     0.270279418683     1.007825032230
         H            2.046448959840    -1.619502683281     1.701800418683     1.007825032230
         H            3.454985959840    -1.432501683281     0.607955418683     1.007825032230

  Basis Set: AUG-CC-PVTZ
    Blend: AUG-CC-PVTZ
  Basis Set: (AUG-CC-PVTZ AUX)
    Blend: AUG-CC-PVTZ-JKFIT
	 Reference Energy          =    -841.5060317210558196 [Eh]
	 Singles Energy            =      -0.0000000000000000 [Eh]
	 Same-Spin Energy          =      -0.4745944262627719 [Eh]
	 Opposite-Spin Energy      =      -1.4500986382200713 [Eh]
	 Correlation Energy        =      -1.9246930644828433 [Eh]
	 Total Energy              =    -843.4307247855387004 [Eh]

	 ================> DF-SCS-MP2 Energies <==================
	-----------------------------------------------------------
	 SCS Same-Spin Scale       =       0.3333333333333333 [-]
	 SCS Opposite-Spin Scale   =       1.2000000000000000 [-]
	 SCS Same-Spin Energy      =      -0.1581981420875906 [Eh]
	 SCS Opposite-Spin Energy  =      -1.7401183658640855 [Eh]
	 SCS Correlation Energy    =      -1.8983165079516762 [Eh]
	 SCS Total Energy          =    -843.4043482290074962 [Eh]
	-----------------------------------------------------------

  Dipole Moment: [D]
     X:    -2.1931      Y:    -2.9734      Z:     1.4703     Total:     3.9765

*** Psi4 exiting successfully. Buy a developer a beer!
