                               Psi4 1.3.2 release

  ==> Input File <==

--------------------------------------------------------------------------
#psi4
#
memory 32 gb

molecule  {
0 1
 Cl        0.2076870     2.2487580     0.1866360
  O        2.2653220     0.2846580    -0.8778020
  C        0.1642190    -0.4887810    -0.0665560
  C       -0.5729690     0.7033250     0.0302020
  C       -0.5420740    -1.7002010    -0.1332520
  C        1.6632570    -0.5094160    -0.1597980
  C       -1.9690773     0.6826481     0.0181251
  C       -1.9349490    -1.7304420    -0.1201220
  C       -2.6487990    -0.5355840    -0.0206560
  C        2.3930500    -1.5536810     0.6569590
  H        0.0096830    -2.6331730    -0.2140200
  H       -2.5123770     1.6138940     0.1595600
  H       -2.4587670    -2.6802070    -0.1882350
  H       -3.7356500    -0.5434820    -0.0013820
  H        2.2064120    -2.5587800     0.2654600
  H        2.0546340    -1.5354670     1.6969810
  H        3.4631710    -1.3484660     0.6031360
units angstrom
no_reorient  #important for SAPT in psi4, default
symmetry c1  #important for SAPT in psi4, default
}

set PROPERTIES_ORIGIN ["COM"]
properties('MP2/aug-cc-pvtz', properties = ['dipole'])
--------------------------------------------------------------------------

    Molecular point group: c1
  Charge       = 0
  Multiplicity = 1
  Basis Set: AUG-CC-PVTZ
    Blend: AUG-CC-PVTZ
  Basis Set: (AUG-CC-PVTZ AUX)
    Blend: AUG-CC-PVTZ-JKFIT

    Orbital Energies [Eh]
    ---------------------

    Doubly Occupied:

       1A   -104.841228     2A    -20.553419     3A    -11.346298
       4A    -11.320458     5A    -11.270464     6A    -11.267554
       7A    -11.264216     8A    -11.260263     9A    -11.257984
      10A    -11.243020    11A    -10.565009    12A     -8.031905
      13A     -8.029946    14A     -8.029890    15A     -1.384158
      16A     -1.199380    17A     -1.126730    18A     -1.066337
      19A     -1.013119    20A     -0.999804    21A     -0.876273
      22A     -0.837794    23A     -0.771823    24A     -0.704203
      25A     -0.668836    26A     -0.663875    27A     -0.634298
      28A     -0.621563    29A     -0.604011    30A     -0.593627
      31A     -0.564406    32A     -0.552713    33A     -0.535354
      34A     -0.524154    35A     -0.497912    36A     -0.473432
      37A     -0.457931    38A     -0.420014    39A     -0.361780
      40A     -0.344330

  @DF-RHF Final Energy:  -841.52624072937510

   => Energetics <=

    Nuclear Repulsion Energy =            563.5892217069855405
    One-Electron Energy =               -2272.6719080310558638
    Two-Electron Energy =                 867.5564455946953331
    Total Energy =                       -841.5262407293751039
  Basis Set: (AUG-CC-PVTZ AUX)
    Blend: AUG-CC-PVTZ-RI
    Molecular point group: c1

    Geometry (in Angstrom), charge = 0, multiplicity = 1:

       Center              X                  Y                   Z               Mass
    ------------   -----------------  -----------------  -----------------  -----------------
         CL           0.200235990939     2.171867822591     0.204266541082    34.968852682000
         O            2.257870990939     0.207767822591    -0.860171458918    15.994914619570
         C            0.156767990939    -0.565671177409    -0.048925458918    12.000000000000
         C           -0.580420009061     0.626434822591     0.047832541082    12.000000000000
         C           -0.549525009061    -1.777091177409    -0.115621458918    12.000000000000
         C            1.655805990939    -0.586306177409    -0.142167458918    12.000000000000
         C           -1.976528309061     0.605757922591     0.035755641082    12.000000000000
         C           -1.942400009061    -1.807332177409    -0.102491458918    12.000000000000
         C           -2.656250009061    -0.612474177409    -0.003025458918    12.000000000000
         C            2.385598990939    -1.630571177409     0.674589541082    12.000000000000
         H            0.002231990939    -2.710063177409    -0.196389458918     1.007825032230
         H           -2.519828009061     1.537003822591     0.177190541082     1.007825032230
         H           -2.466218009061    -2.757097177409    -0.170604458918     1.007825032230
         H           -3.743101009061    -0.620372177409     0.016248541082     1.007825032230
         H            2.198960990939    -2.635670177409     0.283090541082     1.007825032230
         H            2.047182990939    -1.612357177409     1.714611541082     1.007825032230
         H            3.455719990939    -1.425356177409     0.620766541082     1.007825032230

  Basis Set: AUG-CC-PVTZ
    Blend: AUG-CC-PVTZ
  Basis Set: (AUG-CC-PVTZ AUX)
    Blend: AUG-CC-PVTZ-JKFIT
	 Reference Energy          =    -841.5262407293751039 [Eh]
	 Singles Energy            =      -0.0000000000000000 [Eh]
	 Same-Spin Energy          =      -0.4742598825061028 [Eh]
	 Opposite-Spin Energy      =      -1.4492318628143037 [Eh]
	 Correlation Energy        =      -1.9234917453204066 [Eh]
	 Total Energy              =    -843.4497324746955655 [Eh]

	 ================> DF-SCS-MP2 Energies <==================
	-----------------------------------------------------------
	 SCS Same-Spin Scale       =       0.3333333333333333 [-]
	 SCS Opposite-Spin Scale   =       1.2000000000000000 [-]
	 SCS Same-Spin Energy      =      -0.1580866275020343 [Eh]
	 SCS Opposite-Spin Energy  =      -1.7390782353771643 [Eh]
	 SCS Correlation Energy    =      -1.8971648628791986 [Eh]
	 SCS Total Energy          =    -843.4234055922543121 [Eh]
	-----------------------------------------------------------

  Dipole Moment: [D]
     X:    -2.2002      Y:    -2.9951      Z:     1.4474     Total:     3.9883

*** Psi4 exiting successfully. Buy a developer a beer!
