                               Psi4 1.3.2 release

  ==> Input File <==

--------------------------------------------------------------------------
#psi4
#
memory 32 gb

molecule  {
0 1
 Cl        0.2076870     2.2487580     0.1866360
  O        2.2653220     0.2846580    -0.8778020
  C        0.1642190    -0.4887810    -0.0665560
  C       -0.5729690     0.7033250     0.0302020
  C       -0.5420740    -1.7002010    -0.1332520
  C        1.6632570    -0.5094160    -0.1597980
  C       -1.9684630     0.6780340     0.0679080
  C       -1.9349490    -1.7304420    -0.1201220
  C       -2.6487990    -0.5355840    -0.0206560
  C        2.4077282    -1.3931379     0.8480362
  H        0.0096830    -2.6331730    -0.2140200
  H       -2.5123770     1.6138940     0.1595600
  H       -2.4587670    -2.6802070    -0.1882350
  H       -3.7356500    -0.5434820    -0.0013820
  H        2.2064120    -2.5587800     0.2654600
  H        2.0546340    -1.5354670     1.6969810
  H        3.4631710    -1.3484660     0.6031360
units angstrom
no_reorient  #important for SAPT in psi4, default
symmetry c1  #important for SAPT in psi4, default
}

set PROPERTIES_ORIGIN ["COM"]
properties('MP2/aug-cc-pvtz', properties = ['dipole'])
--------------------------------------------------------------------------

    Molecular point group: c1
  Charge       = 0
  Multiplicity = 1
  Basis Set: AUG-CC-PVTZ
    Blend: AUG-CC-PVTZ
  Basis Set: (AUG-CC-PVTZ AUX)
    Blend: AUG-CC-PVTZ-JKFIT

    Orbital Energies [Eh]
    ---------------------

    Doubly Occupied:

       1A   -104.841668     2A    -20.553638     3A    -11.351181
       4A    -11.321053     5A    -11.271357     6A    -11.266490
       7A    -11.263742     8A    -11.260331     9A    -11.257586
      10A    -11.253431    11A    -10.565458    12A     -8.032355
      13A     -8.030394    14A     -8.030339    15A     -1.384702
      16A     -1.199727    17A     -1.126805    18A     -1.066373
      19A     -1.014795    20A     -1.001852    21A     -0.877082
      22A     -0.838910    23A     -0.775098    24A     -0.712338
      25A     -0.680432    26A     -0.667789    27A     -0.638994
      28A     -0.621486    29A     -0.611883    30A     -0.597714
      31A     -0.556032    32A     -0.540484    33A     -0.539143
      34A     -0.522392    35A     -0.480926    36A     -0.471618
      37A     -0.451235    38A     -0.419658    39A     -0.362149
      40A     -0.344623

  @DF-RHF Final Energy:  -841.47113458072545

   => Energetics <=

    Nuclear Repulsion Energy =            563.4848569005132504
    One-Electron Energy =               -2272.3054542389081689
    Two-Electron Energy =                 867.3494627576694711
    Total Energy =                       -841.4711345807254474
  Basis Set: (AUG-CC-PVTZ AUX)
    Blend: AUG-CC-PVTZ-RI
    Molecular point group: c1

    Geometry (in Angstrom), charge = 0, multiplicity = 1:

       Center              X                  Y                   Z               Mass
    ------------   -----------------  -----------------  -----------------  -----------------
         CL           0.199044511024     2.159718973697     0.185500481148    34.968852682000
         O            2.256679511024     0.195618973697    -0.878937518852    15.994914619570
         C            0.155576511024    -0.577820026303    -0.067691518852    12.000000000000
         C           -0.581611488976     0.614285973697     0.029066481148    12.000000000000
         C           -0.550716488976    -1.789240026303    -0.134387518852    12.000000000000
         C            1.654614511024    -0.598455026303    -0.160933518852    12.000000000000
         C           -1.977105488976     0.588994973697     0.066772481148    12.000000000000
         C           -1.943591488976    -1.819481026303    -0.121257518852    12.000000000000
         C           -2.657441488976    -0.624623026303    -0.021791518852    12.000000000000
         C            2.399085711024    -1.482176926303     0.846900681148    12.000000000000
         H            0.001040511024    -2.722212026303    -0.215155518852     1.007825032230
         H           -2.521019488976     1.524854973697     0.158424481148     1.007825032230
         H           -2.467409488976    -2.769246026303    -0.189370518852     1.007825032230
         H           -3.744292488976    -0.632521026303    -0.002517518852     1.007825032230
         H            2.197769511024    -2.647819026303     0.264324481148     1.007825032230
         H            2.045991511024    -1.624506026303     1.695845481148     1.007825032230
         H            3.454528511024    -1.437505026303     0.602000481148     1.007825032230

  Basis Set: AUG-CC-PVTZ
    Blend: AUG-CC-PVTZ
  Basis Set: (AUG-CC-PVTZ AUX)
    Blend: AUG-CC-PVTZ-JKFIT
	 Reference Energy          =    -841.4711345807254474 [Eh]
	 Singles Energy            =      -0.0000000000000000 [Eh]
	 Same-Spin Energy          =      -0.4751723172479095 [Eh]
	 Opposite-Spin Energy      =      -1.4518809538165811 [Eh]
	 Correlation Energy        =      -1.9270532710644908 [Eh]
	 Total Energy              =    -843.3981878517898849 [Eh]

	 ================> DF-SCS-MP2 Energies <==================
	-----------------------------------------------------------
	 SCS Same-Spin Scale       =       0.3333333333333333 [-]
	 SCS Opposite-Spin Scale   =       1.2000000000000000 [-]
	 SCS Same-Spin Energy      =      -0.1583907724159698 [Eh]
	 SCS Opposite-Spin Energy  =      -1.7422571445798973 [Eh]
	 SCS Correlation Energy    =      -1.9006479169958672 [Eh]
	 SCS Total Energy          =    -843.3717824977213695 [Eh]
	-----------------------------------------------------------

  Dipole Moment: [D]
     X:    -2.1839      Y:    -2.9488      Z:     1.4862     Total:     3.9589

*** Psi4 exiting successfully. Buy a developer a beer!
