                               Psi4 1.3.2 release

  ==> Input File <==

--------------------------------------------------------------------------
#psi4
#
memory 32 gb

molecule  {
0 1
 Cl        0.2076870     2.2487580     0.1866360
  O        2.2653220     0.2846580    -0.8778020
  C        0.1642190    -0.4887810    -0.0665560
  C       -0.5729690     0.7033250     0.0302020
  C       -0.5420740    -1.7002010    -0.1332520
  C        1.6632570    -0.5094160    -0.1597980
  C       -1.9715347     0.7011046    -0.1810063
  C       -1.9349490    -1.7304420    -0.1201220
  C       -2.6487990    -0.5355840    -0.0206560
  C        2.3930500    -1.5536810     0.6569590
  H        0.0096830    -2.6331730    -0.2140200
  H       -2.5123770     1.6138940     0.1595600
  H       -2.4587670    -2.6802070    -0.1882350
  H       -3.7356500    -0.5434820    -0.0013820
  H        2.2064120    -2.5587800     0.2654600
  H        2.0546340    -1.5354670     1.6969810
  H        3.4631710    -1.3484660     0.6031360
units angstrom
no_reorient  #important for SAPT in psi4, default
symmetry c1  #important for SAPT in psi4, default
}

set PROPERTIES_ORIGIN ["COM"]
properties('MP2/aug-cc-pvtz', properties = ['dipole'])
--------------------------------------------------------------------------

    Molecular point group: c1
  Charge       = 0
  Multiplicity = 1
  Basis Set: AUG-CC-PVTZ
    Blend: AUG-CC-PVTZ
  Basis Set: (AUG-CC-PVTZ AUX)
    Blend: AUG-CC-PVTZ-JKFIT

    Orbital Energies [Eh]
    ---------------------

    Doubly Occupied:

       1A   -104.841830     2A    -20.553786     3A    -11.346478
       4A    -11.324885     5A    -11.270986     6A    -11.269407
       7A    -11.269366     8A    -11.264958     9A    -11.257489
      10A    -11.243040    11A    -10.565650    12A     -8.032536
      13A     -8.030582    14A     -8.030519    15A     -1.384419
      16A     -1.197799    17A     -1.126924    18A     -1.064647
      19A     -1.011321    20A     -0.999788    21A     -0.874821
      22A     -0.835560    23A     -0.769980    24A     -0.703207
      25A     -0.665045    26A     -0.664427    27A     -0.630877
      28A     -0.620033    29A     -0.603256    30A     -0.592127
      31A     -0.564780    32A     -0.553616    33A     -0.530167
      34A     -0.520659    35A     -0.498376    36A     -0.471842
      37A     -0.457826    38A     -0.420630    39A     -0.361293
      40A     -0.343290

  @DF-RHF Final Energy:  -841.50805557080639

   => Energetics <=

    Nuclear Repulsion Energy =            562.8879936443706811
    One-Electron Energy =               -2271.2556568576310383
    Two-Electron Energy =                 866.8596076424539660
    Total Energy =                       -841.5080555708063912
  Basis Set: (AUG-CC-PVTZ AUX)
    Blend: AUG-CC-PVTZ-RI
    Molecular point group: c1

    Geometry (in Angstrom), charge = 0, multiplicity = 1:

       Center              X                  Y                   Z               Mass
    ------------   -----------------  -----------------  -----------------  -----------------
         CL           0.200427453600     2.170429826903     0.219781405466    34.968852682000
         O            2.258062453600     0.206329826903    -0.844656594534    15.994914619570
         C            0.156959453600    -0.567109173097    -0.033410594534    12.000000000000
         C           -0.580228546400     0.624996826903     0.063347405466    12.000000000000
         C           -0.549333546400    -1.778529173097    -0.100106594534    12.000000000000
         C            1.655997453600    -0.587744173097    -0.126652594534    12.000000000000
         C           -1.978794246400     0.622776426903    -0.147860894534    12.000000000000
         C           -1.942208546400    -1.808770173097    -0.086976594534    12.000000000000
         C           -2.656058546400    -0.613912173097     0.012489405466    12.000000000000
         C            2.385790453600    -1.632009173097     0.690104405466    12.000000000000
         H            0.002423453600    -2.711501173097    -0.180874594534     1.007825032230
         H           -2.519636546400     1.535565826903     0.192705405466     1.007825032230
         H           -2.466026546400    -2.758535173097    -0.155089594534     1.007825032230
         H           -3.742909546400    -0.621810173097     0.031763405466     1.007825032230
         H            2.199152453600    -2.637108173097     0.298605405466     1.007825032230
         H            2.047374453600    -1.613795173097     1.730126405466     1.007825032230
         H            3.455911453600    -1.426794173097     0.636281405466     1.007825032230

  Basis Set: AUG-CC-PVTZ
    Blend: AUG-CC-PVTZ
  Basis Set: (AUG-CC-PVTZ AUX)
    Blend: AUG-CC-PVTZ-JKFIT
	 Reference Energy          =    -841.5080555708063912 [Eh]
	 Singles Energy            =      -0.0000000000000000 [Eh]
	 Same-Spin Energy          =      -0.4751457214354604 [Eh]
	 Opposite-Spin Energy      =      -1.4518606270003569 [Eh]
	 Correlation Energy        =      -1.9270063484358173 [Eh]
	 Total Energy              =    -843.4350619192422300 [Eh]

	 ================> DF-SCS-MP2 Energies <==================
	-----------------------------------------------------------
	 SCS Same-Spin Scale       =       0.3333333333333333 [-]
	 SCS Opposite-Spin Scale   =       1.2000000000000000 [-]
	 SCS Same-Spin Energy      =      -0.1583819071451534 [Eh]
	 SCS Opposite-Spin Energy  =      -1.7422327524004282 [Eh]
	 SCS Correlation Energy    =      -1.9006146595455817 [Eh]
	 SCS Total Energy          =    -843.4086702303519587 [Eh]
	-----------------------------------------------------------

  Dipole Moment: [D]
     X:    -2.1187      Y:    -3.0817      Z:     1.5256     Total:     4.0390

*** Psi4 exiting successfully. Buy a developer a beer!
