                               Psi4 1.3.2 release

  ==> Input File <==

--------------------------------------------------------------------------
#psi4
#
memory 32 gb

molecule  {
0 1
 Cl        0.2076870     2.2487580     0.1866360
  O        2.2653220     0.2846580    -0.8778020
  C        0.1642190    -0.4887810    -0.0665560
  C       -0.5729690     0.7033250     0.0302020
  C       -0.5420740    -1.7002010    -0.1332520
  C        1.6632570    -0.5094160    -0.1597980
  C       -1.9703060     0.6918763    -0.0814406
  C       -1.9349490    -1.7304420    -0.1201220
  C       -2.6487990    -0.5355840    -0.0206560
  C        2.3930500    -1.5536810     0.6569590
  H        0.0096830    -2.6331730    -0.2140200
  H       -2.5123770     1.6138940     0.1595600
  H       -2.4587670    -2.6802070    -0.1882350
  H       -3.7356500    -0.5434820    -0.0013820
  H        2.2064120    -2.5587800     0.2654600
  H        2.0546340    -1.5354670     1.6969810
  H        3.4631710    -1.3484660     0.6031360
units angstrom
no_reorient  #important for SAPT in psi4, default
symmetry c1  #important for SAPT in psi4, default
}

set PROPERTIES_ORIGIN ["COM"]
properties('MP2/aug-cc-pvtz', properties = ['dipole'])
--------------------------------------------------------------------------

    Molecular point group: c1
  Charge       = 0
  Multiplicity = 1
  Basis Set: AUG-CC-PVTZ
    Blend: AUG-CC-PVTZ
  Basis Set: (AUG-CC-PVTZ AUX)
    Blend: AUG-CC-PVTZ-JKFIT

    Orbital Energies [Eh]
    ---------------------

    Doubly Occupied:

       1A   -104.841400     2A    -20.553597     3A    -11.346366
       4A    -11.321852     5A    -11.270272     6A    -11.268497
       7A    -11.266026     8A    -11.261855     9A    -11.257810
      10A    -11.242977    11A    -10.565202    12A     -8.032095
      13A     -8.030137    14A     -8.030079    15A     -1.384272
      16A     -1.198817    17A     -1.126759    18A     -1.065724
      19A     -1.012549    20A     -0.999789    21A     -0.875795
      22A     -0.836984    23A     -0.771168    24A     -0.703783
      25A     -0.667560    26A     -0.664072    27A     -0.633078
      28A     -0.620991    29A     -0.603881    30A     -0.593126
      31A     -0.564579    32A     -0.553377    33A     -0.533055
      34A     -0.523043    35A     -0.498188    36A     -0.472807
      37A     -0.457901    38A     -0.420335    39A     -0.361531
      40A     -0.343964

  @DF-RHF Final Energy:  -841.52031115968680

   => Energetics <=

    Nuclear Repulsion Energy =            563.3537982789555372
    One-Electron Energy =               -2272.1976400426865439
    Two-Electron Energy =                 867.3235306040442083
    Total Energy =                       -841.5203111596867984
  Basis Set: (AUG-CC-PVTZ AUX)
    Blend: AUG-CC-PVTZ-RI
    Molecular point group: c1

    Geometry (in Angstrom), charge = 0, multiplicity = 1:

       Center              X                  Y                   Z               Mass
    ------------   -----------------  -----------------  -----------------  -----------------
         CL           0.200331722270     2.171148828642     0.212023973274    34.968852682000
         O            2.257966722270     0.207048828642    -0.852414026726    15.994914619570
         C            0.156863722270    -0.566390171358    -0.041168026726    12.000000000000
         C           -0.580324277730     0.625715828642     0.055589973274    12.000000000000
         C           -0.549429277730    -1.777810171358    -0.107864026726    12.000000000000
         C            1.655901722270    -0.587025171358    -0.134410026726    12.000000000000
         C           -1.977661277730     0.614267128642    -0.056052626726    12.000000000000
         C           -1.942304277730    -1.808051171358    -0.094734026726    12.000000000000
         C           -2.656154277730    -0.613193171358     0.004731973274    12.000000000000
         C            2.385694722270    -1.631290171358     0.682346973274    12.000000000000
         H            0.002327722270    -2.710782171358    -0.188632026726     1.007825032230
         H           -2.519732277730     1.536284828642     0.184947973274     1.007825032230
         H           -2.466122277730    -2.757816171358    -0.162847026726     1.007825032230
         H           -3.743005277730    -0.621091171358     0.024005973274     1.007825032230
         H            2.199056722270    -2.636389171358     0.290847973274     1.007825032230
         H            2.047278722270    -1.613076171358     1.722368973274     1.007825032230
         H            3.455815722270    -1.426075171358     0.628523973274     1.007825032230

  Basis Set: AUG-CC-PVTZ
    Blend: AUG-CC-PVTZ
  Basis Set: (AUG-CC-PVTZ AUX)
    Blend: AUG-CC-PVTZ-JKFIT
	 Reference Energy          =    -841.5203111596867984 [Eh]
	 Singles Energy            =      -0.0000000000000000 [Eh]
	 Same-Spin Energy          =      -0.4745581170426723 [Eh]
	 Opposite-Spin Energy      =      -1.4500803926256054 [Eh]
	 Correlation Energy        =      -1.9246385096682777 [Eh]
	 Total Energy              =    -843.4449496693550827 [Eh]

	 ================> DF-SCS-MP2 Energies <==================
	-----------------------------------------------------------
	 SCS Same-Spin Scale       =       0.3333333333333333 [-]
	 SCS Opposite-Spin Scale   =       1.2000000000000000 [-]
	 SCS Same-Spin Energy      =      -0.1581860390142241 [Eh]
	 SCS Opposite-Spin Energy  =      -1.7400964711507265 [Eh]
	 SCS Correlation Energy    =      -1.8982825101649505 [Eh]
	 SCS Total Energy          =    -843.4185936698517025 [Eh]
	-----------------------------------------------------------

  Dipole Moment: [D]
     X:    -2.1723      Y:    -3.0246      Z:     1.4861     Total:     4.0094

*** Psi4 exiting successfully. Buy a developer a beer!
