                               Psi4 1.3.2 release

  ==> Input File <==

--------------------------------------------------------------------------
#psi4
#
memory 32 gb

molecule  {
0 1
 Cl        0.2076870     2.2487580     0.1866360
  O        2.2653220     0.2846580    -0.8778020
  C        0.1642190    -0.4887810    -0.0665560
  C       -0.5729690     0.7033250     0.0302020
  C       -0.5420740    -1.7002010    -0.1332520
  C        1.6632570    -0.5094160    -0.1597980
  C       -1.9684630     0.6780340     0.0679080
  C       -1.9349490    -1.7304420    -0.1201220
  C       -2.6487990    -0.5355840    -0.0206560
  C        2.3959856    -1.5215724     0.6951744
  H        0.0096830    -2.6331730    -0.2140200
  H       -2.5123770     1.6138940     0.1595600
  H       -2.4587670    -2.6802070    -0.1882350
  H       -3.7356500    -0.5434820    -0.0013820
  H        2.2064120    -2.5587800     0.2654600
  H        2.0546340    -1.5354670     1.6969810
  H        3.4631710    -1.3484660     0.6031360
units angstrom
no_reorient  #important for SAPT in psi4, default
symmetry c1  #important for SAPT in psi4, default
}

set PROPERTIES_ORIGIN ["COM"]
properties('MP2/aug-cc-pvtz', properties = ['dipole'])
--------------------------------------------------------------------------

    Molecular point group: c1
  Charge       = 0
  Multiplicity = 1
  Basis Set: AUG-CC-PVTZ
    Blend: AUG-CC-PVTZ
  Basis Set: (AUG-CC-PVTZ AUX)
    Blend: AUG-CC-PVTZ-JKFIT

    Orbital Energies [Eh]
    ---------------------

    Doubly Occupied:

       1A   -104.841266     2A    -20.553173     3A    -11.346434
       4A    -11.320498     5A    -11.270576     6A    -11.267212
       7A    -11.263879     8A    -11.260115     9A    -11.257911
      10A    -11.243726    11A    -10.565044    12A     -8.031941
      13A     -8.029981    14A     -8.029925    15A     -1.384020
      16A     -1.199482    17A     -1.126733    18A     -1.066373
      19A     -1.013313    20A     -0.999903    21A     -0.876220
      22A     -0.838052    23A     -0.771969    24A     -0.704220
      25A     -0.669187    26A     -0.665159    27A     -0.633596
      28A     -0.620691    29A     -0.605222    30A     -0.594497
      31A     -0.563970    32A     -0.551232    33A     -0.537470
      34A     -0.524804    35A     -0.496027    36A     -0.473493
      37A     -0.457143    38A     -0.419931    39A     -0.361933
      40A     -0.344410

  @DF-RHF Final Energy:  -841.52449473345825

   => Energetics <=

    Nuclear Repulsion Energy =            563.6344291504381090
    One-Electron Energy =               -2272.7563812747916927
    Two-Electron Energy =                 867.5974573908953289
    Total Energy =                       -841.5244947334582548
  Basis Set: (AUG-CC-PVTZ AUX)
    Blend: AUG-CC-PVTZ-RI
    Molecular point group: c1

    Geometry (in Angstrom), charge = 0, multiplicity = 1:

       Center              X                  Y                   Z               Mass
    ------------   -----------------  -----------------  -----------------  -----------------
         CL           0.199959408657     2.169725651949     0.197410356218    34.968852682000
         O            2.257594408657     0.205625651949    -0.867027643782    15.994914619570
         C            0.156491408657    -0.567813348051    -0.055781643782    12.000000000000
         C           -0.580696591343     0.624292651949     0.040976356218    12.000000000000
         C           -0.549801591343    -1.779233348051    -0.122477643782    12.000000000000
         C            1.655529408657    -0.588448348051    -0.149023643782    12.000000000000
         C           -1.976190591343     0.599001651949     0.078682356218    12.000000000000
         C           -1.942676591343    -1.809474348051    -0.109347643782    12.000000000000
         C           -2.656526591343    -0.614616348051    -0.009881643782    12.000000000000
         C            2.388258008657    -1.600604748051     0.705948756218    12.000000000000
         H            0.001955408657    -2.712205348051    -0.203245643782     1.007825032230
         H           -2.520104591343     1.534861651949     0.170334356218     1.007825032230
         H           -2.466494591343    -2.759239348051    -0.177460643782     1.007825032230
         H           -3.743377591343    -0.622514348051     0.009392356218     1.007825032230
         H            2.198684408657    -2.637812348051     0.276234356218     1.007825032230
         H            2.046906408657    -1.614499348051     1.707755356218     1.007825032230
         H            3.455443408657    -1.427498348051     0.613910356218     1.007825032230

  Basis Set: AUG-CC-PVTZ
    Blend: AUG-CC-PVTZ
  Basis Set: (AUG-CC-PVTZ AUX)
    Blend: AUG-CC-PVTZ-JKFIT
	 Reference Energy          =    -841.5244947334582548 [Eh]
	 Singles Energy            =      -0.0000000000000000 [Eh]
	 Same-Spin Energy          =      -0.4742829985522203 [Eh]
	 Opposite-Spin Energy      =      -1.4492281110236320 [Eh]
	 Correlation Energy        =      -1.9235111095758524 [Eh]
	 Total Energy              =    -843.4480058430341387 [Eh]

	 ================> DF-SCS-MP2 Energies <==================
	-----------------------------------------------------------
	 SCS Same-Spin Scale       =       0.3333333333333333 [-]
	 SCS Opposite-Spin Scale   =       1.2000000000000000 [-]
	 SCS Same-Spin Energy      =      -0.1580943328507401 [Eh]
	 SCS Opposite-Spin Energy  =      -1.7390737332283583 [Eh]
	 SCS Correlation Energy    =      -1.8971680660790984 [Eh]
	 SCS Total Energy          =    -843.4216627995373301 [Eh]
	-----------------------------------------------------------

  Dipole Moment: [D]
     X:    -2.2011      Y:    -2.9890      Z:     1.4439     Total:     3.9829

*** Psi4 exiting successfully. Buy a developer a beer!
