                               Psi4 1.3.2 release

  ==> Input File <==

--------------------------------------------------------------------------
#psi4
#
memory 32 gb

molecule  {
0 1
 Cl        0.2076870     2.2487580     0.1866360
  O        2.2653220     0.2846580    -0.8778020
  C        0.1642190    -0.4887810    -0.0665560
  C       -0.5729690     0.7033250     0.0302020
  C       -0.5420740    -1.7002010    -0.1332520
  C        1.6632570    -0.5094160    -0.1597980
  C       -1.9684630     0.6780340     0.0679080
  C       -1.9349490    -1.7304420    -0.1201220
  C       -2.6487990    -0.5355840    -0.0206560
  C        2.4047925    -1.4252466     0.8098207
  H        0.0096830    -2.6331730    -0.2140200
  H       -2.5123770     1.6138940     0.1595600
  H       -2.4587670    -2.6802070    -0.1882350
  H       -3.7356500    -0.5434820    -0.0013820
  H        2.2064120    -2.5587800     0.2654600
  H        2.0546340    -1.5354670     1.6969810
  H        3.4631710    -1.3484660     0.6031360
units angstrom
no_reorient  #important for SAPT in psi4, default
symmetry c1  #important for SAPT in psi4, default
}

set PROPERTIES_ORIGIN ["COM"]
properties('MP2/aug-cc-pvtz', properties = ['dipole'])
--------------------------------------------------------------------------

    Molecular point group: c1
  Charge       = 0
  Multiplicity = 1
  Basis Set: AUG-CC-PVTZ
    Blend: AUG-CC-PVTZ
  Basis Set: (AUG-CC-PVTZ AUX)
    Blend: AUG-CC-PVTZ-JKFIT

    Orbital Energies [Eh]
    ---------------------

    Doubly Occupied:

       1A   -104.841537     2A    -20.553373     3A    -11.349434
       4A    -11.320894     5A    -11.271080     6A    -11.266666
       7A    -11.263769     8A    -11.260266     9A    -11.257660
      10A    -11.249972    11A    -10.565324    12A     -8.032221
      13A     -8.030261    14A     -8.030206    15A     -1.384395
      16A     -1.199643    17A     -1.126768    18A     -1.066327
      19A     -1.014254    20A     -1.001167    21A     -0.876707
      22A     -0.838646    23A     -0.773886    24A     -0.708775
      25A     -0.676734    26A     -0.667794    27A     -0.637363
      28A     -0.621048    29A     -0.610915    30A     -0.597340
      31A     -0.557480    32A     -0.542624    33A     -0.539168
      34A     -0.523604    35A     -0.485318    36A     -0.472627
      37A     -0.453473    38A     -0.419869    39A     -0.362107
      40A     -0.344557

  @DF-RHF Final Energy:  -841.49050900423003

   => Energetics <=

    Nuclear Repulsion Energy =            563.5565379844890685
    One-Electron Energy =               -2272.5035885115344172
    Two-Electron Energy =                 867.4565415228153142
    Total Energy =                       -841.4905090042300344
  Basis Set: (AUG-CC-PVTZ AUX)
    Blend: AUG-CC-PVTZ-RI
    Molecular point group: c1

    Geometry (in Angstrom), charge = 0, multiplicity = 1:

       Center              X                  Y                   Z               Mass
    ------------   -----------------  -----------------  -----------------  -----------------
         CL           0.199273239328     2.162220649103     0.188477953811    34.968852682000
         O            2.256908239328     0.198120649103    -0.875960046189    15.994914619570
         C            0.155805239328    -0.575318350897    -0.064714046189    12.000000000000
         C           -0.581382760672     0.616787649103     0.032043953811    12.000000000000
         C           -0.550487760672    -1.786738350897    -0.131410046189    12.000000000000
         C            1.654843239328    -0.595953350897    -0.157956046189    12.000000000000
         C           -1.976876760672     0.591496649103     0.069749953811    12.000000000000
         C           -1.943362760672    -1.816979350897    -0.118280046189    12.000000000000
         C           -2.657212760672    -0.622121350897    -0.018814046189    12.000000000000
         C            2.396378739328    -1.511783950897     0.811662653811    12.000000000000
         H            0.001269239328    -2.719710350897    -0.212178046189     1.007825032230
         H           -2.520790760672     1.527356649103     0.161401953811     1.007825032230
         H           -2.467180760672    -2.766744350897    -0.186393046189     1.007825032230
         H           -3.744063760672    -0.630019350897     0.000459953811     1.007825032230
         H            2.197998239328    -2.645317350897     0.267301953811     1.007825032230
         H            2.046220239328    -1.622004350897     1.698822953811     1.007825032230
         H            3.454757239328    -1.435003350897     0.604977953811     1.007825032230

  Basis Set: AUG-CC-PVTZ
    Blend: AUG-CC-PVTZ
  Basis Set: (AUG-CC-PVTZ AUX)
    Blend: AUG-CC-PVTZ-JKFIT
	 Reference Energy          =    -841.4905090042300344 [Eh]
	 Singles Energy            =      -0.0000000000000000 [Eh]
	 Same-Spin Energy          =      -0.4748496238852525 [Eh]
	 Opposite-Spin Energy      =      -1.4508725866554251 [Eh]
	 Correlation Energy        =      -1.9257222105406775 [Eh]
	 Total Energy              =    -843.4162312147707325 [Eh]

	 ================> DF-SCS-MP2 Energies <==================
	-----------------------------------------------------------
	 SCS Same-Spin Scale       =       0.3333333333333333 [-]
	 SCS Opposite-Spin Scale   =       1.2000000000000000 [-]
	 SCS Same-Spin Energy      =      -0.1582832079617508 [Eh]
	 SCS Opposite-Spin Energy  =      -1.7410471039865101 [Eh]
	 SCS Correlation Energy    =      -1.8993303119482610 [Eh]
	 SCS Total Energy          =    -843.3898393161782678 [Eh]
	-----------------------------------------------------------

  Dipole Moment: [D]
     X:    -2.1885      Y:    -2.9616      Z:     1.4797     Total:     3.9687

*** Psi4 exiting successfully. Buy a developer a beer!
