                               Psi4 1.3.2 release

  ==> Input File <==

--------------------------------------------------------------------------
#psi4
#
memory 32 gb

molecule  {
0 1
 Cl        0.2076870     2.2487580     0.1866360
  O        2.2653220     0.2846580    -0.8778020
  C        0.1642190    -0.4887810    -0.0665560
  C       -0.5729690     0.7033250     0.0302020
  C       -0.5420740    -1.7002010    -0.1332520
  C        1.6632570    -0.5094160    -0.1597980
  C       -1.9684630     0.6780340     0.0679080
  C       -1.9349490    -1.7304420    -0.1201220
  C       -2.6487990    -0.5355840    -0.0206560
  C        2.3989213    -1.4894638     0.7333899
  H        0.0096830    -2.6331730    -0.2140200
  H       -2.5123770     1.6138940     0.1595600
  H       -2.4587670    -2.6802070    -0.1882350
  H       -3.7356500    -0.5434820    -0.0013820
  H        2.2064120    -2.5587800     0.2654600
  H        2.0546340    -1.5354670     1.6969810
  H        3.4631710    -1.3484660     0.6031360
units angstrom
no_reorient  #important for SAPT in psi4, default
symmetry c1  #important for SAPT in psi4, default
}

set PROPERTIES_ORIGIN ["COM"]
properties('MP2/aug-cc-pvtz', properties = ['dipole'])
--------------------------------------------------------------------------

    Molecular point group: c1
  Charge       = 0
  Multiplicity = 1
  Basis Set: AUG-CC-PVTZ
    Blend: AUG-CC-PVTZ
  Basis Set: (AUG-CC-PVTZ AUX)
    Blend: AUG-CC-PVTZ-JKFIT

    Orbital Energies [Eh]
    ---------------------

    Doubly Occupied:

       1A   -104.841333     2A    -20.553134     3A    -11.347030
       4A    -11.320614     5A    -11.270685     6A    -11.267029
       7A    -11.263837     8A    -11.260157     9A    -11.257823
      10A    -11.245097    11A    -10.565115    12A     -8.032011
      13A     -8.030051    14A     -8.029996    15A     -1.384045
      16A     -1.199518    17A     -1.126730    18A     -1.066327
      19A     -1.013533    20A     -1.000174    21A     -0.876273
      22A     -0.838215    23A     -0.772338    24A     -0.704868
      25A     -0.670141    26A     -0.666855    27A     -0.634233
      28A     -0.620359    29A     -0.607132    30A     -0.595729
      31A     -0.561806    32A     -0.549006    33A     -0.538294
      34A     -0.524832    35A     -0.493350    36A     -0.473338
      37A     -0.456210    38A     -0.419977    39A     -0.361997
      40A     -0.344448

  @DF-RHF Final Energy:  -841.51744524592937

   => Energetics <=

    Nuclear Repulsion Energy =            563.6305463844780661
    One-Electron Energy =               -2272.7286997830474320
    Two-Electron Energy =                 867.5807081526399998
    Total Energy =                       -841.5174452459293661
  Basis Set: (AUG-CC-PVTZ AUX)
    Blend: AUG-CC-PVTZ-RI
    Molecular point group: c1

    Geometry (in Angstrom), charge = 0, multiplicity = 1:

       Center              X                  Y                   Z               Mass
    ------------   -----------------  -----------------  -----------------  -----------------
         CL           0.199730680353     2.167223984334     0.194432883555    34.968852682000
         O            2.257365680353     0.203123984334    -0.870005116445    15.994914619570
         C            0.156262680353    -0.570315015666    -0.058759116445    12.000000000000
         C           -0.580925319647     0.621790984334     0.037998883555    12.000000000000
         C           -0.550030319647    -1.781735015666    -0.125455116445    12.000000000000
         C            1.655300680353    -0.590950015666    -0.152001116445    12.000000000000
         C           -1.976419319647     0.596499984334     0.075704883555    12.000000000000
         C           -1.942905319647    -1.811976015666    -0.112325116445    12.000000000000
         C           -2.656755319647    -0.617118015666    -0.012859116445    12.000000000000
         C            2.390964980353    -1.570997815666     0.741186783555    12.000000000000
         H            0.001726680353    -2.714707015666    -0.206223116445     1.007825032230
         H           -2.520333319647     1.532359984334     0.167356883555     1.007825032230
         H           -2.466723319647    -2.761741015666    -0.180438116445     1.007825032230
         H           -3.743606319647    -0.625016015666     0.006414883555     1.007825032230
         H            2.198455680353    -2.640314015666     0.273256883555     1.007825032230
         H            2.046677680353    -1.617001015666     1.704777883555     1.007825032230
         H            3.455214680353    -1.430000015666     0.610932883555     1.007825032230

  Basis Set: AUG-CC-PVTZ
    Blend: AUG-CC-PVTZ
  Basis Set: (AUG-CC-PVTZ AUX)
    Blend: AUG-CC-PVTZ-JKFIT
	 Reference Energy          =    -841.5174452459293661 [Eh]
	 Singles Energy            =      -0.0000000000000000 [Eh]
	 Same-Spin Energy          =      -0.4744055992687711 [Eh]
	 Opposite-Spin Energy      =      -1.4495521397259914 [Eh]
	 Correlation Energy        =      -1.9239577389947624 [Eh]
	 Total Energy              =    -843.4414029849241388 [Eh]

	 ================> DF-SCS-MP2 Energies <==================
	-----------------------------------------------------------
	 SCS Same-Spin Scale       =       0.3333333333333333 [-]
	 SCS Opposite-Spin Scale   =       1.2000000000000000 [-]
	 SCS Same-Spin Energy      =      -0.1581351997562570 [Eh]
	 SCS Opposite-Spin Energy  =      -1.7394625676711897 [Eh]
	 SCS Correlation Energy    =      -1.8975977674274467 [Eh]
	 SCS Total Energy          =    -843.4150430133568079 [Eh]
	-----------------------------------------------------------

  Dipole Moment: [D]
     X:    -2.1973      Y:    -2.9828      Z:     1.4583     Total:     3.9815

*** Psi4 exiting successfully. Buy a developer a beer!
