                               Psi4 1.3.2 release

  ==> Input File <==

--------------------------------------------------------------------------
#psi4
#
memory 32 gb

molecule  {
0 1
 Cl        0.2076870     2.2487580     0.1866360
  O        2.2653220     0.2846580    -0.8778020
  C        0.1642190    -0.4887810    -0.0665560
  C       -0.5729690     0.7033250     0.0302020
  C       -0.5420740    -1.7002010    -0.1332520
  C        1.6632570    -0.5094160    -0.1597980
  C       -1.9709203     0.6964905    -0.1312234
  C       -1.9349490    -1.7304420    -0.1201220
  C       -2.6487990    -0.5355840    -0.0206560
  C        2.3930500    -1.5536810     0.6569590
  H        0.0096830    -2.6331730    -0.2140200
  H       -2.5123770     1.6138940     0.1595600
  H       -2.4587670    -2.6802070    -0.1882350
  H       -3.7356500    -0.5434820    -0.0013820
  H        2.2064120    -2.5587800     0.2654600
  H        2.0546340    -1.5354670     1.6969810
  H        3.4631710    -1.3484660     0.6031360
units angstrom
no_reorient  #important for SAPT in psi4, default
symmetry c1  #important for SAPT in psi4, default
}

set PROPERTIES_ORIGIN ["COM"]
properties('MP2/aug-cc-pvtz', properties = ['dipole'])
--------------------------------------------------------------------------

    Molecular point group: c1
  Charge       = 0
  Multiplicity = 1
  Basis Set: AUG-CC-PVTZ
    Blend: AUG-CC-PVTZ
  Basis Set: (AUG-CC-PVTZ AUX)
    Blend: AUG-CC-PVTZ-JKFIT

    Orbital Energies [Eh]
    ---------------------

    Doubly Occupied:

       1A   -104.841581     2A    -20.553687     3A    -11.346414
       4A    -11.323174     5A    -11.270325     6A    -11.269130
       7A    -11.267526     8A    -11.263233     9A    -11.257664
      10A    -11.242993    11A    -10.565393    12A     -8.032283
      13A     -8.030326    14A     -8.030266    15A     -1.384339
      16A     -1.198359    17A     -1.126821    18A     -1.065239
      19A     -1.012023    20A     -0.999785    21A     -0.875360
      22A     -0.836339    23A     -0.770626    24A     -0.703495
      25A     -0.666444    26A     -0.664231    27A     -0.632043
      28A     -0.620562    29A     -0.603643    30A     -0.592704
      31A     -0.564674    32A     -0.553545    33A     -0.531658
      34A     -0.522053    35A     -0.498298    36A     -0.472366
      37A     -0.457871    38A     -0.420486    39A     -0.361399
      40A     -0.343662

  @DF-RHF Final Energy:  -841.51498950253153

   => Energetics <=

    Nuclear Repulsion Energy =            563.1488168206334421
    One-Electron Energy =               -2271.7835737597029038
    Two-Electron Energy =                 867.1197674365380408
    Total Energy =                       -841.5149895025315345
  Basis Set: (AUG-CC-PVTZ AUX)
    Blend: AUG-CC-PVTZ-RI
    Molecular point group: c1

    Geometry (in Angstrom), charge = 0, multiplicity = 1:

       Center              X                  Y                   Z               Mass
    ------------   -----------------  -----------------  -----------------  -----------------
         CL           0.200379584039     2.170789323877     0.215902685475    34.968852682000
         O            2.258014584039     0.206689323877    -0.848535314525    15.994914619570
         C            0.156911584039    -0.566749676123    -0.037289314525    12.000000000000
         C           -0.580276415961     0.625356323877     0.059468685475    12.000000000000
         C           -0.549381415961    -1.778169676123    -0.103985314525    12.000000000000
         C            1.655949584039    -0.587384676123    -0.130531314525    12.000000000000
         C           -1.978227715961     0.618521823877    -0.101956714525    12.000000000000
         C           -1.942256415961    -1.808410676123    -0.090855314525    12.000000000000
         C           -2.656106415961    -0.613552676123     0.008610685475    12.000000000000
         C            2.385742584039    -1.631649676123     0.686225685475    12.000000000000
         H            0.002375584039    -2.711141676123    -0.184753314525     1.007825032230
         H           -2.519684415961     1.535925323877     0.188826685475     1.007825032230
         H           -2.466074415961    -2.758175676123    -0.158968314525     1.007825032230
         H           -3.742957415961    -0.621450676123     0.027884685475     1.007825032230
         H            2.199104584039    -2.636748676123     0.294726685475     1.007825032230
         H            2.047326584039    -1.613435676123     1.726247685475     1.007825032230
         H            3.455863584039    -1.426434676123     0.632402685475     1.007825032230

  Basis Set: AUG-CC-PVTZ
    Blend: AUG-CC-PVTZ
  Basis Set: (AUG-CC-PVTZ AUX)
    Blend: AUG-CC-PVTZ-JKFIT
	 Reference Energy          =    -841.5149895025315345 [Eh]
	 Singles Energy            =      -0.0000000000000000 [Eh]
	 Same-Spin Energy          =      -0.4748177087479665 [Eh]
	 Opposite-Spin Energy      =      -1.4508552585109229 [Eh]
	 Correlation Energy        =      -1.9256729672588895 [Eh]
	 Total Energy              =    -843.4406624697903680 [Eh]

	 ================> DF-SCS-MP2 Energies <==================
	-----------------------------------------------------------
	 SCS Same-Spin Scale       =       0.3333333333333333 [-]
	 SCS Opposite-Spin Scale   =       1.2000000000000000 [-]
	 SCS Same-Spin Energy      =      -0.1582725695826555 [Eh]
	 SCS Opposite-Spin Energy  =      -1.7410263102131074 [Eh]
	 SCS Correlation Energy    =      -1.8992988797957628 [Eh]
	 SCS Total Energy          =    -843.4142883823272996 [Eh]
	-----------------------------------------------------------

  Dipole Moment: [D]
     X:    -2.1487      Y:    -3.0498      Z:     1.5057     Total:     4.0231

*** Psi4 exiting successfully. Buy a developer a beer!
