                               Psi4 1.3.2 release

  ==> Input File <==

--------------------------------------------------------------------------
#psi4
#
memory 32 gb

molecule  {
0 1
 Cl        0.2076870     2.2487580     0.1866360
  O        2.2653220     0.2846580    -0.8778020
  C        0.1642190    -0.4887810    -0.0665560
  C       -0.5729690     0.7033250     0.0302020
  C       -0.5420740    -1.7002010    -0.1332520
  C        1.6632570    -0.5094160    -0.1597980
  C       -1.9696917     0.6872622    -0.0316577
  C       -1.9349490    -1.7304420    -0.1201220
  C       -2.6487990    -0.5355840    -0.0206560
  C        2.3930500    -1.5536810     0.6569590
  H        0.0096830    -2.6331730    -0.2140200
  H       -2.5123770     1.6138940     0.1595600
  H       -2.4587670    -2.6802070    -0.1882350
  H       -3.7356500    -0.5434820    -0.0013820
  H        2.2064120    -2.5587800     0.2654600
  H        2.0546340    -1.5354670     1.6969810
  H        3.4631710    -1.3484660     0.6031360
units angstrom
no_reorient  #important for SAPT in psi4, default
symmetry c1  #important for SAPT in psi4, default
}

set PROPERTIES_ORIGIN ["COM"]
properties('MP2/aug-cc-pvtz', properties = ['dipole'])
--------------------------------------------------------------------------

    Molecular point group: c1
  Charge       = 0
  Multiplicity = 1
  Basis Set: AUG-CC-PVTZ
    Blend: AUG-CC-PVTZ
  Basis Set: (AUG-CC-PVTZ AUX)
    Blend: AUG-CC-PVTZ-JKFIT

    Orbital Energies [Eh]
    ---------------------

    Doubly Occupied:

       1A   -104.841284     2A    -20.553509     3A    -11.346328
       4A    -11.320942     5A    -11.270366     6A    -11.267927
       7A    -11.264917     8A    -11.260857     9A    -11.257918
      10A    -11.242987    11A    -10.565075    12A     -8.031970
      13A     -8.030011    14A     -8.029954    15A     -1.384213
      16A     -1.199161    17A     -1.126730    18A     -1.066092
      19A     -1.012912    20A     -0.999796    21A     -0.876105
      22A     -0.837474    23A     -0.771576    24A     -0.704030
      25A     -0.668362    26A     -0.663954    27A     -0.633860
      28A     -0.621322    29A     -0.603996    30A     -0.593426
      31A     -0.564490    32A     -0.553106    33A     -0.534299
      34A     -0.523721    35A     -0.498058    36A     -0.473164
      37A     -0.457920    38A     -0.420178    39A     -0.361663
      40A     -0.344188

  @DF-RHF Final Energy:  -841.52405201459339

   => Energetics <=

    Nuclear Repulsion Energy =            563.5010590853521535
    One-Electron Energy =               -2272.4945392819572589
    Two-Electron Energy =                 867.4694281820117112
    Total Energy =                       -841.5240520145933942
  Basis Set: (AUG-CC-PVTZ AUX)
    Blend: AUG-CC-PVTZ-RI
    Molecular point group: c1

    Geometry (in Angstrom), charge = 0, multiplicity = 1:

       Center              X                  Y                   Z               Mass
    ------------   -----------------  -----------------  -----------------  -----------------
         CL           0.200283860500     2.171508325616     0.208145253282    34.968852682000
         O            2.257918860500     0.207408325616    -0.856292746718    15.994914619570
         C            0.156815860500    -0.566030674384    -0.045046746718    12.000000000000
         C           -0.580372139500     0.626075325616     0.051711253282    12.000000000000
         C           -0.549477139500    -1.777450674384    -0.111742746718    12.000000000000
         C            1.655853860500    -0.586665674384    -0.138288746718    12.000000000000
         C           -1.977094839500     0.610012525616    -0.010148446718    12.000000000000
         C           -1.942352139500    -1.807691674384    -0.098612746718    12.000000000000
         C           -2.656202139500    -0.612833674384     0.000853253282    12.000000000000
         C            2.385646860500    -1.630930674384     0.678468253282    12.000000000000
         H            0.002279860500    -2.710422674384    -0.192510746718     1.007825032230
         H           -2.519780139500     1.536644325616     0.181069253282     1.007825032230
         H           -2.466170139500    -2.757456674384    -0.166725746718     1.007825032230
         H           -3.743053139500    -0.620731674384     0.020127253282     1.007825032230
         H            2.199008860500    -2.636029674384     0.286969253282     1.007825032230
         H            2.047230860500    -1.612716674384     1.718490253282     1.007825032230
         H            3.455767860500    -1.425715674384     0.624645253282     1.007825032230

  Basis Set: AUG-CC-PVTZ
    Blend: AUG-CC-PVTZ
  Basis Set: (AUG-CC-PVTZ AUX)
    Blend: AUG-CC-PVTZ-JKFIT
	 Reference Energy          =    -841.5240520145933942 [Eh]
	 Singles Energy            =      -0.0000000000000000 [Eh]
	 Same-Spin Energy          =      -0.4743710047391859 [Eh]
	 Opposite-Spin Energy      =      -1.4495414547413883 [Eh]
	 Correlation Energy        =      -1.9239124594805741 [Eh]
	 Total Energy              =    -843.4479644740739559 [Eh]

	 ================> DF-SCS-MP2 Energies <==================
	-----------------------------------------------------------
	 SCS Same-Spin Scale       =       0.3333333333333333 [-]
	 SCS Opposite-Spin Scale   =       1.2000000000000000 [-]
	 SCS Same-Spin Energy      =      -0.1581236682463953 [Eh]
	 SCS Opposite-Spin Energy  =      -1.7394497456896658 [Eh]
	 SCS Correlation Energy    =      -1.8975734139360612 [Eh]
	 SCS Total Energy          =    -843.4216254285294099 [Eh]
	-----------------------------------------------------------

  Dipole Moment: [D]
     X:    -2.1895      Y:    -3.0064      Z:     1.4668     Total:     3.9979

*** Psi4 exiting successfully. Buy a developer a beer!
