                               Psi4 1.3.2 release

  ==> Input File <==

--------------------------------------------------------------------------
#psi4
#
memory 32 gb

molecule  {
0 1
  F       -0.8877360     1.6438520    -0.0000090
  O        0.6391498    -1.5899289    -0.0000098
  N        1.4876940     0.5283410     0.0000080
  C       -0.8948090     0.2512980     0.0000000
  C       -1.9951030    -0.4179850     0.7549870
  C       -1.9951080    -0.4179870    -0.7549750
  C        0.4689560    -0.3659830     0.0000000
  C        2.8766980     0.1124380     0.0000010
  H       -2.6981940     0.2412550     1.2525940
  H       -1.7416620    -1.3380720     1.2694370
  H       -1.7416990    -1.3380720    -1.2694420
  H       -2.6981990     0.2412650    -1.2525680
  H        1.2473010     1.5101930     0.0000000
  H        3.3936150     0.4789380     0.8911940
  H        3.3935940     0.4788830    -0.8912260
  H        2.8865570    -0.9771380     0.0000350
units angstrom
no_reorient  #important for SAPT in psi4, default
symmetry c1  #important for SAPT in psi4, default
}

set PROPERTIES_ORIGIN ["COM"]
properties('MP2/aug-cc-pvtz', properties = ['dipole'])
--------------------------------------------------------------------------

    Molecular point group: c1
  Charge       = 0
  Multiplicity = 1
  Basis Set: AUG-CC-PVTZ
    Blend: AUG-CC-PVTZ
  Basis Set: (AUG-CC-PVTZ AUX)
    Blend: AUG-CC-PVTZ-JKFIT

    Orbital Energies [Eh]
    ---------------------

    Doubly Occupied:

       1A    -26.306873     2A    -20.520634     3A    -15.591742
       4A    -11.361371     5A    -11.336661     6A    -11.261541
       7A    -11.249957     8A    -11.249292     9A     -1.615063
      10A     -1.378885    11A     -1.234504    12A     -1.168939
      13A     -0.980407    14A     -0.877411    15A     -0.853128
      16A     -0.785121    17A     -0.767583    18A     -0.705111
      19A     -0.688054    20A     -0.649590    21A     -0.641446
      22A     -0.626366    23A     -0.625772    24A     -0.585523
      25A     -0.555323    26A     -0.547556    27A     -0.527513
      28A     -0.470716    29A     -0.435045    30A     -0.425300
      31A     -0.396188

  @DF-RHF Final Energy:  -422.88558105539352

   => Energetics <=

    Nuclear Repulsion Energy =            388.4306788409496676
    One-Electron Energy =               -1349.7952845772736055
    Two-Electron Energy =                 538.4790246809303653
    Total Energy =                       -422.8855810553935726
  Basis Set: (AUG-CC-PVTZ AUX)
    Blend: AUG-CC-PVTZ-RI
    Molecular point group: c1

    Geometry (in Angstrom), charge = 0, multiplicity = 1:

       Center              X                  Y                   Z               Mass
    ------------   -----------------  -----------------  -----------------  -----------------
         F           -0.868726469906     1.623082052442    -0.000008696534    18.998403162730
         O            0.658159330094    -1.610698847558    -0.000009496534    15.994914619570
         N            1.506703530094     0.507571052442     0.000008303466    14.003074004430
         C           -0.875799469906     0.230528052442     0.000000303466    12.000000000000
         C           -1.976093469906    -0.438754947558     0.754987303466    12.000000000000
         C           -1.976098469906    -0.438756947558    -0.754974696534    12.000000000000
         C            0.487965530094    -0.386752947558     0.000000303466    12.000000000000
         C            2.895707530094     0.091668052442     0.000001303466    12.000000000000
         H           -2.679184469906     0.220485052442     1.252594303466     1.007825032230
         H           -1.722652469906    -1.358841947558     1.269437303466     1.007825032230
         H           -1.722689469906    -1.358841947558    -1.269441696534     1.007825032230
         H           -2.679189469906     0.220495052442    -1.252567696534     1.007825032230
         H            1.266310530094     1.489423052442     0.000000303466     1.007825032230
         H            3.412624530094     0.458168052442     0.891194303466     1.007825032230
         H            3.412603530094     0.458113052442    -0.891225696534     1.007825032230
         H            2.905566530094    -0.997907947558     0.000035303466     1.007825032230

  Basis Set: AUG-CC-PVTZ
    Blend: AUG-CC-PVTZ
  Basis Set: (AUG-CC-PVTZ AUX)
    Blend: AUG-CC-PVTZ-JKFIT
	 Reference Energy          =    -422.8855810553935157 [Eh]
	 Singles Energy            =      -0.0000000000000000 [Eh]
	 Same-Spin Energy          =      -0.4068921509383951 [Eh]
	 Opposite-Spin Energy      =      -1.2778149063136774 [Eh]
	 Correlation Energy        =      -1.6847070572520726 [Eh]
	 Total Energy              =    -424.5702881126455850 [Eh]

	 ================> DF-SCS-MP2 Energies <==================
	-----------------------------------------------------------
	 SCS Same-Spin Scale       =       0.3333333333333333 [-]
	 SCS Opposite-Spin Scale   =       1.2000000000000000 [-]
	 SCS Same-Spin Energy      =      -0.1356307169794650 [Eh]
	 SCS Opposite-Spin Energy  =      -1.5333778875764128 [Eh]
	 SCS Correlation Energy    =      -1.6690086045558779 [Eh]
	 SCS Total Energy          =    -424.5545896599493858 [Eh]
	-----------------------------------------------------------

  Dipole Moment: [D]
     X:     0.2787      Y:     1.9408      Z:     0.0000     Total:     1.9608

*** Psi4 exiting successfully. Buy a developer a beer!
