                               Psi4 1.3.2 release

  ==> Input File <==

--------------------------------------------------------------------------
#psi4
#
memory 32 gb

molecule  {
0 1
  F       -0.8877360     1.6438520    -0.0000090
  O        0.5963310    -1.5951230    -0.0000100
  N        1.4719307     0.5459842     0.0000081
  C       -0.8948090     0.2512980     0.0000000
  C       -1.9951030    -0.4179850     0.7549870
  C       -1.9951080    -0.4179870    -0.7549750
  C        0.4689560    -0.3659830     0.0000000
  C        2.8766980     0.1124380     0.0000010
  H       -2.6981940     0.2412550     1.2525940
  H       -1.7416620    -1.3380720     1.2694370
  H       -1.7416990    -1.3380720    -1.2694420
  H       -2.6981990     0.2412650    -1.2525680
  H        1.2473010     1.5101930     0.0000000
  H        3.3936150     0.4789380     0.8911940
  H        3.3935940     0.4788830    -0.8912260
  H        2.8865570    -0.9771380     0.0000350
units angstrom
no_reorient  #important for SAPT in psi4, default
symmetry c1  #important for SAPT in psi4, default
}

set PROPERTIES_ORIGIN ["COM"]
properties('MP2/aug-cc-pvtz', properties = ['dipole'])
--------------------------------------------------------------------------

    Molecular point group: c1
  Charge       = 0
  Multiplicity = 1
  Basis Set: AUG-CC-PVTZ
    Blend: AUG-CC-PVTZ
  Basis Set: (AUG-CC-PVTZ AUX)
    Blend: AUG-CC-PVTZ-JKFIT

    Orbital Energies [Eh]
    ---------------------

    Doubly Occupied:

       1A    -26.304638     2A    -20.522340     3A    -15.593118
       4A    -11.361942     5A    -11.333243     6A    -11.265145
       7A    -11.247803     8A    -11.247139     9A     -1.613112
      10A     -1.378640    11A     -1.236895    12A     -1.166292
      13A     -0.979038    14A     -0.878040    15A     -0.851146
      16A     -0.791471    17A     -0.766134    18A     -0.703371
      19A     -0.686143    20A     -0.648447    21A     -0.638638
      22A     -0.625832    23A     -0.624970    24A     -0.582775
      25A     -0.556012    26A     -0.553427    27A     -0.526288
      28A     -0.469914    29A     -0.432892    30A     -0.424121
      31A     -0.400035

  @DF-RHF Final Energy:  -422.88539272047285

   => Energetics <=

    Nuclear Repulsion Energy =            388.5063402158222630
    One-Electron Energy =               -1349.9654603928763663
    Two-Electron Energy =                 538.5737274565811958
    Total Energy =                       -422.8853927204728507
  Basis Set: (AUG-CC-PVTZ AUX)
    Blend: AUG-CC-PVTZ-RI
    Molecular point group: c1

    Geometry (in Angstrom), charge = 0, multiplicity = 1:

       Center              X                  Y                   Z               Mass
    ------------   -----------------  -----------------  -----------------  -----------------
         F           -0.860990048374     1.621681221575    -0.000008681169    18.998403162730
         O            0.623076951626    -1.617293778425    -0.000009681169    15.994914619570
         N            1.498676651626     0.523813421575     0.000008418831    14.003074004430
         C           -0.868063048374     0.229127221575     0.000000318831    12.000000000000
         C           -1.968357048374    -0.440155778425     0.754987318831    12.000000000000
         C           -1.968362048374    -0.440157778425    -0.754974681169    12.000000000000
         C            0.495701951626    -0.388153778425     0.000000318831    12.000000000000
         C            2.903443951626     0.090267221575     0.000001318831    12.000000000000
         H           -2.671448048374     0.219084221575     1.252594318831     1.007825032230
         H           -1.714916048374    -1.360242778425     1.269437318831     1.007825032230
         H           -1.714953048374    -1.360242778425    -1.269441681169     1.007825032230
         H           -2.671453048374     0.219094221575    -1.252567681169     1.007825032230
         H            1.274046951626     1.488022221575     0.000000318831     1.007825032230
         H            3.420360951626     0.456767221575     0.891194318831     1.007825032230
         H            3.420339951626     0.456712221575    -0.891225681169     1.007825032230
         H            2.913302951626    -0.999308778425     0.000035318831     1.007825032230

  Basis Set: AUG-CC-PVTZ
    Blend: AUG-CC-PVTZ
  Basis Set: (AUG-CC-PVTZ AUX)
    Blend: AUG-CC-PVTZ-JKFIT
	 Reference Energy          =    -422.8853927204728507 [Eh]
	 Singles Energy            =      -0.0000000000000000 [Eh]
	 Same-Spin Energy          =      -0.4066941766015634 [Eh]
	 Opposite-Spin Energy      =      -1.2776715694548071 [Eh]
	 Correlation Energy        =      -1.6843657460563706 [Eh]
	 Total Energy              =    -424.5697584665292084 [Eh]

	 ================> DF-SCS-MP2 Energies <==================
	-----------------------------------------------------------
	 SCS Same-Spin Scale       =       0.3333333333333333 [-]
	 SCS Opposite-Spin Scale   =       1.2000000000000000 [-]
	 SCS Same-Spin Energy      =      -0.1355647255338545 [Eh]
	 SCS Opposite-Spin Energy  =      -1.5332058833457685 [Eh]
	 SCS Correlation Energy    =      -1.6687706088796230 [Eh]
	 SCS Total Energy          =    -424.5541633293524910 [Eh]
	-----------------------------------------------------------

  Dipole Moment: [D]
     X:     0.4833      Y:     1.9230      Z:     0.0000     Total:     1.9828

*** Psi4 exiting successfully. Buy a developer a beer!
