                               Psi4 1.3.2 release

  ==> Input File <==

--------------------------------------------------------------------------
#psi4
#
memory 32 gb

molecule  {
0 1
  F       -0.8877360     1.6438520    -0.0000090
  O        0.5963310    -1.5951230    -0.0000100
  N        1.4876940     0.5283410     0.0000080
  C       -0.8948090     0.2512980     0.0000000
  C       -1.9951030    -0.4179850     0.7549870
  C       -1.9951080    -0.4179870    -0.7549750
  C        0.3778537    -0.3247474     0.0000000
  C        2.8766980     0.1124380     0.0000010
  H       -2.6981940     0.2412550     1.2525940
  H       -1.7416620    -1.3380720     1.2694370
  H       -1.7416990    -1.3380720    -1.2694420
  H       -2.6981990     0.2412650    -1.2525680
  H        1.2473010     1.5101930     0.0000000
  H        3.3936150     0.4789380     0.8911940
  H        3.3935940     0.4788830    -0.8912260
  H        2.8865570    -0.9771380     0.0000350
units angstrom
no_reorient  #important for SAPT in psi4, default
symmetry c1  #important for SAPT in psi4, default
}

set PROPERTIES_ORIGIN ["COM"]
properties('MP2/aug-cc-pvtz', properties = ['dipole'])
--------------------------------------------------------------------------

    Molecular point group: c1
  Charge       = 0
  Multiplicity = 1
  Basis Set: AUG-CC-PVTZ
    Blend: AUG-CC-PVTZ
  Basis Set: (AUG-CC-PVTZ AUX)
    Blend: AUG-CC-PVTZ-JKFIT

    Orbital Energies [Eh]
    ---------------------

    Doubly Occupied:

       1A    -26.311565     2A    -20.515564     3A    -15.590875
       4A    -11.365721     5A    -11.339114     6A    -11.260579
       7A    -11.258237     8A    -11.257567     9A     -1.620864
      10A     -1.348382    11A     -1.216134    12A     -1.180505
      13A     -0.991301    14A     -0.896880    15A     -0.860818
      16A     -0.781675    17A     -0.762080    18A     -0.712812
      19A     -0.693872    20A     -0.649438    21A     -0.643190
      22A     -0.618491    23A     -0.618046    24A     -0.587420
      25A     -0.556449    26A     -0.539410    27A     -0.525424
      28A     -0.469523    29A     -0.435348    30A     -0.429672
      31A     -0.387156

  @DF-RHF Final Energy:  -422.86582396262492

   => Energetics <=

    Nuclear Repulsion Energy =            388.7750737175524023
    One-Electron Energy =               -1350.4335738272523031
    Two-Electron Energy =                 538.7926761470748716
    Total Energy =                       -422.8658239626249724
  Basis Set: (AUG-CC-PVTZ AUX)
    Blend: AUG-CC-PVTZ-RI
    Molecular point group: c1

    Geometry (in Angstrom), charge = 0, multiplicity = 1:

       Center              X                  Y                   Z               Mass
    ------------   -----------------  -----------------  -----------------  -----------------
         F           -0.853536601798     1.619564612160    -0.000008669206    18.998403162730
         O            0.630530398202    -1.619410387840    -0.000009669206    15.994914619570
         N            1.521893398202     0.504053612160     0.000008330794    14.003074004430
         C           -0.860609601798     0.227010612160     0.000000330794    12.000000000000
         C           -1.960903601798    -0.442272387840     0.754987330794    12.000000000000
         C           -1.960908601798    -0.442274387840    -0.754974669206    12.000000000000
         C            0.412053098202    -0.349034787840     0.000000330794    12.000000000000
         C            2.910897398202     0.088150612160     0.000001330794    12.000000000000
         H           -2.663994601798     0.216967612160     1.252594330794     1.007825032230
         H           -1.707462601798    -1.362359387840     1.269437330794     1.007825032230
         H           -1.707499601798    -1.362359387840    -1.269441669206     1.007825032230
         H           -2.663999601798     0.216977612160    -1.252567669206     1.007825032230
         H            1.281500398202     1.485905612160     0.000000330794     1.007825032230
         H            3.427814398202     0.454650612160     0.891194330794     1.007825032230
         H            3.427793398202     0.454595612160    -0.891225669206     1.007825032230
         H            2.920756398202    -1.001425387840     0.000035330794     1.007825032230

  Basis Set: AUG-CC-PVTZ
    Blend: AUG-CC-PVTZ
  Basis Set: (AUG-CC-PVTZ AUX)
    Blend: AUG-CC-PVTZ-JKFIT
	 Reference Energy          =    -422.8658239626249156 [Eh]
	 Singles Energy            =      -0.0000000000000000 [Eh]
	 Same-Spin Energy          =      -0.4090793068624848 [Eh]
	 Opposite-Spin Energy      =      -1.2820265520537746 [Eh]
	 Correlation Energy        =      -1.6911058589162593 [Eh]
	 Total Energy              =    -424.5569298215411891 [Eh]

	 ================> DF-SCS-MP2 Energies <==================
	-----------------------------------------------------------
	 SCS Same-Spin Scale       =       0.3333333333333333 [-]
	 SCS Opposite-Spin Scale   =       1.2000000000000000 [-]
	 SCS Same-Spin Energy      =      -0.1363597689541616 [Eh]
	 SCS Opposite-Spin Energy  =      -1.5384318624645295 [Eh]
	 SCS Correlation Energy    =      -1.6747916314186910 [Eh]
	 SCS Total Energy          =    -424.5406155940436292 [Eh]
	-----------------------------------------------------------

  Dipole Moment: [D]
     X:    -0.1566      Y:     2.0436      Z:     0.0000     Total:     2.0496

*** Psi4 exiting successfully. Buy a developer a beer!
