                               Psi4 1.3.2 release

  ==> Input File <==

--------------------------------------------------------------------------
#psi4
#
memory 32 gb

molecule  {
0 1
  F       -0.8877360     1.6438520    -0.0000090
  O        0.5963310    -1.5951230    -0.0000100
  N        1.4876940     0.5283410     0.0000080
  C       -0.8948090     0.2512980     0.0000000
  C       -1.9951030    -0.4179850     0.7549870
  C       -1.9784671    -0.4366885    -0.7621989
  C        0.4689560    -0.3659830     0.0000000
  C        2.8766980     0.1124380     0.0000010
  H       -2.6981940     0.2412550     1.2525940
  H       -1.7416620    -1.3380720     1.2694370
  H       -1.7416990    -1.3380720    -1.2694420
  H       -2.6981990     0.2412650    -1.2525680
  H        1.2473010     1.5101930     0.0000000
  H        3.3936150     0.4789380     0.8911940
  H        3.3935940     0.4788830    -0.8912260
  H        2.8865570    -0.9771380     0.0000350
units angstrom
no_reorient  #important for SAPT in psi4, default
symmetry c1  #important for SAPT in psi4, default
}

set PROPERTIES_ORIGIN ["COM"]
properties('MP2/aug-cc-pvtz', properties = ['dipole'])
--------------------------------------------------------------------------

    Molecular point group: c1
  Charge       = 0
  Multiplicity = 1
  Basis Set: AUG-CC-PVTZ
    Blend: AUG-CC-PVTZ
  Basis Set: (AUG-CC-PVTZ AUX)
    Blend: AUG-CC-PVTZ-JKFIT

    Orbital Energies [Eh]
    ---------------------

    Doubly Occupied:

       1A    -26.306150     2A    -20.521228     3A    -15.593822
       4A    -11.361402     5A    -11.335092     6A    -11.263258
       7A    -11.248661     8A    -11.248017     9A     -1.614254
      10A     -1.378777    11A     -1.237253    12A     -1.166059
      13A     -0.980778    14A     -0.876628    15A     -0.852638
      16A     -0.786442    17A     -0.767305    18A     -0.704024
      19A     -0.687544    20A     -0.647626    21A     -0.642870
      22A     -0.627219    23A     -0.626822    24A     -0.583705
      25A     -0.555272    26A     -0.549762    27A     -0.527965
      28A     -0.468270    29A     -0.434801    30A     -0.423768
      31A     -0.398052

  @DF-RHF Final Energy:  -422.88500400046644

   => Energetics <=

    Nuclear Repulsion Energy =            388.5640783847850912
    One-Electron Energy =               -1350.0672375341403040
    Two-Electron Energy =                 538.6181551488888317
    Total Energy =                       -422.8850040004664379
  Basis Set: (AUG-CC-PVTZ AUX)
    Blend: AUG-CC-PVTZ-RI
    Molecular point group: c1

    Geometry (in Angstrom), charge = 0, multiplicity = 1:

       Center              X                  Y                   Z               Mass
    ------------   -----------------  -----------------  -----------------  -----------------
         F           -0.864581617455     1.625708909043     0.000731870230    18.998403162730
         O            0.619485382545    -1.613266090957     0.000730870230    15.994914619570
         N            1.510848382545     0.510197909043     0.000748870230    14.003074004430
         C           -0.871654617455     0.233154909043     0.000740870230    12.000000000000
         C           -1.971948617455    -0.436128090957     0.755727870230    12.000000000000
         C           -1.955312717455    -0.454831590957    -0.761458029770    12.000000000000
         C            0.492110382545    -0.384126090957     0.000740870230    12.000000000000
         C            2.899852382545     0.094294909043     0.000741870230    12.000000000000
         H           -2.675039617455     0.223111909043     1.253334870230     1.007825032230
         H           -1.718507617455    -1.356215090957     1.270177870230     1.007825032230
         H           -1.718544617455    -1.356215090957    -1.268701129770     1.007825032230
         H           -2.675044617455     0.223121909043    -1.251827129770     1.007825032230
         H            1.270455382545     1.492049909043     0.000740870230     1.007825032230
         H            3.416769382545     0.460794909043     0.891934870230     1.007825032230
         H            3.416748382545     0.460739909043    -0.890485129770     1.007825032230
         H            2.909711382545    -0.995281090957     0.000775870230     1.007825032230

  Basis Set: AUG-CC-PVTZ
    Blend: AUG-CC-PVTZ
  Basis Set: (AUG-CC-PVTZ AUX)
    Blend: AUG-CC-PVTZ-JKFIT
	 Reference Energy          =    -422.8850040004664379 [Eh]
	 Singles Energy            =      -0.0000000000000000 [Eh]
	 Same-Spin Energy          =      -0.4068748101338860 [Eh]
	 Opposite-Spin Energy      =      -1.2779008444235933 [Eh]
	 Correlation Energy        =      -1.6847756545574795 [Eh]
	 Total Energy              =    -424.5697796550239218 [Eh]

	 ================> DF-SCS-MP2 Energies <==================
	-----------------------------------------------------------
	 SCS Same-Spin Scale       =       0.3333333333333333 [-]
	 SCS Opposite-Spin Scale   =       1.2000000000000000 [-]
	 SCS Same-Spin Energy      =      -0.1356249367112953 [Eh]
	 SCS Opposite-Spin Energy  =      -1.5334810133083119 [Eh]
	 SCS Correlation Energy    =      -1.6691059500196073 [Eh]
	 SCS Total Energy          =    -424.5541099504860654 [Eh]
	-----------------------------------------------------------

  Dipole Moment: [D]
     X:     0.4290      Y:     1.9443      Z:     0.0005     Total:     1.9910

*** Psi4 exiting successfully. Buy a developer a beer!
