                               Psi4 1.3.2 release

  ==> Input File <==

--------------------------------------------------------------------------
#psi4
#
memory 32 gb

molecule  {
0 1
  F       -0.8877360     1.6438520    -0.0000090
  O        0.6817612    -1.5832436    -0.0000096
  N        1.4876940     0.5283410     0.0000080
  C       -0.8948090     0.2512980     0.0000000
  C       -1.9951030    -0.4179850     0.7549870
  C       -1.9951080    -0.4179870    -0.7549750
  C        0.4689560    -0.3659830     0.0000000
  C        2.8766980     0.1124380     0.0000010
  H       -2.6981940     0.2412550     1.2525940
  H       -1.7416620    -1.3380720     1.2694370
  H       -1.7416990    -1.3380720    -1.2694420
  H       -2.6981990     0.2412650    -1.2525680
  H        1.2473010     1.5101930     0.0000000
  H        3.3936150     0.4789380     0.8911940
  H        3.3935940     0.4788830    -0.8912260
  H        2.8865570    -0.9771380     0.0000350
units angstrom
no_reorient  #important for SAPT in psi4, default
symmetry c1  #important for SAPT in psi4, default
}

set PROPERTIES_ORIGIN ["COM"]
properties('MP2/aug-cc-pvtz', properties = ['dipole'])
--------------------------------------------------------------------------

    Molecular point group: c1
  Charge       = 0
  Multiplicity = 1
  Basis Set: AUG-CC-PVTZ
    Blend: AUG-CC-PVTZ
  Basis Set: (AUG-CC-PVTZ AUX)
    Blend: AUG-CC-PVTZ-JKFIT

    Orbital Energies [Eh]
    ---------------------

    Doubly Occupied:

       1A    -26.308365     2A    -20.519859     3A    -15.589586
       4A    -11.361135     5A    -11.338817     6A    -11.259716
       7A    -11.251452     8A    -11.250787     9A     -1.616352
      10A     -1.379161    11A     -1.231616    12A     -1.170793
      13A     -0.979845    14A     -0.877793    15A     -0.854514
      16A     -0.783921    17A     -0.768398    18A     -0.706164
      19A     -0.689328    20A     -0.650290    21A     -0.641419
      22A     -0.626345    23A     -0.624686    24A     -0.586299
      25A     -0.554931    26A     -0.545199    27A     -0.528555
      28A     -0.471411    29A     -0.436589    30A     -0.425633
      31A     -0.394290

  @DF-RHF Final Energy:  -422.88452027349229

   => Energetics <=

    Nuclear Repulsion Energy =            388.3515094734377726
    One-Electron Energy =               -1349.6255652890190504
    Two-Electron Energy =                 538.3895355420889928
    Total Energy =                       -422.8845202734922850
  Basis Set: (AUG-CC-PVTZ AUX)
    Blend: AUG-CC-PVTZ-RI
    Molecular point group: c1

    Geometry (in Angstrom), charge = 0, multiplicity = 1:

       Center              X                  Y                   Z               Mass
    ------------   -----------------  -----------------  -----------------  -----------------
         F           -0.874548882119     1.622168574538    -0.000008723862    18.998403162730
         O            0.694948317881    -1.604927025462    -0.000009323862    15.994914619570
         N            1.500881117881     0.506657574538     0.000008276138    14.003074004430
         C           -0.881621882119     0.229614574538     0.000000276138    12.000000000000
         C           -1.981915882119    -0.439668425462     0.754987276138    12.000000000000
         C           -1.981920882119    -0.439670425462    -0.754974723862    12.000000000000
         C            0.482143117881    -0.387666425462     0.000000276138    12.000000000000
         C            2.889885117881     0.090754574538     0.000001276138    12.000000000000
         H           -2.685006882119     0.219571574538     1.252594276138     1.007825032230
         H           -1.728474882119    -1.359755425462     1.269437276138     1.007825032230
         H           -1.728511882119    -1.359755425462    -1.269441723862     1.007825032230
         H           -2.685011882119     0.219581574538    -1.252567723862     1.007825032230
         H            1.260488117881     1.488509574538     0.000000276138     1.007825032230
         H            3.406802117881     0.457254574538     0.891194276138     1.007825032230
         H            3.406781117881     0.457199574538    -0.891225723862     1.007825032230
         H            2.899744117881    -0.998821425462     0.000035276138     1.007825032230

  Basis Set: AUG-CC-PVTZ
    Blend: AUG-CC-PVTZ
  Basis Set: (AUG-CC-PVTZ AUX)
    Blend: AUG-CC-PVTZ-JKFIT
	 Reference Energy          =    -422.8845202734922850 [Eh]
	 Singles Energy            =      -0.0000000000000000 [Eh]
	 Same-Spin Energy          =      -0.4069595516336126 [Eh]
	 Opposite-Spin Energy      =      -1.2778971945765638 [Eh]
	 Correlation Energy        =      -1.6848567462101764 [Eh]
	 Total Energy              =    -424.5693770197024719 [Eh]

	 ================> DF-SCS-MP2 Energies <==================
	-----------------------------------------------------------
	 SCS Same-Spin Scale       =       0.3333333333333333 [-]
	 SCS Opposite-Spin Scale   =       1.2000000000000000 [-]
	 SCS Same-Spin Energy      =      -0.1356531838778709 [Eh]
	 SCS Opposite-Spin Energy  =      -1.5334766334918766 [Eh]
	 SCS Correlation Energy    =      -1.6691298173697475 [Eh]
	 SCS Total Energy          =    -424.5536500908620496 [Eh]
	-----------------------------------------------------------

  Dipole Moment: [D]
     X:     0.1322      Y:     1.9294      Z:     0.0000     Total:     1.9339

*** Psi4 exiting successfully. Buy a developer a beer!
