                               Psi4 1.3.2 release

  ==> Input File <==

--------------------------------------------------------------------------
#psi4
#
memory 32 gb

molecule  {
0 1
  F       -0.8877360     1.6438520    -0.0000090
  O        0.5963310    -1.5951230    -0.0000100
  N        1.4876940     0.5283410     0.0000080
  C       -0.8943011     0.3512967    -0.0000006
  C       -1.9951030    -0.4179850     0.7549870
  C       -1.9951080    -0.4179870    -0.7549750
  C        0.4689560    -0.3659830     0.0000000
  C        2.8766980     0.1124380     0.0000010
  H       -2.6981940     0.2412550     1.2525940
  H       -1.7416620    -1.3380720     1.2694370
  H       -1.7416990    -1.3380720    -1.2694420
  H       -2.6981990     0.2412650    -1.2525680
  H        1.2473010     1.5101930     0.0000000
  H        3.3936150     0.4789380     0.8911940
  H        3.3935940     0.4788830    -0.8912260
  H        2.8865570    -0.9771380     0.0000350
units angstrom
no_reorient  #important for SAPT in psi4, default
symmetry c1  #important for SAPT in psi4, default
}

set PROPERTIES_ORIGIN ["COM"]
properties('MP2/aug-cc-pvtz', properties = ['dipole'])
--------------------------------------------------------------------------

    Molecular point group: c1
  Charge       = 0
  Multiplicity = 1
  Basis Set: AUG-CC-PVTZ
    Blend: AUG-CC-PVTZ
  Basis Set: (AUG-CC-PVTZ AUX)
    Blend: AUG-CC-PVTZ-JKFIT

    Orbital Energies [Eh]
    ---------------------

    Doubly Occupied:

       1A    -26.329776     2A    -20.519881     3A    -15.591637
       4A    -11.359932     5A    -11.336179     6A    -11.261748
       7A    -11.245754     8A    -11.245091     9A     -1.670633
      10A     -1.374297    11A     -1.235996    12A     -1.144561
      13A     -0.977898    14A     -0.881403    15A     -0.845705
      16A     -0.800679    17A     -0.780051    18A     -0.721361
      19A     -0.720387    20A     -0.647144    21A     -0.642208
      22A     -0.629030    23A     -0.625387    24A     -0.578948
      25A     -0.549684    26A     -0.548607    27A     -0.523614
      28A     -0.468316    29A     -0.414697    30A     -0.409864
      31A     -0.396681

  @DF-RHF Final Energy:  -422.87669120510645

   => Energetics <=

    Nuclear Repulsion Energy =            388.5939029388815698
    One-Electron Energy =               -1349.9868911735713937
    Two-Electron Energy =                 538.5162970295833702
    Total Energy =                       -422.8766912051064537
  Basis Set: (AUG-CC-PVTZ AUX)
    Blend: AUG-CC-PVTZ-RI
    Molecular point group: c1

    Geometry (in Angstrom), charge = 0, multiplicity = 1:

       Center              X                  Y                   Z               Mass
    ------------   -----------------  -----------------  -----------------  -----------------
         F           -0.862927784660     1.613540664852    -0.000008607699    18.998403162730
         O            0.621139215340    -1.625434335148    -0.000009607699    15.994914619570
         N            1.512502215340     0.498029664852     0.000008392301    14.003074004430
         C           -0.869492884660     0.320985364852    -0.000000207699    12.000000000000
         C           -1.970294784660    -0.448296335148     0.754987392301    12.000000000000
         C           -1.970299784660    -0.448298335148    -0.754974607699    12.000000000000
         C            0.493764215340    -0.396294335148     0.000000392301    12.000000000000
         C            2.901506215340     0.082126664852     0.000001392301    12.000000000000
         H           -2.673385784660     0.210943664852     1.252594392301     1.007825032230
         H           -1.716853784660    -1.368383335148     1.269437392301     1.007825032230
         H           -1.716890784660    -1.368383335148    -1.269441607699     1.007825032230
         H           -2.673390784660     0.210953664852    -1.252567607699     1.007825032230
         H            1.272109215340     1.479881664852     0.000000392301     1.007825032230
         H            3.418423215340     0.448626664852     0.891194392301     1.007825032230
         H            3.418402215340     0.448571664852    -0.891225607699     1.007825032230
         H            2.911365215340    -1.007449335148     0.000035392301     1.007825032230

  Basis Set: AUG-CC-PVTZ
    Blend: AUG-CC-PVTZ
  Basis Set: (AUG-CC-PVTZ AUX)
    Blend: AUG-CC-PVTZ-JKFIT
	 Reference Energy          =    -422.8766912051064537 [Eh]
	 Singles Energy            =      -0.0000000000000000 [Eh]
	 Same-Spin Energy          =      -0.4067445470094520 [Eh]
	 Opposite-Spin Energy      =      -1.2765737991000186 [Eh]
	 Correlation Energy        =      -1.6833183461094705 [Eh]
	 Total Energy              =    -424.5600095512158987 [Eh]

	 ================> DF-SCS-MP2 Energies <==================
	-----------------------------------------------------------
	 SCS Same-Spin Scale       =       0.3333333333333333 [-]
	 SCS Opposite-Spin Scale   =       1.2000000000000000 [-]
	 SCS Same-Spin Energy      =      -0.1355815156698173 [Eh]
	 SCS Opposite-Spin Energy  =      -1.5318885589200222 [Eh]
	 SCS Correlation Energy    =      -1.6674700745898394 [Eh]
	 SCS Total Energy          =    -424.5441612796963113 [Eh]
	-----------------------------------------------------------

  Dipole Moment: [D]
     X:     0.4751      Y:     2.3676      Z:     0.0000     Total:     2.4148

*** Psi4 exiting successfully. Buy a developer a beer!
