                               Psi4 1.3.2 release

  ==> Input File <==

--------------------------------------------------------------------------
#psi4
#
memory 32 gb

molecule  {
0 1
  F       -0.8877360     1.6438520    -0.0000090
  O        0.5963310    -1.5951230    -0.0000100
  N        1.4876940     0.5283410     0.0000080
  C       -0.8948090     0.2512980     0.0000000
  C       -1.9951030    -0.4179850     0.7549870
  C       -2.0582707    -0.3412002    -0.7238027
  C        0.4689560    -0.3659830     0.0000000
  C        2.8766980     0.1124380     0.0000010
  H       -2.6981940     0.2412550     1.2525940
  H       -1.7416620    -1.3380720     1.2694370
  H       -1.7416990    -1.3380720    -1.2694420
  H       -2.6981990     0.2412650    -1.2525680
  H        1.2473010     1.5101930     0.0000000
  H        3.3936150     0.4789380     0.8911940
  H        3.3935940     0.4788830    -0.8912260
  H        2.8865570    -0.9771380     0.0000350
units angstrom
no_reorient  #important for SAPT in psi4, default
symmetry c1  #important for SAPT in psi4, default
}

set PROPERTIES_ORIGIN ["COM"]
properties('MP2/aug-cc-pvtz', properties = ['dipole'])
--------------------------------------------------------------------------

    Molecular point group: c1
  Charge       = 0
  Multiplicity = 1
  Basis Set: AUG-CC-PVTZ
    Blend: AUG-CC-PVTZ
  Basis Set: (AUG-CC-PVTZ AUX)
    Blend: AUG-CC-PVTZ-JKFIT

    Orbital Energies [Eh]
    ---------------------

    Doubly Occupied:

       1A    -26.302436     2A    -20.521995     3A    -15.594312
       4A    -11.362937     5A    -11.333207     6A    -11.263628
       7A    -11.248804     8A    -11.247978     9A     -1.612124
      10A     -1.379068    11A     -1.237686    12A     -1.171465
      13A     -0.982137    14A     -0.879161    15A     -0.852302
      16A     -0.786771    17A     -0.763773    18A     -0.708820
      19A     -0.685314    20A     -0.654640    21A     -0.638870
      22A     -0.627210    23A     -0.621432    24A     -0.586988
      25A     -0.556518    26A     -0.550085    27A     -0.518673
      28A     -0.474004    29A     -0.428995    30A     -0.426311
      31A     -0.398088

  @DF-RHF Final Energy:  -422.87346298733360

   => Energetics <=

    Nuclear Repulsion Energy =            388.5092527418298687
    One-Electron Energy =               -1349.9339684168010081
    Two-Electron Energy =                 538.5512526876375432
    Total Energy =                       -422.8734629873335962
  Basis Set: (AUG-CC-PVTZ AUX)
    Blend: AUG-CC-PVTZ-RI
    Molecular point group: c1

    Geometry (in Angstrom), charge = 0, multiplicity = 1:

       Center              X                  Y                   Z               Mass
    ------------   -----------------  -----------------  -----------------  -----------------
         F           -0.856400757674     1.615920172783    -0.003204216968    18.998403162730
         O            0.627666242326    -1.623054827217    -0.003205216968    15.994914619570
         N            1.519029242326     0.500409172783    -0.003187216968    14.003074004430
         C           -0.863473757674     0.223366172783    -0.003195216968    12.000000000000
         C           -1.963767757674    -0.445916827217     0.751791783032    12.000000000000
         C           -2.026935457674    -0.369132027217    -0.726997916968    12.000000000000
         C            0.500291242326    -0.393914827217    -0.003195216968    12.000000000000
         C            2.908033242326     0.084506172783    -0.003194216968    12.000000000000
         H           -2.666858757674     0.213323172783     1.249398783032     1.007825032230
         H           -1.710326757674    -1.366003827217     1.266241783032     1.007825032230
         H           -1.710363757674    -1.366003827217    -1.272637216968     1.007825032230
         H           -2.666863757674     0.213333172783    -1.255763216968     1.007825032230
         H            1.278636242326     1.482261172783    -0.003195216968     1.007825032230
         H            3.424950242326     0.451006172783     0.887998783032     1.007825032230
         H            3.424929242326     0.450951172783    -0.894421216968     1.007825032230
         H            2.917892242326    -1.005069827217    -0.003160216968     1.007825032230

  Basis Set: AUG-CC-PVTZ
    Blend: AUG-CC-PVTZ
  Basis Set: (AUG-CC-PVTZ AUX)
    Blend: AUG-CC-PVTZ-JKFIT
	 Reference Energy          =    -422.8734629873335962 [Eh]
	 Singles Energy            =      -0.0000000000000000 [Eh]
	 Same-Spin Energy          =      -0.4070778863214985 [Eh]
	 Opposite-Spin Energy      =      -1.2782506083436338 [Eh]
	 Correlation Energy        =      -1.6853284946651323 [Eh]
	 Total Energy              =    -424.5587914819987532 [Eh]

	 ================> DF-SCS-MP2 Energies <==================
	-----------------------------------------------------------
	 SCS Same-Spin Scale       =       0.3333333333333333 [-]
	 SCS Opposite-Spin Scale   =       1.2000000000000000 [-]
	 SCS Same-Spin Energy      =      -0.1356926287738328 [Eh]
	 SCS Opposite-Spin Energy  =      -1.5339007300123606 [Eh]
	 SCS Correlation Energy    =      -1.6695933587861935 [Eh]
	 SCS Total Energy          =    -424.5430563461197835 [Eh]
	-----------------------------------------------------------

  Dipole Moment: [D]
     X:     0.4290      Y:     1.9690      Z:     0.0253     Total:     2.0154

*** Psi4 exiting successfully. Buy a developer a beer!
