                               Psi4 1.3.2 release

  ==> Input File <==

--------------------------------------------------------------------------
#psi4
#
memory 32 gb

molecule  {
0 1
  F       -0.8877360     1.6438520    -0.0000090
  O        0.5963310    -1.5951230    -0.0000100
  N        1.4228275     0.5972260     0.0000082
  C       -0.8948090     0.2512980     0.0000000
  C       -1.9951030    -0.4179850     0.7549870
  C       -1.9951080    -0.4179870    -0.7549750
  C        0.4689560    -0.3659830     0.0000000
  C        2.8766980     0.1124380     0.0000010
  H       -2.6981940     0.2412550     1.2525940
  H       -1.7416620    -1.3380720     1.2694370
  H       -1.7416990    -1.3380720    -1.2694420
  H       -2.6981990     0.2412650    -1.2525680
  H        1.2473010     1.5101930     0.0000000
  H        3.3936150     0.4789380     0.8911940
  H        3.3935940     0.4788830    -0.8912260
  H        2.8865570    -0.9771380     0.0000350
units angstrom
no_reorient  #important for SAPT in psi4, default
symmetry c1  #important for SAPT in psi4, default
}

set PROPERTIES_ORIGIN ["COM"]
properties('MP2/aug-cc-pvtz', properties = ['dipole'])
--------------------------------------------------------------------------

    Molecular point group: c1
  Charge       = 0
  Multiplicity = 1
  Basis Set: AUG-CC-PVTZ
    Blend: AUG-CC-PVTZ
  Basis Set: (AUG-CC-PVTZ AUX)
    Blend: AUG-CC-PVTZ-JKFIT

    Orbital Energies [Eh]
    ---------------------

    Doubly Occupied:

       1A    -26.302601     2A    -20.525572     3A    -15.590738
       4A    -11.363580     5A    -11.329617     6A    -11.270673
       7A    -11.245977     8A    -11.245313     9A     -1.611345
      10A     -1.378715    11A     -1.237665    12A     -1.164128
      13A     -0.973478    14A     -0.883951    15A     -0.849478
      16A     -0.806485    17A     -0.764349    18A     -0.701538
      19A     -0.684436    20A     -0.647959    21A     -0.631129
      22A     -0.623572    23A     -0.619928    24A     -0.576429
      25A     -0.560562    26A     -0.557060    27A     -0.526003
      28A     -0.470066    29A     -0.431213    30A     -0.421864
      31A     -0.405825

  @DF-RHF Final Energy:  -422.87358317358968

   => Energetics <=

    Nuclear Repulsion Energy =            388.4669331669795724
    One-Electron Energy =               -1349.8785382932999255
    Two-Electron Energy =                 538.5380219527307872
    Total Energy =                       -422.8735831735896227
  Basis Set: (AUG-CC-PVTZ AUX)
    Blend: AUG-CC-PVTZ-RI
    Molecular point group: c1

    Geometry (in Angstrom), charge = 0, multiplicity = 1:

       Center              X                  Y                   Z               Mass
    ------------   -----------------  -----------------  -----------------  -----------------
         F           -0.855116123344     1.615551468491    -0.000008693131    18.998403162730
         O            0.628950876656    -1.623423531509    -0.000009693131    15.994914619570
         N            1.455447376656     0.568925468491     0.000008506869    14.003074004430
         C           -0.862189123344     0.222997468491     0.000000306869    12.000000000000
         C           -1.962483123344    -0.446285531509     0.754987306869    12.000000000000
         C           -1.962488123344    -0.446287531509    -0.754974693131    12.000000000000
         C            0.501575876656    -0.394283531509     0.000000306869    12.000000000000
         C            2.909317876656     0.084137468491     0.000001306869    12.000000000000
         H           -2.665574123344     0.212954468491     1.252594306869     1.007825032230
         H           -1.709042123344    -1.366372531509     1.269437306869     1.007825032230
         H           -1.709079123344    -1.366372531509    -1.269441693131     1.007825032230
         H           -2.665579123344     0.212964468491    -1.252567693131     1.007825032230
         H            1.279920876656     1.481892468491     0.000000306869     1.007825032230
         H            3.426234876656     0.450637468491     0.891194306869     1.007825032230
         H            3.426213876656     0.450582468491    -0.891225693131     1.007825032230
         H            2.919176876656    -1.005438531509     0.000035306869     1.007825032230

  Basis Set: AUG-CC-PVTZ
    Blend: AUG-CC-PVTZ
  Basis Set: (AUG-CC-PVTZ AUX)
    Blend: AUG-CC-PVTZ-JKFIT
	 Reference Energy          =    -422.8735831735896795 [Eh]
	 Singles Energy            =      -0.0000000000000000 [Eh]
	 Same-Spin Energy          =      -0.4064496557128939 [Eh]
	 Opposite-Spin Energy      =      -1.2779380626718013 [Eh]
	 Correlation Energy        =      -1.6843877183846951 [Eh]
	 Total Energy              =    -424.5579708919743780 [Eh]

	 ================> DF-SCS-MP2 Energies <==================
	-----------------------------------------------------------
	 SCS Same-Spin Scale       =       0.3333333333333333 [-]
	 SCS Opposite-Spin Scale   =       1.2000000000000000 [-]
	 SCS Same-Spin Energy      =      -0.1354832185709646 [Eh]
	 SCS Opposite-Spin Energy  =      -1.5335256752061615 [Eh]
	 SCS Correlation Energy    =      -1.6690088937771261 [Eh]
	 SCS Total Energy          =    -424.5425920673667974 [Eh]
	-----------------------------------------------------------

  Dipole Moment: [D]
     X:     0.6484      Y:     1.8423      Z:     0.0000     Total:     1.9531

*** Psi4 exiting successfully. Buy a developer a beer!
