                               Psi4 1.3.2 release

  ==> Input File <==

--------------------------------------------------------------------------
#psi4
#
memory 32 gb

molecule  {
0 1
  F       -0.7906136     1.6399664    -0.0000093
  O        0.5963310    -1.5951230    -0.0000100
  N        1.4876940     0.5283410     0.0000080
  C       -0.8948090     0.2512980     0.0000000
  C       -1.9951030    -0.4179850     0.7549870
  C       -1.9951080    -0.4179870    -0.7549750
  C        0.4689560    -0.3659830     0.0000000
  C        2.8766980     0.1124380     0.0000010
  H       -2.6981940     0.2412550     1.2525940
  H       -1.7416620    -1.3380720     1.2694370
  H       -1.7416990    -1.3380720    -1.2694420
  H       -2.6981990     0.2412650    -1.2525680
  H        1.2473010     1.5101930     0.0000000
  H        3.3936150     0.4789380     0.8911940
  H        3.3935940     0.4788830    -0.8912260
  H        2.8865570    -0.9771380     0.0000350
units angstrom
no_reorient  #important for SAPT in psi4, default
symmetry c1  #important for SAPT in psi4, default
}

set PROPERTIES_ORIGIN ["COM"]
properties('MP2/aug-cc-pvtz', properties = ['dipole'])
--------------------------------------------------------------------------

    Molecular point group: c1
  Charge       = 0
  Multiplicity = 1
  Basis Set: AUG-CC-PVTZ
    Blend: AUG-CC-PVTZ
  Basis Set: (AUG-CC-PVTZ AUX)
    Blend: AUG-CC-PVTZ-JKFIT

    Orbital Energies [Eh]
    ---------------------

    Doubly Occupied:

       1A    -26.306240     2A    -20.518967     3A    -15.591098
       4A    -11.358211     5A    -11.335290     6A    -11.261666
       7A    -11.250361     8A    -11.249698     9A     -1.615515
      10A     -1.376531    11A     -1.234912    12A     -1.168549
      13A     -0.979714    14A     -0.878005    15A     -0.852788
      16A     -0.783794    17A     -0.766017    18A     -0.707081
      19A     -0.688558    20A     -0.647883    21A     -0.642825
      22A     -0.625841    23A     -0.624718    24A     -0.582093
      25A     -0.554878    26A     -0.547755    27A     -0.527054
      28A     -0.471184    29A     -0.434807    30A     -0.423693
      31A     -0.395770

  @DF-RHF Final Energy:  -422.88454668719226

   => Energetics <=

    Nuclear Repulsion Energy =            389.2302008091824632
    One-Electron Energy =               -1351.4265043191680888
    Two-Electron Energy =                 539.3117568227934271
    Total Energy =                       -422.8845466871922554
  Basis Set: (AUG-CC-PVTZ AUX)
    Blend: AUG-CC-PVTZ-RI
    Molecular point group: c1

    Geometry (in Angstrom), charge = 0, multiplicity = 1:

       Center              X                  Y                   Z               Mass
    ------------   -----------------  -----------------  -----------------  -----------------
         F           -0.781516059075     1.620536796986    -0.000008920517    18.998403162730
         O            0.605428540925    -1.614552603014    -0.000009620517    15.994914619570
         N            1.496791540925     0.508911396986     0.000008379483    14.003074004430
         C           -0.885711459075     0.231868396986     0.000000379483    12.000000000000
         C           -1.986005459075    -0.437414603014     0.754987379483    12.000000000000
         C           -1.986010459075    -0.437416603014    -0.754974620517    12.000000000000
         C            0.478053540925    -0.385412603014     0.000000379483    12.000000000000
         C            2.885795540925     0.093008396986     0.000001379483    12.000000000000
         H           -2.689096459075     0.221825396986     1.252594379483     1.007825032230
         H           -1.732564459075    -1.357501603014     1.269437379483     1.007825032230
         H           -1.732601459075    -1.357501603014    -1.269441620517     1.007825032230
         H           -2.689101459075     0.221835396986    -1.252567620517     1.007825032230
         H            1.256398540925     1.490763396986     0.000000379483     1.007825032230
         H            3.402712540925     0.459508396986     0.891194379483     1.007825032230
         H            3.402691540925     0.459453396986    -0.891225620517     1.007825032230
         H            2.895654540925    -0.996567603014     0.000035379483     1.007825032230

  Basis Set: AUG-CC-PVTZ
    Blend: AUG-CC-PVTZ
  Basis Set: (AUG-CC-PVTZ AUX)
    Blend: AUG-CC-PVTZ-JKFIT
	 Reference Energy          =    -422.8845466871922554 [Eh]
	 Singles Energy            =      -0.0000000000000000 [Eh]
	 Same-Spin Energy          =      -0.4069086249620120 [Eh]
	 Opposite-Spin Energy      =      -1.2777665125645696 [Eh]
	 Correlation Energy        =      -1.6846751375265816 [Eh]
	 Total Energy              =    -424.5692218247188521 [Eh]

	 ================> DF-SCS-MP2 Energies <==================
	-----------------------------------------------------------
	 SCS Same-Spin Scale       =       0.3333333333333333 [-]
	 SCS Opposite-Spin Scale   =       1.2000000000000000 [-]
	 SCS Same-Spin Energy      =      -0.1356362083206706 [Eh]
	 SCS Opposite-Spin Energy  =      -1.5333198150774836 [Eh]
	 SCS Correlation Energy    =      -1.6689560233981542 [Eh]
	 SCS Total Energy          =    -424.5535027105904078 [Eh]
	-----------------------------------------------------------

  Dipole Moment: [D]
     X:     0.2276      Y:     1.9720      Z:     0.0000     Total:     1.9851

*** Psi4 exiting successfully. Buy a developer a beer!
