                               Psi4 1.3.2 release

  ==> Input File <==

--------------------------------------------------------------------------
#psi4
#
memory 32 gb

molecule  {
0 1
  F       -0.8877360     1.6438520    -0.0000090
  O        0.5963310    -1.5951230    -0.0000100
  N        1.4876940     0.5283410     0.0000080
  C       -0.8948090     0.2512980     0.0000000
  C       -1.9951030    -0.4179850     0.7549870
  C       -1.9265847    -0.4915131    -0.7824692
  C        0.4689560    -0.3659830     0.0000000
  C        2.8766980     0.1124380     0.0000010
  H       -2.6981940     0.2412550     1.2525940
  H       -1.7416620    -1.3380720     1.2694370
  H       -1.7416990    -1.3380720    -1.2694420
  H       -2.6981990     0.2412650    -1.2525680
  H        1.2473010     1.5101930     0.0000000
  H        3.3936150     0.4789380     0.8911940
  H        3.3935940     0.4788830    -0.8912260
  H        2.8865570    -0.9771380     0.0000350
units angstrom
no_reorient  #important for SAPT in psi4, default
symmetry c1  #important for SAPT in psi4, default
}

set PROPERTIES_ORIGIN ["COM"]
properties('MP2/aug-cc-pvtz', properties = ['dipole'])
--------------------------------------------------------------------------

    Molecular point group: c1
  Charge       = 0
  Multiplicity = 1
  Basis Set: AUG-CC-PVTZ
    Blend: AUG-CC-PVTZ
  Basis Set: (AUG-CC-PVTZ AUX)
    Blend: AUG-CC-PVTZ-JKFIT

    Orbital Energies [Eh]
    ---------------------

    Doubly Occupied:

       1A    -26.308854     2A    -20.521079     3A    -15.593839
       4A    -11.360902     5A    -11.337593     6A    -11.263227
       7A    -11.250064     8A    -11.249432     9A     -1.616119
      10A     -1.378993    11A     -1.237294    12A     -1.163452
      13A     -0.980308    14A     -0.876188    15A     -0.858157
      16A     -0.786990    17A     -0.768923    18A     -0.707529
      19A     -0.690642    20A     -0.649071    21A     -0.643151
      22A     -0.627881    23A     -0.626588    24A     -0.581234
      25A     -0.552661    26A     -0.549508    27A     -0.530982
      28A     -0.463102    29A     -0.438039    30A     -0.420288
      31A     -0.398233

  @DF-RHF Final Energy:  -422.87201248632050

   => Energetics <=

    Nuclear Repulsion Energy =            388.6666314182250517
    One-Electron Energy =               -1350.2166400765584058
    Two-Electron Energy =                 538.6779961720128540
    Total Energy =                       -422.8720124863205001
  Basis Set: (AUG-CC-PVTZ AUX)
    Blend: AUG-CC-PVTZ-RI
    Molecular point group: c1

    Geometry (in Angstrom), charge = 0, multiplicity = 1:

       Center              X                  Y                   Z               Mass
    ------------   -----------------  -----------------  -----------------  -----------------
         F           -0.869900207588     1.631329111204     0.002809827641    18.998403162730
         O            0.614166792412    -1.607645888796     0.002808827641    15.994914619570
         N            1.505529792412     0.515818111204     0.002826827641    14.003074004430
         C           -0.876973207588     0.238775111204     0.002818827641    12.000000000000
         C           -1.977267207588    -0.430507888796     0.757805827641    12.000000000000
         C           -1.908748907588    -0.504035988796    -0.779650372359    12.000000000000
         C            0.486791792412    -0.378505888796     0.002818827641    12.000000000000
         C            2.894533792412     0.099915111204     0.002819827641    12.000000000000
         H           -2.680358207588     0.228732111204     1.255412827641     1.007825032230
         H           -1.723826207588    -1.350594888796     1.272255827641     1.007825032230
         H           -1.723863207588    -1.350594888796    -1.266623172359     1.007825032230
         H           -2.680363207588     0.228742111204    -1.249749172359     1.007825032230
         H            1.265136792412     1.497670111204     0.002818827641     1.007825032230
         H            3.411450792412     0.466415111204     0.894012827641     1.007825032230
         H            3.411429792412     0.466360111204    -0.888407172359     1.007825032230
         H            2.904392792412    -0.989660888796     0.002853827641     1.007825032230

  Basis Set: AUG-CC-PVTZ
    Blend: AUG-CC-PVTZ
  Basis Set: (AUG-CC-PVTZ AUX)
    Blend: AUG-CC-PVTZ-JKFIT
	 Reference Energy          =    -422.8720124863205001 [Eh]
	 Singles Energy            =      -0.0000000000000000 [Eh]
	 Same-Spin Energy          =      -0.4070825970598807 [Eh]
	 Opposite-Spin Energy      =      -1.2787741151075100 [Eh]
	 Correlation Energy        =      -1.6858567121673906 [Eh]
	 Total Energy              =    -424.5578691984878787 [Eh]

	 ================> DF-SCS-MP2 Energies <==================
	-----------------------------------------------------------
	 SCS Same-Spin Scale       =       0.3333333333333333 [-]
	 SCS Opposite-Spin Scale   =       1.2000000000000000 [-]
	 SCS Same-Spin Energy      =      -0.1356941990199602 [Eh]
	 SCS Opposite-Spin Energy  =      -1.5345289381290119 [Eh]
	 SCS Correlation Energy    =      -1.6702231371489722 [Eh]
	 SCS Total Energy          =    -424.5422356234694803 [Eh]
	-----------------------------------------------------------

  Dipole Moment: [D]
     X:     0.4498      Y:     1.9404      Z:     0.0180     Total:     1.9919

*** Psi4 exiting successfully. Buy a developer a beer!
