                               Psi4 1.3.2 release

  ==> Input File <==

--------------------------------------------------------------------------
#psi4
#
memory 32 gb

molecule  {
0 1
  F       -0.8077357     1.6400537     0.0550673
  O        0.5963310    -1.5951230    -0.0000100
  N        1.4876940     0.5283410     0.0000080
  C       -0.8948090     0.2512980     0.0000000
  C       -1.9951030    -0.4179850     0.7549870
  C       -1.9951080    -0.4179870    -0.7549750
  C        0.4689560    -0.3659830     0.0000000
  C        2.8766980     0.1124380     0.0000010
  H       -2.6981940     0.2412550     1.2525940
  H       -1.7416620    -1.3380720     1.2694370
  H       -1.7416990    -1.3380720    -1.2694420
  H       -2.6981990     0.2412650    -1.2525680
  H        1.2473010     1.5101930     0.0000000
  H        3.3936150     0.4789380     0.8911940
  H        3.3935940     0.4788830    -0.8912260
  H        2.8865570    -0.9771380     0.0000350
units angstrom
no_reorient  #important for SAPT in psi4, default
symmetry c1  #important for SAPT in psi4, default
}

set PROPERTIES_ORIGIN ["COM"]
properties('MP2/aug-cc-pvtz', properties = ['dipole'])
--------------------------------------------------------------------------

    Molecular point group: c1
  Charge       = 0
  Multiplicity = 1
  Basis Set: AUG-CC-PVTZ
    Blend: AUG-CC-PVTZ
  Basis Set: (AUG-CC-PVTZ AUX)
    Blend: AUG-CC-PVTZ-JKFIT

    Orbital Energies [Eh]
    ---------------------

    Doubly Occupied:

       1A    -26.306053     2A    -20.519391     3A    -15.591613
       4A    -11.358813     5A    -11.335129     6A    -11.261970
       7A    -11.250972     8A    -11.248397     9A     -1.615141
      10A     -1.376933    11A     -1.235344    12A     -1.168277
      13A     -0.979942    14A     -0.877799    15A     -0.852597
      16A     -0.784255    17A     -0.766065    18A     -0.706531
      19A     -0.688199    20A     -0.647829    21A     -0.642692
      22A     -0.626273    23A     -0.624979    24A     -0.582579
      25A     -0.555011    26A     -0.548144    27A     -0.526936
      28A     -0.470987    29A     -0.434426    30A     -0.423904
      31A     -0.396181

  @DF-RHF Final Energy:  -422.88475192131438

   => Energetics <=

    Nuclear Repulsion Energy =            389.1045307773753734
    One-Electron Energy =               -1351.1718387476159933
    Two-Electron Energy =                 539.1825560489262443
    Total Energy =                       -422.8847519213143187
  Basis Set: (AUG-CC-PVTZ AUX)
    Blend: AUG-CC-PVTZ-RI
    Molecular point group: c1

    Geometry (in Angstrom), charge = 0, multiplicity = 1:

       Center              X                  Y                   Z               Mass
    ------------   -----------------  -----------------  -----------------  -----------------
         F           -0.795859281920     1.620609928398     0.046128874925    18.998403162730
         O            0.608207418080    -1.614566771602    -0.008948425075    15.994914619570
         N            1.499570418080     0.508897228398    -0.008930425075    14.003074004430
         C           -0.882932581920     0.231854228398    -0.008938425075    12.000000000000
         C           -1.983226581920    -0.437428771602     0.746048574925    12.000000000000
         C           -1.983231581920    -0.437430771602    -0.763913425075    12.000000000000
         C            0.480832418080    -0.385426771602    -0.008938425075    12.000000000000
         C            2.888574418080     0.092994228398    -0.008937425075    12.000000000000
         H           -2.686317581920     0.221811228398     1.243655574925     1.007825032230
         H           -1.729785581920    -1.357515771602     1.260498574925     1.007825032230
         H           -1.729822581920    -1.357515771602    -1.278380425075     1.007825032230
         H           -2.686322581920     0.221821228398    -1.261506425075     1.007825032230
         H            1.259177418080     1.490749228398    -0.008938425075     1.007825032230
         H            3.405491418080     0.459494228398     0.882255574925     1.007825032230
         H            3.405470418080     0.459439228398    -0.900164425075     1.007825032230
         H            2.898433418080    -0.996581771602    -0.008903425075     1.007825032230

  Basis Set: AUG-CC-PVTZ
    Blend: AUG-CC-PVTZ
  Basis Set: (AUG-CC-PVTZ AUX)
    Blend: AUG-CC-PVTZ-JKFIT
	 Reference Energy          =    -422.8847519213143755 [Eh]
	 Singles Energy            =      -0.0000000000000000 [Eh]
	 Same-Spin Energy          =      -0.4068971692310077 [Eh]
	 Opposite-Spin Energy      =      -1.2777744252978123 [Eh]
	 Correlation Energy        =      -1.6846715945288200 [Eh]
	 Total Energy              =    -424.5694235158431979 [Eh]

	 ================> DF-SCS-MP2 Energies <==================
	-----------------------------------------------------------
	 SCS Same-Spin Scale       =       0.3333333333333333 [-]
	 SCS Opposite-Spin Scale   =       1.2000000000000000 [-]
	 SCS Same-Spin Energy      =      -0.1356323897436692 [Eh]
	 SCS Opposite-Spin Energy  =      -1.5333293103573746 [Eh]
	 SCS Correlation Energy    =      -1.6689617001010439 [Eh]
	 SCS Total Energy          =    -424.5537136214153975 [Eh]
	-----------------------------------------------------------

  Dipole Moment: [D]
     X:     0.2631      Y:     1.9677      Z:    -0.0571     Total:     1.9860

*** Psi4 exiting successfully. Buy a developer a beer!
