                               Psi4 1.3.2 release

  ==> Input File <==

--------------------------------------------------------------------------
#psi4
#
memory 32 gb

molecule  {
0 1
  F       -0.8877360     1.6438520    -0.0000090
  O        0.5533570    -1.5988196    -0.0000102
  N        1.4876940     0.5283410     0.0000080
  C       -0.8948090     0.2512980     0.0000000
  C       -1.9951030    -0.4179850     0.7549870
  C       -1.9951080    -0.4179870    -0.7549750
  C        0.4689560    -0.3659830     0.0000000
  C        2.8766980     0.1124380     0.0000010
  H       -2.6981940     0.2412550     1.2525940
  H       -1.7416620    -1.3380720     1.2694370
  H       -1.7416990    -1.3380720    -1.2694420
  H       -2.6981990     0.2412650    -1.2525680
  H        1.2473010     1.5101930     0.0000000
  H        3.3936150     0.4789380     0.8911940
  H        3.3935940     0.4788830    -0.8912260
  H        2.8865570    -0.9771380     0.0000350
units angstrom
no_reorient  #important for SAPT in psi4, default
symmetry c1  #important for SAPT in psi4, default
}

set PROPERTIES_ORIGIN ["COM"]
properties('MP2/aug-cc-pvtz', properties = ['dipole'])
--------------------------------------------------------------------------

    Molecular point group: c1
  Charge       = 0
  Multiplicity = 1
  Basis Set: AUG-CC-PVTZ
    Blend: AUG-CC-PVTZ
  Basis Set: (AUG-CC-PVTZ AUX)
    Blend: AUG-CC-PVTZ-JKFIT

    Orbital Energies [Eh]
    ---------------------

    Doubly Occupied:

       1A    -26.303724     2A    -20.521956     3A    -15.595969
       4A    -11.361947     5A    -11.332311     6A    -11.264997
       7A    -11.246886     8A    -11.246222     9A     -1.612344
      10A     -1.378829    11A     -1.239980    12A     -1.165087
      13A     -0.981604    14A     -0.876463    15A     -0.850309
      16A     -0.787682    17A     -0.765582    18A     -0.702993
      19A     -0.685385    20A     -0.648526    21A     -0.641650
      22A     -0.627963    23A     -0.626245    24A     -0.583659
      25A     -0.556332    26A     -0.551987    27A     -0.525151
      28A     -0.469019    29A     -0.431863    30A     -0.424025
      31A     -0.399817

  @DF-RHF Final Energy:  -422.88545061368154

   => Energetics <=

    Nuclear Repulsion Energy =            388.6858130318465783
    One-Electron Energy =               -1350.3295126306602469
    Two-Electron Energy =                 538.7582489851321270
    Total Energy =                       -422.8854506136815417
  Basis Set: (AUG-CC-PVTZ AUX)
    Blend: AUG-CC-PVTZ-RI
    Molecular point group: c1

    Geometry (in Angstrom), charge = 0, multiplicity = 1:

       Center              X                  Y                   Z               Mass
    ------------   -----------------  -----------------  -----------------  -----------------
         F           -0.857003760809     1.624296875711    -0.000008641878    18.998403162730
         O            0.584089239191    -1.618374724289    -0.000009841878    15.994914619570
         N            1.518426239191     0.508785875711     0.000008358122    14.003074004430
         C           -0.864076760809     0.231742875711     0.000000358122    12.000000000000
         C           -1.964370760809    -0.437540124289     0.754987358122    12.000000000000
         C           -1.964375760809    -0.437542124289    -0.754974641878    12.000000000000
         C            0.499688239191    -0.385538124289     0.000000358122    12.000000000000
         C            2.907430239191     0.092882875711     0.000001358122    12.000000000000
         H           -2.667461760809     0.221699875711     1.252594358122     1.007825032230
         H           -1.710929760809    -1.357627124289     1.269437358122     1.007825032230
         H           -1.710966760809    -1.357627124289    -1.269441641878     1.007825032230
         H           -2.667466760809     0.221709875711    -1.252567641878     1.007825032230
         H            1.278033239191     1.490637875711     0.000000358122     1.007825032230
         H            3.424347239191     0.459382875711     0.891194358122     1.007825032230
         H            3.424326239191     0.459327875711    -0.891225641878     1.007825032230
         H            2.917289239191    -0.996693124289     0.000035358122     1.007825032230

  Basis Set: AUG-CC-PVTZ
    Blend: AUG-CC-PVTZ
  Basis Set: (AUG-CC-PVTZ AUX)
    Blend: AUG-CC-PVTZ-JKFIT
	 Reference Energy          =    -422.8854506136815417 [Eh]
	 Singles Energy            =      -0.0000000000000000 [Eh]
	 Same-Spin Energy          =      -0.4068667139839051 [Eh]
	 Opposite-Spin Energy      =      -1.2778302928396210 [Eh]
	 Correlation Energy        =      -1.6846970068235261 [Eh]
	 Total Energy              =    -424.5701476205050540 [Eh]

	 ================> DF-SCS-MP2 Energies <==================
	-----------------------------------------------------------
	 SCS Same-Spin Scale       =       0.3333333333333333 [-]
	 SCS Opposite-Spin Scale   =       1.2000000000000000 [-]
	 SCS Same-Spin Energy      =      -0.1356222379946350 [Eh]
	 SCS Opposite-Spin Energy  =      -1.5333963514075453 [Eh]
	 SCS Correlation Energy    =      -1.6690185894021803 [Eh]
	 SCS Total Energy          =    -424.5544692030837268 [Eh]
	-----------------------------------------------------------

  Dipole Moment: [D]
     X:     0.5732      Y:     1.9485      Z:     0.0000     Total:     2.0311

*** Psi4 exiting successfully. Buy a developer a beer!
