                               Psi4 1.4a3.dev225

  ==> Input File <==

--------------------------------------------------------------------------
#psi4
#
memory 32 gb

molecule  {
0 1
  F       -0.8877360     1.6438520    -0.0000090
  O        0.5963310    -1.5951230    -0.0000100
  N        1.4876940     0.5283410     0.0000080
  C       -0.8948090     0.2512980     0.0000000
  C       -1.9951030    -0.4179850     0.7549870
  C       -1.9951080    -0.4179870    -0.7549750
  C        0.4234049    -0.3453652     0.0000000
  C        2.8766980     0.1124380     0.0000010
  H       -2.6981940     0.2412550     1.2525940
  H       -1.7416620    -1.3380720     1.2694370
  H       -1.7416990    -1.3380720    -1.2694420
  H       -2.6981990     0.2412650    -1.2525680
  H        1.2473010     1.5101930     0.0000000
  H        3.3936150     0.4789380     0.8911940
  H        3.3935940     0.4788830    -0.8912260
  H        2.8865570    -0.9771380     0.0000350
units angstrom
no_reorient  #important for SAPT in psi4, default
symmetry c1  #important for SAPT in psi4, default
}

set PROPERTIES_ORIGIN ["COM"]
properties('MP2/aug-cc-pvtz', properties = ['dipole'])
--------------------------------------------------------------------------

    Molecular point group: c1
  Charge       = 0
  Multiplicity = 1
  Basis Set: AUG-CC-PVTZ
    Blend: AUG-CC-PVTZ
  Basis Set: (AUG-CC-PVTZ AUX)
    Blend: AUG-CC-PVTZ-JKFIT

    Orbital Energies [Eh]
    ---------------------

    Doubly Occupied:

       1A    -26.308540     2A    -20.518467     3A    -15.592357
       4A    -11.363656     5A    -11.337258     6A    -11.261954
       7A    -11.253157     8A    -11.252490     9A     -1.617351
      10A     -1.363403    11A     -1.226677    12A     -1.173590
      13A     -0.984894    14A     -0.887603    15A     -0.856151
      16A     -0.780395    17A     -0.768206    18A     -0.708348
      19A     -0.690320    20A     -0.648748    21A     -0.641694
      22A     -0.622564    23A     -0.622285    24A     -0.586993
      25A     -0.555204    26A     -0.544933    27A     -0.526020
      28A     -0.468962    29A     -0.435063    30A     -0.428890
      31A     -0.392561

  @DF-RHF Final Energy:  -422.87955970042429

   => Energetics <=

    Nuclear Repulsion Energy =            388.6410378484130206
    One-Electron Energy =               -1350.2037299909522972
    Two-Electron Energy =                 538.6831324421149247
    Total Energy =                       -422.8795597004243518
  Basis Set: (AUG-CC-PVTZ AUX)
    Blend: AUG-CC-PVTZ-RI
    Molecular point group: c1

    Geometry (in Angstrom), charge = 0, multiplicity = 1:

       Center              X                  Y                   Z               Mass
    ------------   -----------------  -----------------  -----------------  -----------------
         F           -0.858206165327     1.621678192635    -0.000008669206    18.998403162730
         O            0.625860834673    -1.617296807365    -0.000009669206    15.994914619570
         N            1.517223834673     0.506167192635     0.000008330794    14.003074004430
         C           -0.865279165327     0.229124192635     0.000000330794    12.000000000000
         C           -1.965573165327    -0.440158807365     0.754987330794    12.000000000000
         C           -1.965578165327    -0.440160807365    -0.754974669206    12.000000000000
         C            0.452934734673    -0.367539007365     0.000000330794    12.000000000000
         C            2.906227834673     0.090264192635     0.000001330794    12.000000000000
         H           -2.668664165327     0.219081192635     1.252594330794     1.007825032230
         H           -1.712132165327    -1.360245807365     1.269437330794     1.007825032230
         H           -1.712169165327    -1.360245807365    -1.269441669206     1.007825032230
         H           -2.668669165327     0.219091192635    -1.252567669206     1.007825032230
         H            1.276830834673     1.488019192635     0.000000330794     1.007825032230
         H            3.423144834673     0.456764192635     0.891194330794     1.007825032230
         H            3.423123834673     0.456709192635    -0.891225669206     1.007825032230
         H            2.916086834673    -0.999311807365     0.000035330794     1.007825032230

  Basis Set: AUG-CC-PVTZ
    Blend: AUG-CC-PVTZ
  Basis Set: (AUG-CC-PVTZ AUX)
    Blend: AUG-CC-PVTZ-JKFIT
	 Reference Energy          =    -422.8795597004242950 [Eh]
	 Singles Energy            =      -0.0000000000000000 [Eh]
	 Same-Spin Energy          =      -0.4078294231400147 [Eh]
	 Opposite-Spin Energy      =      -1.2796553826089052 [Eh]
	 Correlation Energy        =      -1.6874848057489200 [Eh]
	 Total Energy              =    -424.5670445061732039 [Eh]

	 ================> DF-SCS-MP2 Energies <==================
	-----------------------------------------------------------
	 SCS Same-Spin Scale       =       0.3333333333333333 [-]
	 SCS Opposite-Spin Scale   =       1.2000000000000000 [-]
	 SCS Same-Spin Energy      =      -0.1359431410466715 [Eh]
	 SCS Opposite-Spin Energy  =      -1.5355864591306863 [Eh]
	 SCS Correlation Energy    =      -1.6715296001773579 [Eh]
	 SCS Total Energy          =    -424.5510893006016317 [Eh]
	-----------------------------------------------------------

  Dipole Moment: [D]
     X:     0.1356      Y:     1.9987      Z:     0.0000     Total:     2.0033

*** Psi4 exiting successfully. Buy a developer a beer!
