                               Psi4 1.3.2 release

  ==> Input File <==

--------------------------------------------------------------------------
#psi4
#
memory 32 gb

molecule  {
0 1
  F       -1.0333363     1.6369628    -0.0000085
  O        0.5963310    -1.5951230    -0.0000100
  N        1.4876940     0.5283410     0.0000080
  C       -0.8948090     0.2512980     0.0000000
  C       -1.9951030    -0.4179850     0.7549870
  C       -1.9951080    -0.4179870    -0.7549750
  C        0.4689560    -0.3659830     0.0000000
  C        2.8766980     0.1124380     0.0000010
  H       -2.6981940     0.2412550     1.2525940
  H       -1.7416620    -1.3380720     1.2694370
  H       -1.7416990    -1.3380720    -1.2694420
  H       -2.6981990     0.2412650    -1.2525680
  H        1.2473010     1.5101930     0.0000000
  H        3.3936150     0.4789380     0.8911940
  H        3.3935940     0.4788830    -0.8912260
  H        2.8865570    -0.9771380     0.0000350
units angstrom
no_reorient  #important for SAPT in psi4, default
symmetry c1  #important for SAPT in psi4, default
}

set PROPERTIES_ORIGIN ["COM"]
properties('MP2/aug-cc-pvtz', properties = ['dipole'])
--------------------------------------------------------------------------

    Molecular point group: c1
  Charge       = 0
  Multiplicity = 1
  Basis Set: AUG-CC-PVTZ
    Blend: AUG-CC-PVTZ
  Basis Set: (AUG-CC-PVTZ AUX)
    Blend: AUG-CC-PVTZ-JKFIT

    Orbital Energies [Eh]
    ---------------------

    Doubly Occupied:

       1A    -26.303453     2A    -20.524659     3A    -15.597404
       4A    -11.366595     5A    -11.333325     6A    -11.265399
       7A    -11.245613     8A    -11.244947     9A     -1.611909
      10A     -1.381870    11A     -1.240514    12A     -1.164654
      13A     -0.982813    14A     -0.875950    15A     -0.850315
      16A     -0.789873    17A     -0.767924    18A     -0.699265
      19A     -0.684383    20A     -0.653352    21A     -0.640748
      22A     -0.629728    23A     -0.621710    24A     -0.587875
      25A     -0.557312    26A     -0.552443    27A     -0.524760
      28A     -0.468462    29A     -0.431536    30A     -0.425498
      31A     -0.401015

  @DF-RHF Final Energy:  -422.88318643708197

   => Energetics <=

    Nuclear Repulsion Energy =            387.7981822107248036
    One-Electron Energy =               -1348.5121280532428045
    Two-Electron Energy =                 537.8307594054360834
    Total Energy =                       -422.8831864370819176
  Basis Set: (AUG-CC-PVTZ AUX)
    Blend: AUG-CC-PVTZ-RI
    Molecular point group: c1

    Geometry (in Angstrom), charge = 0, multiplicity = 1:

       Center              X                  Y                   Z               Mass
    ------------   -----------------  -----------------  -----------------  -----------------
         F           -0.984845427296     1.618020674306    -0.000008250355    18.998403162730
         O            0.644821872704    -1.614065125694    -0.000009750355    15.994914619570
         N            1.536184872704     0.509398874306     0.000008249645    14.003074004430
         C           -0.846318127296     0.232355874306     0.000000249645    12.000000000000
         C           -1.946612127296    -0.436927125694     0.754987249645    12.000000000000
         C           -1.946617127296    -0.436929125694    -0.754974750355    12.000000000000
         C            0.517446872704    -0.384925125694     0.000000249645    12.000000000000
         C            2.925188872704     0.093495874306     0.000001249645    12.000000000000
         H           -2.649703127296     0.222312874306     1.252594249645     1.007825032230
         H           -1.693171127296    -1.357014125694     1.269437249645     1.007825032230
         H           -1.693208127296    -1.357014125694    -1.269441750355     1.007825032230
         H           -2.649708127296     0.222322874306    -1.252567750355     1.007825032230
         H            1.295791872704     1.491250874306     0.000000249645     1.007825032230
         H            3.442105872704     0.459995874306     0.891194249645     1.007825032230
         H            3.442084872704     0.459940874306    -0.891225750355     1.007825032230
         H            2.935047872704    -0.996080125694     0.000035249645     1.007825032230

  Basis Set: AUG-CC-PVTZ
    Blend: AUG-CC-PVTZ
  Basis Set: (AUG-CC-PVTZ AUX)
    Blend: AUG-CC-PVTZ-JKFIT
	 Reference Energy          =    -422.8831864370819744 [Eh]
	 Singles Energy            =      -0.0000000000000000 [Eh]
	 Same-Spin Energy          =      -0.4070065470054229 [Eh]
	 Opposite-Spin Energy      =      -1.2781989770130913 [Eh]
	 Correlation Energy        =      -1.6852055240185142 [Eh]
	 Total Energy              =    -424.5683919611004740 [Eh]

	 ================> DF-SCS-MP2 Energies <==================
	-----------------------------------------------------------
	 SCS Same-Spin Scale       =       0.3333333333333333 [-]
	 SCS Opposite-Spin Scale   =       1.2000000000000000 [-]
	 SCS Same-Spin Energy      =      -0.1356688490018076 [Eh]
	 SCS Opposite-Spin Energy  =      -1.5338387724157094 [Eh]
	 SCS Correlation Energy    =      -1.6695076214175171 [Eh]
	 SCS Total Energy          =    -424.5526940584994691 [Eh]
	-----------------------------------------------------------

  Dipole Moment: [D]
     X:     0.7107      Y:     1.9343      Z:     0.0000     Total:     2.0607

*** Psi4 exiting successfully. Buy a developer a beer!
