                               Psi4 1.3.2 release

  ==> Input File <==

--------------------------------------------------------------------------
#psi4
#
memory 32 gb

molecule  {
0 1
  F       -0.8877360     1.6438520    -0.0000090
  O        0.5963310    -1.5951230    -0.0000100
  N        1.5182849     0.4922428     0.0000079
  C       -0.8948090     0.2512980     0.0000000
  C       -1.9951030    -0.4179850     0.7549870
  C       -1.9951080    -0.4179870    -0.7549750
  C        0.4689560    -0.3659830     0.0000000
  C        2.8766980     0.1124380     0.0000010
  H       -2.6981940     0.2412550     1.2525940
  H       -1.7416620    -1.3380720     1.2694370
  H       -1.7416990    -1.3380720    -1.2694420
  H       -2.6981990     0.2412650    -1.2525680
  H        1.2473010     1.5101930     0.0000000
  H        3.3936150     0.4789380     0.8911940
  H        3.3935940     0.4788830    -0.8912260
  H        2.8865570    -0.9771380     0.0000350
units angstrom
no_reorient  #important for SAPT in psi4, default
symmetry c1  #important for SAPT in psi4, default
}

set PROPERTIES_ORIGIN ["COM"]
properties('MP2/aug-cc-pvtz', properties = ['dipole'])
--------------------------------------------------------------------------

    Molecular point group: c1
  Charge       = 0
  Multiplicity = 1
  Basis Set: AUG-CC-PVTZ
    Blend: AUG-CC-PVTZ
  Basis Set: (AUG-CC-PVTZ AUX)
    Blend: AUG-CC-PVTZ-JKFIT

    Orbital Energies [Eh]
    ---------------------

    Doubly Occupied:

       1A    -26.306695     2A    -20.519440     3A    -15.595299
       4A    -11.361424     5A    -11.337033     6A    -11.259692
       7A    -11.249727     8A    -11.249063     9A     -1.614969
      10A     -1.379317    11A     -1.239123    12A     -1.168540
      13A     -0.984983    14A     -0.875822    15A     -0.852913
      16A     -0.777248    17A     -0.766971    18A     -0.705508
      19A     -0.687954    20A     -0.651709    21A     -0.646160
      22A     -0.630998    23A     -0.627245    24A     -0.587819
      25A     -0.555548    26A     -0.541200    27A     -0.526552
      28A     -0.470011    29A     -0.434644    30A     -0.425863
      31A     -0.393943

  @DF-RHF Final Energy:  -422.88193003726400

   => Energetics <=

    Nuclear Repulsion Energy =            388.6458439963206501
    One-Electron Energy =               -1350.2087197389823814
    Two-Electron Energy =                 538.6809457053977894
    Total Energy =                       -422.8819300372639418
  Basis Set: (AUG-CC-PVTZ AUX)
    Blend: AUG-CC-PVTZ-RI
    Molecular point group: c1

    Geometry (in Angstrom), charge = 0, multiplicity = 1:

       Center              X                  Y                   Z               Mass
    ------------   -----------------  -----------------  -----------------  -----------------
         F           -0.866535126815     1.628109987005    -0.000008657244    18.998403162730
         O            0.617531873185    -1.610865012995    -0.000009657244    15.994914619570
         N            1.539485773185     0.476500787005     0.000008242756    14.003074004430
         C           -0.873608126815     0.235555987005     0.000000342756    12.000000000000
         C           -1.973902126815    -0.433727012995     0.754987342756    12.000000000000
         C           -1.973907126815    -0.433729012995    -0.754974657244    12.000000000000
         C            0.490156873185    -0.381725012995     0.000000342756    12.000000000000
         C            2.897898873185     0.096695987005     0.000001342756    12.000000000000
         H           -2.676993126815     0.225512987005     1.252594342756     1.007825032230
         H           -1.720461126815    -1.353814012995     1.269437342756     1.007825032230
         H           -1.720498126815    -1.353814012995    -1.269441657244     1.007825032230
         H           -2.676998126815     0.225522987005    -1.252567657244     1.007825032230
         H            1.268501873185     1.494450987005     0.000000342756     1.007825032230
         H            3.414815873185     0.463195987005     0.891194342756     1.007825032230
         H            3.414794873185     0.463140987005    -0.891225657244     1.007825032230
         H            2.907757873185    -0.992880012995     0.000035342756     1.007825032230

  Basis Set: AUG-CC-PVTZ
    Blend: AUG-CC-PVTZ
  Basis Set: (AUG-CC-PVTZ AUX)
    Blend: AUG-CC-PVTZ-JKFIT
	 Reference Energy          =    -422.8819300372639987 [Eh]
	 Singles Energy            =      -0.0000000000000000 [Eh]
	 Same-Spin Energy          =      -0.4073160466776911 [Eh]
	 Opposite-Spin Energy      =      -1.2783426458307277 [Eh]
	 Correlation Energy        =      -1.6856586925084187 [Eh]
	 Total Energy              =    -424.5675887297724103 [Eh]

	 ================> DF-SCS-MP2 Energies <==================
	-----------------------------------------------------------
	 SCS Same-Spin Scale       =       0.3333333333333333 [-]
	 SCS Opposite-Spin Scale   =       1.2000000000000000 [-]
	 SCS Same-Spin Energy      =      -0.1357720155592304 [Eh]
	 SCS Opposite-Spin Energy  =      -1.5340111749968732 [Eh]
	 SCS Correlation Energy    =      -1.6697831905561036 [Eh]
	 SCS Total Energy          =    -424.5517132278201302 [Eh]
	-----------------------------------------------------------

  Dipole Moment: [D]
     X:     0.3084      Y:     1.9899      Z:     0.0000     Total:     2.0137

*** Psi4 exiting successfully. Buy a developer a beer!
