                               Psi4 1.3.2 release

  ==> Input File <==

--------------------------------------------------------------------------
#psi4
#
memory 32 gb

molecule  {
0 1
  F       -0.9363397     1.6432505    -0.0000089
  O        0.5963310    -1.5951230    -0.0000100
  N        1.4876940     0.5283410     0.0000080
  C       -0.8948090     0.2512980     0.0000000
  C       -1.9951030    -0.4179850     0.7549870
  C       -1.9951080    -0.4179870    -0.7549750
  C        0.4689560    -0.3659830     0.0000000
  C        2.8766980     0.1124380     0.0000010
  H       -2.6981940     0.2412550     1.2525940
  H       -1.7416620    -1.3380720     1.2694370
  H       -1.7416990    -1.3380720    -1.2694420
  H       -2.6981990     0.2412650    -1.2525680
  H        1.2473010     1.5101930     0.0000000
  H        3.3936150     0.4789380     0.8911940
  H        3.3935940     0.4788830    -0.8912260
  H        2.8865570    -0.9771380     0.0000350
units angstrom
no_reorient  #important for SAPT in psi4, default
symmetry c1  #important for SAPT in psi4, default
}

set PROPERTIES_ORIGIN ["COM"]
properties('MP2/aug-cc-pvtz', properties = ['dipole'])
--------------------------------------------------------------------------

    Molecular point group: c1
  Charge       = 0
  Multiplicity = 1
  Basis Set: AUG-CC-PVTZ
    Blend: AUG-CC-PVTZ
  Basis Set: (AUG-CC-PVTZ AUX)
    Blend: AUG-CC-PVTZ-JKFIT

    Orbital Energies [Eh]
    ---------------------

    Doubly Occupied:

       1A    -26.304765     2A    -20.522471     3A    -15.595125
       4A    -11.363321     5A    -11.334099     6A    -11.264044
       7A    -11.247486     8A    -11.246821     9A     -1.613011
      10A     -1.379843    11A     -1.238411    12A     -1.166259
      13A     -0.981616    14A     -0.876565    15A     -0.851228
      16A     -0.787615    17A     -0.767012    18A     -0.702486
      19A     -0.685910    20A     -0.650296    21A     -0.640997
      22A     -0.627866    23A     -0.625405    24A     -0.585804
      25A     -0.556283    26A     -0.550749    27A     -0.525913
      28A     -0.469374    29A     -0.432816    30A     -0.425121
      31A     -0.399079

  @DF-RHF Final Energy:  -422.88558847488252

   => Energetics <=

    Nuclear Repulsion Energy =            388.2563278703453875
    One-Electron Energy =               -1349.4482520565488812
    Two-Electron Energy =                 538.3063357113210259
    Total Energy =                       -422.8855884748825247
  Basis Set: (AUG-CC-PVTZ AUX)
    Blend: AUG-CC-PVTZ-RI
    Molecular point group: c1

    Geometry (in Angstrom), charge = 0, multiplicity = 1:

       Center              X                  Y                   Z               Mass
    ------------   -----------------  -----------------  -----------------  -----------------
         F           -0.903591150718     1.623287895166    -0.000008585436    18.998403162730
         O            0.629079549282    -1.615085604834    -0.000009685436    15.994914619570
         N            1.520442549282     0.508378395166     0.000008314564    14.003074004430
         C           -0.862060450718     0.231335395166     0.000000314564    12.000000000000
         C           -1.962354450718    -0.437947604834     0.754987314564    12.000000000000
         C           -1.962359450718    -0.437949604834    -0.754974685436    12.000000000000
         C            0.501704549282    -0.385945604834     0.000000314564    12.000000000000
         C            2.909446549282     0.092475395166     0.000001314564    12.000000000000
         H           -2.665445450718     0.221292395166     1.252594314564     1.007825032230
         H           -1.708913450718    -1.358034604834     1.269437314564     1.007825032230
         H           -1.708950450718    -1.358034604834    -1.269441685436     1.007825032230
         H           -2.665450450718     0.221302395166    -1.252567685436     1.007825032230
         H            1.280049549282     1.490230395166     0.000000314564     1.007825032230
         H            3.426363549282     0.458975395166     0.891194314564     1.007825032230
         H            3.426342549282     0.458920395166    -0.891225685436     1.007825032230
         H            2.919305549282    -0.997100604834     0.000035314564     1.007825032230

  Basis Set: AUG-CC-PVTZ
    Blend: AUG-CC-PVTZ
  Basis Set: (AUG-CC-PVTZ AUX)
    Blend: AUG-CC-PVTZ-JKFIT
	 Reference Energy          =    -422.8855884748825247 [Eh]
	 Singles Energy            =      -0.0000000000000000 [Eh]
	 Same-Spin Energy          =      -0.4068821111808973 [Eh]
	 Opposite-Spin Energy      =      -1.2778810468061113 [Eh]
	 Correlation Energy        =      -1.6847631579870086 [Eh]
	 Total Energy              =    -424.5703516328695173 [Eh]

	 ================> DF-SCS-MP2 Energies <==================
	-----------------------------------------------------------
	 SCS Same-Spin Scale       =       0.3333333333333333 [-]
	 SCS Opposite-Spin Scale   =       1.2000000000000000 [-]
	 SCS Same-Spin Energy      =      -0.1356273703936324 [Eh]
	 SCS Opposite-Spin Energy  =      -1.5334572561673334 [Eh]
	 SCS Correlation Energy    =      -1.6690846265609658 [Eh]
	 SCS Total Energy          =    -424.5546731014434840 [Eh]
	-----------------------------------------------------------

  Dipole Moment: [D]
     X:     0.5224      Y:     1.9396      Z:     0.0000     Total:     2.0088

*** Psi4 exiting successfully. Buy a developer a beer!
