                               Psi4 1.3.2 release

  ==> Input File <==

--------------------------------------------------------------------------
#psi4
#
memory 32 gb

molecule  {
0 1
  F       -0.8877360     1.6438520    -0.0000090
  O        0.5963310    -1.5951230    -0.0000100
  N        1.4876940     0.5283410     0.0000080
  C       -0.8948090     0.2512980     0.0000000
  C       -1.9951030    -0.4179850     0.7549870
  C       -1.9951080    -0.4179870    -0.7549750
  C        0.6511605    -0.4484542     0.0000000
  C        2.8766980     0.1124380     0.0000010
  H       -2.6981940     0.2412550     1.2525940
  H       -1.7416620    -1.3380720     1.2694370
  H       -1.7416990    -1.3380720    -1.2694420
  H       -2.6981990     0.2412650    -1.2525680
  H        1.2473010     1.5101930     0.0000000
  H        3.3936150     0.4789380     0.8911940
  H        3.3935940     0.4788830    -0.8912260
  H        2.8865570    -0.9771380     0.0000350
units angstrom
no_reorient  #important for SAPT in psi4, default
symmetry c1  #important for SAPT in psi4, default
}

set PROPERTIES_ORIGIN ["COM"]
properties('MP2/aug-cc-pvtz', properties = ['dipole'])
--------------------------------------------------------------------------

    Molecular point group: c1
  Charge       = 0
  Multiplicity = 1
  Basis Set: AUG-CC-PVTZ
    Blend: AUG-CC-PVTZ
  Basis Set: (AUG-CC-PVTZ AUX)
    Blend: AUG-CC-PVTZ-JKFIT

    Orbital Energies [Eh]
    ---------------------

    Doubly Occupied:

       1A    -26.289117     2A    -20.537561     3A    -15.603447
       4A    -11.361880     5A    -11.311542     6A    -11.270390
       7A    -11.230388     8A    -11.229732     9A     -1.596584
      10A     -1.442150    11A     -1.280980    12A     -1.142588
      13A     -0.978785    14A     -0.840655    15A     -0.834272
      16A     -0.819224    17A     -0.745818    18A     -0.689715
      19A     -0.671600    20A     -0.669383    21A     -0.649723
      22A     -0.643926    23A     -0.622827    24A     -0.581212
      25A     -0.574677    26A     -0.562571    27A     -0.518977
      28A     -0.472694    29A     -0.423041    30A     -0.416064
      31A     -0.383401

  @DF-RHF Final Energy:  -422.84905412187663

   => Energetics <=

    Nuclear Repulsion Energy =            388.3200878294189806
    One-Electron Energy =               -1349.5484323244172629
    Two-Electron Energy =                 538.3792903731216484
    Total Energy =                       -422.8490541218766339
  Basis Set: (AUG-CC-PVTZ AUX)
    Blend: AUG-CC-PVTZ-RI
    Molecular point group: c1

    Geometry (in Angstrom), charge = 0, multiplicity = 1:

       Center              X                  Y                   Z               Mass
    ------------   -----------------  -----------------  -----------------  -----------------
         F           -0.881553941967     1.632246095009    -0.000008669206    18.998403162730
         O            0.602513058033    -1.606728904991    -0.000009669206    15.994914619570
         N            1.493876058033     0.516735095009     0.000008330794    14.003074004430
         C           -0.888626941967     0.239692095009     0.000000330794    12.000000000000
         C           -1.988920941967    -0.429590904991     0.754987330794    12.000000000000
         C           -1.988925941967    -0.429592904991    -0.754974669206    12.000000000000
         C            0.657342558033    -0.460060104991     0.000000330794    12.000000000000
         C            2.882880058033     0.100832095009     0.000001330794    12.000000000000
         H           -2.692011941967     0.229649095009     1.252594330794     1.007825032230
         H           -1.735479941967    -1.349677904991     1.269437330794     1.007825032230
         H           -1.735516941967    -1.349677904991    -1.269441669206     1.007825032230
         H           -2.692016941967     0.229659095009    -1.252567669206     1.007825032230
         H            1.253483058033     1.498587095009     0.000000330794     1.007825032230
         H            3.399797058033     0.467332095009     0.891194330794     1.007825032230
         H            3.399776058033     0.467277095009    -0.891225669206     1.007825032230
         H            2.892739058033    -0.988743904991     0.000035330794     1.007825032230

  Basis Set: AUG-CC-PVTZ
    Blend: AUG-CC-PVTZ
  Basis Set: (AUG-CC-PVTZ AUX)
    Blend: AUG-CC-PVTZ-JKFIT
	 Reference Energy          =    -422.8490541218766339 [Eh]
	 Singles Energy            =      -0.0000000000000000 [Eh]
	 Same-Spin Energy          =      -0.4059199130861814 [Eh]
	 Opposite-Spin Energy      =      -1.2757607355726153 [Eh]
	 Correlation Energy        =      -1.6816806486587965 [Eh]
	 Total Energy              =    -424.5307347705354459 [Eh]

	 ================> DF-SCS-MP2 Energies <==================
	-----------------------------------------------------------
	 SCS Same-Spin Scale       =       0.3333333333333333 [-]
	 SCS Opposite-Spin Scale   =       1.2000000000000000 [-]
	 SCS Same-Spin Energy      =      -0.1353066376953938 [Eh]
	 SCS Opposite-Spin Energy  =      -1.5309128826871383 [Eh]
	 SCS Correlation Energy    =      -1.6662195203825321 [Eh]
	 SCS Total Energy          =    -424.5152736422591602 [Eh]
	-----------------------------------------------------------

  Dipole Moment: [D]
     X:     1.7091      Y:     1.6343      Z:     0.0000     Total:     2.3647

*** Psi4 exiting successfully. Buy a developer a beer!
