                               Psi4 1.3.2 release

  ==> Input File <==

--------------------------------------------------------------------------
#psi4
#
memory 32 gb

molecule  {
0 1
  F       -0.9848929     1.6409532    -0.0000087
  O        0.5963310    -1.5951230    -0.0000100
  N        1.4876940     0.5283410     0.0000080
  C       -0.8948090     0.2512980     0.0000000
  C       -1.9951030    -0.4179850     0.7549870
  C       -1.9951080    -0.4179870    -0.7549750
  C        0.4689560    -0.3659830     0.0000000
  C        2.8766980     0.1124380     0.0000010
  H       -2.6981940     0.2412550     1.2525940
  H       -1.7416620    -1.3380720     1.2694370
  H       -1.7416990    -1.3380720    -1.2694420
  H       -2.6981990     0.2412650    -1.2525680
  H        1.2473010     1.5101930     0.0000000
  H        3.3936150     0.4789380     0.8911940
  H        3.3935940     0.4788830    -0.8912260
  H        2.8865570    -0.9771380     0.0000350
units angstrom
no_reorient  #important for SAPT in psi4, default
symmetry c1  #important for SAPT in psi4, default
}

set PROPERTIES_ORIGIN ["COM"]
properties('MP2/aug-cc-pvtz', properties = ['dipole'])
--------------------------------------------------------------------------

    Molecular point group: c1
  Charge       = 0
  Multiplicity = 1
  Basis Set: AUG-CC-PVTZ
    Blend: AUG-CC-PVTZ
  Basis Set: (AUG-CC-PVTZ AUX)
    Blend: AUG-CC-PVTZ-JKFIT

    Orbital Energies [Eh]
    ---------------------

    Doubly Occupied:

       1A    -26.304139     2A    -20.523580     3A    -15.596301
       4A    -11.364973     5A    -11.333710     6A    -11.264742
       7A    -11.246546     8A    -11.245880     9A     -1.612406
      10A     -1.380874    11A     -1.239486    12A     -1.165466
      13A     -0.982223    14A     -0.876229    15A     -0.850756
      16A     -0.788780    17A     -0.767443    18A     -0.700888
      19A     -0.685125    20A     -0.651774    21A     -0.640763
      22A     -0.628818    23A     -0.623806    24A     -0.586881
      25A     -0.556791    26A     -0.551623    27A     -0.525374
      28A     -0.468887    29A     -0.432172    30A     -0.425368
      31A     -0.400073

  @DF-RHF Final Energy:  -422.88468226528607

   => Energetics <=

    Nuclear Repulsion Energy =            388.0085360928219984
    One-Electron Energy =               -1348.9426856973436770
    Two-Electron Energy =                 538.0494673392356617
    Total Energy =                       -422.8846822652860737
  Basis Set: (AUG-CC-PVTZ AUX)
    Blend: AUG-CC-PVTZ-RI
    Molecular point group: c1

    Geometry (in Angstrom), charge = 0, multiplicity = 1:

       Center              X                  Y                   Z               Mass
    ------------   -----------------  -----------------  -----------------  -----------------
         F           -0.944264278864     1.621363441633    -0.000008417896    18.998403162730
         O            0.636959621136    -1.614712758367    -0.000009717896    15.994914619570
         N            1.528322621136     0.508751241633     0.000008282104    14.003074004430
         C           -0.854180378864     0.231708241633     0.000000282104    12.000000000000
         C           -1.954474378864    -0.437574758367     0.754987282104    12.000000000000
         C           -1.954479378864    -0.437576758367    -0.754974717896    12.000000000000
         C            0.509584621136    -0.385572758367     0.000000282104    12.000000000000
         C            2.917326621136     0.092848241633     0.000001282104    12.000000000000
         H           -2.657565378864     0.221665241633     1.252594282104     1.007825032230
         H           -1.701033378864    -1.357661758367     1.269437282104     1.007825032230
         H           -1.701070378864    -1.357661758367    -1.269441717896     1.007825032230
         H           -2.657570378864     0.221675241633    -1.252567717896     1.007825032230
         H            1.287929621136     1.490603241633     0.000000282104     1.007825032230
         H            3.434243621136     0.459348241633     0.891194282104     1.007825032230
         H            3.434222621136     0.459293241633    -0.891225717896     1.007825032230
         H            2.927185621136    -0.996727758367     0.000035282104     1.007825032230

  Basis Set: AUG-CC-PVTZ
    Blend: AUG-CC-PVTZ
  Basis Set: (AUG-CC-PVTZ AUX)
    Blend: AUG-CC-PVTZ-JKFIT
	 Reference Energy          =    -422.8846822652860737 [Eh]
	 Singles Energy            =      -0.0000000000000000 [Eh]
	 Same-Spin Energy          =      -0.4069308740197835 [Eh]
	 Opposite-Spin Energy      =      -1.2780169387760583 [Eh]
	 Correlation Energy        =      -1.6849478127958417 [Eh]
	 Total Energy              =    -424.5696300780819001 [Eh]

	 ================> DF-SCS-MP2 Energies <==================
	-----------------------------------------------------------
	 SCS Same-Spin Scale       =       0.3333333333333333 [-]
	 SCS Opposite-Spin Scale   =       1.2000000000000000 [-]
	 SCS Same-Spin Energy      =      -0.1356436246732612 [Eh]
	 SCS Opposite-Spin Energy  =      -1.5336203265312698 [Eh]
	 SCS Correlation Energy    =      -1.6692639512045309 [Eh]
	 SCS Total Energy          =    -424.5539462164906013 [Eh]
	-----------------------------------------------------------

  Dipole Moment: [D]
     X:     0.6174      Y:     1.9353      Z:     0.0000     Total:     2.0314

*** Psi4 exiting successfully. Buy a developer a beer!
