                               Psi4 1.4a3.dev225

  ==> Input File <==

--------------------------------------------------------------------------
#psi4
#
memory 32 gb

molecule  {
0 1
  F       -0.8877360     1.6438520    -0.0000090
  O        0.5963310    -1.5951230    -0.0000100
  N        1.4876940     0.5283410     0.0000080
  C       -0.8949106     0.2312983     0.0000001
  C       -1.9951030    -0.4179850     0.7549870
  C       -1.9951080    -0.4179870    -0.7549750
  C        0.4689560    -0.3659830     0.0000000
  C        2.8766980     0.1124380     0.0000010
  H       -2.6981940     0.2412550     1.2525940
  H       -1.7416620    -1.3380720     1.2694370
  H       -1.7416990    -1.3380720    -1.2694420
  H       -2.6981990     0.2412650    -1.2525680
  H        1.2473010     1.5101930     0.0000000
  H        3.3936150     0.4789380     0.8911940
  H        3.3935940     0.4788830    -0.8912260
  H        2.8865570    -0.9771380     0.0000350
units angstrom
no_reorient  #important for SAPT in psi4, default
symmetry c1  #important for SAPT in psi4, default
}

set PROPERTIES_ORIGIN ["COM"]
properties('MP2/aug-cc-pvtz', properties = ['dipole'])
--------------------------------------------------------------------------

    Molecular point group: c1
  Charge       = 0
  Multiplicity = 1
  Basis Set: AUG-CC-PVTZ
    Blend: AUG-CC-PVTZ
  Basis Set: (AUG-CC-PVTZ AUX)
    Blend: AUG-CC-PVTZ-JKFIT

    Orbital Energies [Eh]
    ---------------------

    Doubly Occupied:

       1A    -26.300323     2A    -20.521703     3A    -15.594333
       4A    -11.362012     5A    -11.334584     6A    -11.263616
       7A    -11.248950     8A    -11.248286     9A     -1.603648
      10A     -1.379793    11A     -1.237558    12A     -1.171496
      13A     -0.981696    14A     -0.877560    15A     -0.853186
      16A     -0.785602    17A     -0.762498    18A     -0.701749
      19A     -0.680357    20A     -0.649324    21A     -0.640987
      22A     -0.627076    23A     -0.624869    24A     -0.585059
      25A     -0.557203    26A     -0.550043    27A     -0.526884
      28A     -0.470171    29A     -0.437732    30A     -0.426410
      31A     -0.398286

  @DF-RHF Final Energy:  -422.88498629891183

   => Energetics <=

    Nuclear Repulsion Energy =            388.5499596331514454
    One-Electron Energy =               -1350.0639056196509955
    Two-Electron Energy =                 538.6289596875876668
    Total Energy =                       -422.8849862989118265
  Basis Set: (AUG-CC-PVTZ AUX)
    Blend: AUG-CC-PVTZ-RI
    Molecular point group: c1

    Geometry (in Angstrom), charge = 0, multiplicity = 1:

       Center              X                  Y                   Z               Mass
    ------------   -----------------  -----------------  -----------------  -----------------
         F           -0.862865303343     1.625841990661    -0.000008679458    18.998403162730
         O            0.621201696657    -1.613133009339    -0.000009679458    15.994914619570
         N            1.512564696657     0.510330990661     0.000008320542    14.003074004430
         C           -0.870039903343     0.213288290661     0.000000420542    12.000000000000
         C           -1.970232303343    -0.435995009339     0.754987320542    12.000000000000
         C           -1.970237303343    -0.435997009339    -0.754974679458    12.000000000000
         C            0.493826696657    -0.383993009339     0.000000320542    12.000000000000
         C            2.901568696657     0.094427990661     0.000001320542    12.000000000000
         H           -2.673323303343     0.223244990661     1.252594320542     1.007825032230
         H           -1.716791303343    -1.356082009339     1.269437320542     1.007825032230
         H           -1.716828303343    -1.356082009339    -1.269441679458     1.007825032230
         H           -2.673328303343     0.223254990661    -1.252567679458     1.007825032230
         H            1.272171696657     1.492182990661     0.000000320542     1.007825032230
         H            3.418485696657     0.460927990661     0.891194320542     1.007825032230
         H            3.418464696657     0.460872990661    -0.891225679458     1.007825032230
         H            2.911427696657    -0.995148009339     0.000035320542     1.007825032230

  Basis Set: AUG-CC-PVTZ
    Blend: AUG-CC-PVTZ
  Basis Set: (AUG-CC-PVTZ AUX)
    Blend: AUG-CC-PVTZ-JKFIT
	 Reference Energy          =    -422.8849862989118265 [Eh]
	 Singles Energy            =      -0.0000000000000000 [Eh]
	 Same-Spin Energy          =      -0.4069698987103030 [Eh]
	 Opposite-Spin Energy      =      -1.2781791036567907 [Eh]
	 Correlation Energy        =      -1.6851490023670936 [Eh]
	 Total Energy              =    -424.5701353012789241 [Eh]

	 ================> DF-SCS-MP2 Energies <==================
	-----------------------------------------------------------
	 SCS Same-Spin Scale       =       0.3333333333333333 [-]
	 SCS Opposite-Spin Scale   =       1.2000000000000000 [-]
	 SCS Same-Spin Energy      =      -0.1356566329034343 [Eh]
	 SCS Opposite-Spin Energy  =      -1.5338149243881487 [Eh]
	 SCS Correlation Energy    =      -1.6694715572915830 [Eh]
	 SCS Total Energy          =    -424.5544578562033848 [Eh]
	-----------------------------------------------------------

  Dipole Moment: [D]
     X:     0.4189      Y:     1.8656      Z:     0.0000     Total:     1.9121

*** Psi4 exiting successfully. Buy a developer a beer!
