                               Psi4 1.4a3.dev225

  ==> Input File <==

--------------------------------------------------------------------------
#psi4
#
memory 32 gb

molecule  {
0 1
  F       -0.8877360     1.6438520    -0.0000090
  O        0.5963310    -1.5951230    -0.0000100
  N        1.4876940     0.5283410     0.0000080
  C       -0.8948090     0.2512980     0.0000000
  C       -1.9951030    -0.4179850     0.7549870
  C       -1.9951080    -0.4179870    -0.7549750
  C        0.4871765    -0.3742301     0.0000000
  C        2.8766980     0.1124380     0.0000010
  H       -2.6981940     0.2412550     1.2525940
  H       -1.7416620    -1.3380720     1.2694370
  H       -1.7416990    -1.3380720    -1.2694420
  H       -2.6981990     0.2412650    -1.2525680
  H        1.2473010     1.5101930     0.0000000
  H        3.3936150     0.4789380     0.8911940
  H        3.3935940     0.4788830    -0.8912260
  H        2.8865570    -0.9771380     0.0000350
units angstrom
no_reorient  #important for SAPT in psi4, default
symmetry c1  #important for SAPT in psi4, default
}

set PROPERTIES_ORIGIN ["COM"]
properties('MP2/aug-cc-pvtz', properties = ['dipole'])
--------------------------------------------------------------------------

    Molecular point group: c1
  Charge       = 0
  Multiplicity = 1
  Basis Set: AUG-CC-PVTZ
    Blend: AUG-CC-PVTZ
  Basis Set: (AUG-CC-PVTZ AUX)
    Blend: AUG-CC-PVTZ-JKFIT

    Orbital Energies [Eh]
    ---------------------

    Doubly Occupied:

       1A    -26.303973     2A    -20.522525     3A    -15.594520
       4A    -11.360947     5A    -11.333099     6A    -11.263853
       7A    -11.246615     8A    -11.245951     9A     -1.612230
      10A     -1.384991    11A     -1.241563    12A     -1.164506
      13A     -0.979980    14A     -0.872575    15A     -0.849998
      16A     -0.789797    17A     -0.764881    18A     -0.702373
      19A     -0.685286    20A     -0.649536    21A     -0.642001
      22A     -0.628816    23A     -0.627166    24A     -0.583527
      25A     -0.556594    26A     -0.551604    27A     -0.526290
      28A     -0.470540    29A     -0.432523    30A     -0.422265
      31A     -0.400242

  @DF-RHF Final Energy:  -422.88647535011188

   => Energetics <=

    Nuclear Repulsion Energy =            388.5103846280157427
    One-Electron Energy =               -1349.9721824442294746
    Two-Electron Energy =                 538.5753224661018521
    Total Energy =                       -422.8864753501118230
  Basis Set: (AUG-CC-PVTZ AUX)
    Blend: AUG-CC-PVTZ-RI
    Molecular point group: c1

    Geometry (in Angstrom), charge = 0, multiplicity = 1:

       Center              X                  Y                   Z               Mass
    ------------   -----------------  -----------------  -----------------  -----------------
         F           -0.864743546066     1.624637203249    -0.000008669206    18.998403162730
         O            0.619323453934    -1.614337796751    -0.000009669206    15.994914619570
         N            1.510686453934     0.509126203249     0.000008330794    14.003074004430
         C           -0.871816546066     0.232083203249     0.000000330794    12.000000000000
         C           -1.972110546066    -0.437199796751     0.754987330794    12.000000000000
         C           -1.972115546066    -0.437201796751    -0.754974669206    12.000000000000
         C            0.510168953934    -0.393444896751     0.000000330794    12.000000000000
         C            2.899690453934     0.093223203249     0.000001330794    12.000000000000
         H           -2.675201546066     0.222040203249     1.252594330794     1.007825032230
         H           -1.718669546066    -1.357286796751     1.269437330794     1.007825032230
         H           -1.718706546066    -1.357286796751    -1.269441669206     1.007825032230
         H           -2.675206546066     0.222050203249    -1.252567669206     1.007825032230
         H            1.270293453934     1.490978203249     0.000000330794     1.007825032230
         H            3.416607453934     0.459723203249     0.891194330794     1.007825032230
         H            3.416586453934     0.459668203249    -0.891225669206     1.007825032230
         H            2.909549453934    -0.996352796751     0.000035330794     1.007825032230

  Basis Set: AUG-CC-PVTZ
    Blend: AUG-CC-PVTZ
  Basis Set: (AUG-CC-PVTZ AUX)
    Blend: AUG-CC-PVTZ-JKFIT
	 Reference Energy          =    -422.8864753501118798 [Eh]
	 Singles Energy            =      -0.0000000000000000 [Eh]
	 Same-Spin Energy          =      -0.4065567089662548 [Eh]
	 Opposite-Spin Energy      =      -1.2771997301754101 [Eh]
	 Correlation Energy        =      -1.6837564391416651 [Eh]
	 Total Energy              =    -424.5702317892535689 [Eh]

	 ================> DF-SCS-MP2 Energies <==================
	-----------------------------------------------------------
	 SCS Same-Spin Scale       =       0.3333333333333333 [-]
	 SCS Opposite-Spin Scale   =       1.2000000000000000 [-]
	 SCS Same-Spin Energy      =      -0.1355189029887516 [Eh]
	 SCS Opposite-Spin Energy  =      -1.5326396762104921 [Eh]
	 SCS Correlation Energy    =      -1.6681585791992437 [Eh]
	 SCS Total Energy          =    -424.5546339293111373 [Eh]
	-----------------------------------------------------------

  Dipole Moment: [D]
     X:     0.5429      Y:     1.9243      Z:     0.0000     Total:     1.9994

*** Psi4 exiting successfully. Buy a developer a beer!
