                               Psi4 1.3.2 release

  ==> Input File <==

--------------------------------------------------------------------------
#psi4
#
memory 32 gb

molecule  {
0 1
  F       -0.9277734     1.6432069    -0.0275639
  O        0.5963310    -1.5951230    -0.0000100
  N        1.4876940     0.5283410     0.0000080
  C       -0.8948090     0.2512980     0.0000000
  C       -1.9951030    -0.4179850     0.7549870
  C       -1.9951080    -0.4179870    -0.7549750
  C        0.4689560    -0.3659830     0.0000000
  C        2.8766980     0.1124380     0.0000010
  H       -2.6981940     0.2412550     1.2525940
  H       -1.7416620    -1.3380720     1.2694370
  H       -1.7416990    -1.3380720    -1.2694420
  H       -2.6981990     0.2412650    -1.2525680
  H        1.2473010     1.5101930     0.0000000
  H        3.3936150     0.4789380     0.8911940
  H        3.3935940     0.4788830    -0.8912260
  H        2.8865570    -0.9771380     0.0000350
units angstrom
no_reorient  #important for SAPT in psi4, default
symmetry c1  #important for SAPT in psi4, default
}

set PROPERTIES_ORIGIN ["COM"]
properties('MP2/aug-cc-pvtz', properties = ['dipole'])
--------------------------------------------------------------------------

    Molecular point group: c1
  Charge       = 0
  Multiplicity = 1
  Basis Set: AUG-CC-PVTZ
    Blend: AUG-CC-PVTZ
  Basis Set: (AUG-CC-PVTZ AUX)
    Blend: AUG-CC-PVTZ-JKFIT

    Orbital Energies [Eh]
    ---------------------

    Doubly Occupied:

       1A    -26.304857     2A    -20.522271     3A    -15.594909
       4A    -11.363025     5A    -11.334162     6A    -11.263916
       7A    -11.248021     8A    -11.246619     9A     -1.613125
      10A     -1.379655    11A     -1.238217    12A     -1.166395
      13A     -0.981507    14A     -0.876632    15A     -0.851316
      16A     -0.787402    17A     -0.766930    18A     -0.702758
      19A     -0.686048    20A     -0.650057    21A     -0.641066
      22A     -0.627703    23A     -0.625607    24A     -0.585609
      25A     -0.556190    26A     -0.550589    27A     -0.525994
      28A     -0.469478    29A     -0.432895    30A     -0.425060
      31A     -0.398897

  @DF-RHF Final Energy:  -422.88562525910885

   => Energetics <=

    Nuclear Repulsion Energy =            388.3058616197500328
    One-Electron Energy =               -1349.5491542767229021
    Two-Electron Energy =                 538.3576673978641338
    Total Energy =                       -422.8856252591087923
  Basis Set: (AUG-CC-PVTZ AUX)
    Blend: AUG-CC-PVTZ-RI
    Molecular point group: c1

    Geometry (in Angstrom), charge = 0, multiplicity = 1:

       Center              X                  Y                   Z               Mass
    ------------   -----------------  -----------------  -----------------  -----------------
         F           -0.896415141358     1.623251371345    -0.023091472786    18.998403162730
         O            0.627689258642    -1.615078528655     0.004462427214    15.994914619570
         N            1.519052258642     0.508385471345     0.004480427214    14.003074004430
         C           -0.863450741358     0.231342471345     0.004472427214    12.000000000000
         C           -1.963744741358    -0.437940528655     0.759459427214    12.000000000000
         C           -1.963749741358    -0.437942528655    -0.750502572786    12.000000000000
         C            0.500314258642    -0.385938528655     0.004472427214    12.000000000000
         C            2.908056258642     0.092482471345     0.004473427214    12.000000000000
         H           -2.666835741358     0.221299471345     1.257066427214     1.007825032230
         H           -1.710303741358    -1.358027528655     1.273909427214     1.007825032230
         H           -1.710340741358    -1.358027528655    -1.264969572786     1.007825032230
         H           -2.666840741358     0.221309471345    -1.248095572786     1.007825032230
         H            1.278659258642     1.490237471345     0.004472427214     1.007825032230
         H            3.424973258642     0.458982471345     0.895666427214     1.007825032230
         H            3.424952258642     0.458927471345    -0.886753572786     1.007825032230
         H            2.917915258642    -0.997093528655     0.004507427214     1.007825032230

  Basis Set: AUG-CC-PVTZ
    Blend: AUG-CC-PVTZ
  Basis Set: (AUG-CC-PVTZ AUX)
    Blend: AUG-CC-PVTZ-JKFIT
	 Reference Energy          =    -422.8856252591088491 [Eh]
	 Singles Energy            =      -0.0000000000000000 [Eh]
	 Same-Spin Energy          =      -0.4068780848911480 [Eh]
	 Opposite-Spin Energy      =      -1.2778664960598864 [Eh]
	 Correlation Energy        =      -1.6847445809510344 [Eh]
	 Total Energy              =    -424.5703698400598682 [Eh]

	 ================> DF-SCS-MP2 Energies <==================
	-----------------------------------------------------------
	 SCS Same-Spin Scale       =       0.3333333333333333 [-]
	 SCS Opposite-Spin Scale   =       1.2000000000000000 [-]
	 SCS Same-Spin Energy      =      -0.1356260282970493 [Eh]
	 SCS Opposite-Spin Energy  =      -1.5334397952718637 [Eh]
	 SCS Correlation Energy    =      -1.6690658235689131 [Eh]
	 SCS Total Energy          =    -424.5546910826777776 [Eh]
	-----------------------------------------------------------

  Dipole Moment: [D]
     X:     0.5054      Y:     1.9410      Z:     0.0288     Total:     2.0060

*** Psi4 exiting successfully. Buy a developer a beer!
