                               Psi4 1.3.2 release

  ==> Input File <==

--------------------------------------------------------------------------
#psi4
#
memory 32 gb

molecule  {
0 1
  F       -0.8677175     1.6435383     0.0137706
  O        0.5963310    -1.5951230    -0.0000100
  N        1.4876940     0.5283410     0.0000080
  C       -0.8948090     0.2512980     0.0000000
  C       -1.9951030    -0.4179850     0.7549870
  C       -1.9951080    -0.4179870    -0.7549750
  C        0.4689560    -0.3659830     0.0000000
  C        2.8766980     0.1124380     0.0000010
  H       -2.6981940     0.2412550     1.2525940
  H       -1.7416620    -1.3380720     1.2694370
  H       -1.7416990    -1.3380720    -1.2694420
  H       -2.6981990     0.2412650    -1.2525680
  H        1.2473010     1.5101930     0.0000000
  H        3.3936150     0.4789380     0.8911940
  H        3.3935940     0.4788830    -0.8912260
  H        2.8865570    -0.9771380     0.0000350
units angstrom
no_reorient  #important for SAPT in psi4, default
symmetry c1  #important for SAPT in psi4, default
}

set PROPERTIES_ORIGIN ["COM"]
properties('MP2/aug-cc-pvtz', properties = ['dipole'])
--------------------------------------------------------------------------

    Molecular point group: c1
  Charge       = 0
  Multiplicity = 1
  Basis Set: AUG-CC-PVTZ
    Blend: AUG-CC-PVTZ
  Basis Set: (AUG-CC-PVTZ AUX)
    Blend: AUG-CC-PVTZ-JKFIT

    Orbital Energies [Eh]
    ---------------------

    Doubly Occupied:

       1A    -26.305535     2A    -20.520855     3A    -15.593328
       4A    -11.360943     5A    -11.334653     6A    -11.262982
       7A    -11.248950     8A    -11.248042     9A     -1.614054
      10A     -1.378325    11A     -1.236816    12A     -1.167352
      13A     -0.980736    14A     -0.877153    15A     -0.851937
      16A     -0.785863    17A     -0.766490    18A     -0.704687
      19A     -0.687095    20A     -0.648551    21A     -0.641825
      22A     -0.626558    23A     -0.626375    24A     -0.584148
      25A     -0.555594    26A     -0.549415    27A     -0.526540
      28A     -0.470165    29A     -0.433732    30A     -0.424575
      31A     -0.397584

  @DF-RHF Final Energy:  -422.88581333662097

   => Energetics <=

    Nuclear Repulsion Energy =            388.6714513791386594
    One-Electron Energy =               -1350.2928112046056413
    Two-Electron Energy =                 538.7355464888458982
    Total Energy =                       -422.8858133366210268
  Basis Set: (AUG-CC-PVTZ AUX)
    Blend: AUG-CC-PVTZ-RI
    Molecular point group: c1

    Geometry (in Angstrom), charge = 0, multiplicity = 1:

       Center              X                  Y                   Z               Mass
    ------------   -----------------  -----------------  -----------------  -----------------
         F           -0.846106174768     1.623528985893     0.011534533643    18.998403162730
         O            0.617942325232    -1.615132314107    -0.002246066357    15.994914619570
         N            1.509305325232     0.508331685893    -0.002228066357    14.003074004430
         C           -0.873197674768     0.231288685893    -0.002236066357    12.000000000000
         C           -1.973491674768    -0.437994314107     0.752750933643    12.000000000000
         C           -1.973496674768    -0.437996314107    -0.757211066357    12.000000000000
         C            0.490567325232    -0.385992314107    -0.002236066357    12.000000000000
         C            2.898309325232     0.092428685893    -0.002235066357    12.000000000000
         H           -2.676582674768     0.221245685893     1.250357933643     1.007825032230
         H           -1.720050674768    -1.358081314107     1.267200933643     1.007825032230
         H           -1.720087674768    -1.358081314107    -1.271678066357     1.007825032230
         H           -2.676587674768     0.221255685893    -1.254804066357     1.007825032230
         H            1.268912325232     1.490183685893    -0.002236066357     1.007825032230
         H            3.415226325232     0.458928685893     0.888957933643     1.007825032230
         H            3.415205325232     0.458873685893    -0.893462066357     1.007825032230
         H            2.908168325232    -0.997147314107    -0.002201066357     1.007825032230

  Basis Set: AUG-CC-PVTZ
    Blend: AUG-CC-PVTZ
  Basis Set: (AUG-CC-PVTZ AUX)
    Blend: AUG-CC-PVTZ-JKFIT
	 Reference Energy          =    -422.8858133366209699 [Eh]
	 Singles Energy            =      -0.0000000000000000 [Eh]
	 Same-Spin Energy          =      -0.4068614550285869 [Eh]
	 Opposite-Spin Energy      =      -1.2777720573187283 [Eh]
	 Correlation Energy        =      -1.6846335123473153 [Eh]
	 Total Energy              =    -424.5704468489682881 [Eh]

	 ================> DF-SCS-MP2 Energies <==================
	-----------------------------------------------------------
	 SCS Same-Spin Scale       =       0.3333333333333333 [-]
	 SCS Opposite-Spin Scale   =       1.2000000000000000 [-]
	 SCS Same-Spin Energy      =      -0.1356204850095290 [Eh]
	 SCS Opposite-Spin Energy  =      -1.5333264687824739 [Eh]
	 SCS Correlation Energy    =      -1.6689469537920030 [Eh]
	 SCS Total Energy          =    -424.5547602904129576 [Eh]
	-----------------------------------------------------------

  Dipole Moment: [D]
     X:     0.3855      Y:     1.9513      Z:    -0.0143     Total:     1.9891

*** Psi4 exiting successfully. Buy a developer a beer!
