                               Psi4 1.3.2 release

  ==> Input File <==

--------------------------------------------------------------------------
#psi4
#
memory 32 gb

molecule  {
0 1
  F       -0.8477072     1.6428005     0.0275459
  O        0.5963310    -1.5951230    -0.0000100
  N        1.4876940     0.5283410     0.0000080
  C       -0.8948090     0.2512980     0.0000000
  C       -1.9951030    -0.4179850     0.7549870
  C       -1.9951080    -0.4179870    -0.7549750
  C        0.4689560    -0.3659830     0.0000000
  C        2.8766980     0.1124380     0.0000010
  H       -2.6981940     0.2412550     1.2525940
  H       -1.7416620    -1.3380720     1.2694370
  H       -1.7416990    -1.3380720    -1.2694420
  H       -2.6981990     0.2412650    -1.2525680
  H        1.2473010     1.5101930     0.0000000
  H        3.3936150     0.4789380     0.8911940
  H        3.3935940     0.4788830    -0.8912260
  H        2.8865570    -0.9771380     0.0000350
units angstrom
no_reorient  #important for SAPT in psi4, default
symmetry c1  #important for SAPT in psi4, default
}

set PROPERTIES_ORIGIN ["COM"]
properties('MP2/aug-cc-pvtz', properties = ['dipole'])
--------------------------------------------------------------------------

    Molecular point group: c1
  Charge       = 0
  Multiplicity = 1
  Basis Set: AUG-CC-PVTZ
    Blend: AUG-CC-PVTZ
  Basis Set: (AUG-CC-PVTZ AUX)
    Blend: AUG-CC-PVTZ-JKFIT

    Orbital Energies [Eh]
    ---------------------

    Doubly Occupied:

       1A    -26.305726     2A    -20.520372     3A    -15.592772
       4A    -11.360238     5A    -11.334813     6A    -11.262653
       7A    -11.249594     8A    -11.248187     9A     -1.614399
      10A     -1.377867    11A     -1.236334    12A     -1.167663
      13A     -0.980473    14A     -0.877354    15A     -0.852154
      16A     -0.785332    17A     -0.766348    18A     -0.705312
      19A     -0.687456    20A     -0.648187    21A     -0.642141
      22A     -0.626570    23A     -0.625947    24A     -0.583637
      25A     -0.555398    26A     -0.549002    27A     -0.526689
      28A     -0.470425    29A     -0.433979    30A     -0.424371
      31A     -0.397126

  @DF-RHF Final Energy:  -422.88560067870014

   => Energetics <=

    Nuclear Repulsion Energy =            388.8083025502554619
    One-Electron Energy =               -1350.5707641254944065
    Two-Electron Energy =                 538.8768608965388012
    Total Energy =                       -422.8856006787001434
  Basis Set: (AUG-CC-PVTZ AUX)
    Blend: AUG-CC-PVTZ-RI
    Molecular point group: c1

    Geometry (in Angstrom), charge = 0, multiplicity = 1:

       Center              X                  Y                   Z               Mass
    ------------   -----------------  -----------------  -----------------  -----------------
         F           -0.829343500091     1.622910929123     0.023074134373    18.998403162730
         O            0.614694699909    -1.615012570877    -0.004481765627    15.994914619570
         N            1.506057699909     0.508451429123    -0.004463765627    14.003074004430
         C           -0.876445300091     0.231408429123    -0.004471765627    12.000000000000
         C           -1.976739300091    -0.437874570877     0.750515234373    12.000000000000
         C           -1.976744300091    -0.437876570877    -0.759446765627    12.000000000000
         C            0.487319699909    -0.385872570877    -0.004471765627    12.000000000000
         C            2.895061699909     0.092548429123    -0.004470765627    12.000000000000
         H           -2.679830300091     0.221365429123     1.248122234373     1.007825032230
         H           -1.723298300091    -1.357961570877     1.264965234373     1.007825032230
         H           -1.723335300091    -1.357961570877    -1.273913765627     1.007825032230
         H           -2.679835300091     0.221375429123    -1.257039765627     1.007825032230
         H            1.265664699909     1.490303429123    -0.004471765627     1.007825032230
         H            3.411978699909     0.459048429123     0.886722234373     1.007825032230
         H            3.411957699909     0.458993429123    -0.895697765627     1.007825032230
         H            2.904920699909    -0.997027570877    -0.004436765627     1.007825032230

  Basis Set: AUG-CC-PVTZ
    Blend: AUG-CC-PVTZ
  Basis Set: (AUG-CC-PVTZ AUX)
    Blend: AUG-CC-PVTZ-JKFIT
	 Reference Energy          =    -422.8856006787001434 [Eh]
	 Singles Energy            =      -0.0000000000000000 [Eh]
	 Same-Spin Energy          =      -0.4068674716850514 [Eh]
	 Opposite-Spin Energy      =      -1.2777619155748610 [Eh]
	 Correlation Energy        =      -1.6846293872599123 [Eh]
	 Total Energy              =    -424.5702300659600610 [Eh]

	 ================> DF-SCS-MP2 Energies <==================
	-----------------------------------------------------------
	 SCS Same-Spin Scale       =       0.3333333333333333 [-]
	 SCS Opposite-Spin Scale   =       1.2000000000000000 [-]
	 SCS Same-Spin Energy      =      -0.1356224905616838 [Eh]
	 SCS Opposite-Spin Energy  =      -1.5333142986898332 [Eh]
	 SCS Correlation Energy    =      -1.6689367892515170 [Eh]
	 SCS Total Energy          =    -424.5545374679516613 [Eh]
	-----------------------------------------------------------

  Dipole Moment: [D]
     X:     0.3450      Y:     1.9561      Z:    -0.0287     Total:     1.9865

*** Psi4 exiting successfully. Buy a developer a beer!
