                               Psi4 1.3.2 release

  ==> Input File <==

--------------------------------------------------------------------------
#psi4
#
memory 32 gb

molecule  {
0 1
  F       -0.8877360     1.6438520    -0.0000090
  O        0.6177631    -1.5927128    -0.0000099
  N        1.4876940     0.5283410     0.0000080
  C       -0.8948090     0.2512980     0.0000000
  C       -1.9951030    -0.4179850     0.7549870
  C       -1.9951080    -0.4179870    -0.7549750
  C        0.4689560    -0.3659830     0.0000000
  C        2.8766980     0.1124380     0.0000010
  H       -2.6981940     0.2412550     1.2525940
  H       -1.7416620    -1.3380720     1.2694370
  H       -1.7416990    -1.3380720    -1.2694420
  H       -2.6981990     0.2412650    -1.2525680
  H        1.2473010     1.5101930     0.0000000
  H        3.3936150     0.4789380     0.8911940
  H        3.3935940     0.4788830    -0.8912260
  H        2.8865570    -0.9771380     0.0000350
units angstrom
no_reorient  #important for SAPT in psi4, default
symmetry c1  #important for SAPT in psi4, default
}

set PROPERTIES_ORIGIN ["COM"]
properties('MP2/aug-cc-pvtz', properties = ['dipole'])
--------------------------------------------------------------------------

    Molecular point group: c1
  Charge       = 0
  Multiplicity = 1
  Basis Set: AUG-CC-PVTZ
    Blend: AUG-CC-PVTZ
  Basis Set: (AUG-CC-PVTZ AUX)
    Blend: AUG-CC-PVTZ-JKFIT

    Orbital Energies [Eh]
    ---------------------

    Doubly Occupied:

       1A    -26.306107     2A    -20.520993     3A    -15.592809
       4A    -11.361503     5A    -11.335577     6A    -11.262429
       7A    -11.249199     8A    -11.248534     9A     -1.614401
      10A     -1.378810    11A     -1.235910    12A     -1.167993
      13A     -0.980699    14A     -0.877197    15A     -0.852428
      16A     -0.785748    17A     -0.767123    18A     -0.704583
      19A     -0.687402    20A     -0.649280    21A     -0.641482
      22A     -0.626357    23A     -0.626319    24A     -0.585098
      25A     -0.555548    26A     -0.548698    27A     -0.526955
      28A     -0.470331    29A     -0.434261    30A     -0.425054
      31A     -0.397117

  @DF-RHF Final Energy:  -422.88582765424087

   => Energetics <=

    Nuclear Repulsion Energy =            388.4823553170238029
    One-Electron Energy =               -1349.9044741194766175
    Two-Electron Energy =                 538.5362911482119443
    Total Energy =                       -422.8858276542408703
  Basis Set: (AUG-CC-PVTZ AUX)
    Blend: AUG-CC-PVTZ-RI
    Molecular point group: c1

    Geometry (in Angstrom), charge = 0, multiplicity = 1:

       Center              X                  Y                   Z               Mass
    ------------   -----------------  -----------------  -----------------  -----------------
         F           -0.865804195978     1.623462443918    -0.000008682870    18.998403162730
         O            0.639694904022    -1.613102356082    -0.000009582870    15.994914619570
         N            1.509625804022     0.507951443918     0.000008317130    14.003074004430
         C           -0.872877195978     0.230908443918     0.000000317130    12.000000000000
         C           -1.973171195978    -0.438374556082     0.754987317130    12.000000000000
         C           -1.973176195978    -0.438376556082    -0.754974682870    12.000000000000
         C            0.490887804022    -0.386372556082     0.000000317130    12.000000000000
         C            2.898629804022     0.092048443918     0.000001317130    12.000000000000
         H           -2.676262195978     0.220865443918     1.252594317130     1.007825032230
         H           -1.719730195978    -1.358461556082     1.269437317130     1.007825032230
         H           -1.719767195978    -1.358461556082    -1.269441682870     1.007825032230
         H           -2.676267195978     0.220875443918    -1.252567682870     1.007825032230
         H            1.269232804022     1.489803443918     0.000000317130     1.007825032230
         H            3.415546804022     0.458548443918     0.891194317130     1.007825032230
         H            3.415525804022     0.458493443918    -0.891225682870     1.007825032230
         H            2.908488804022    -0.997527556082     0.000035317130     1.007825032230

  Basis Set: AUG-CC-PVTZ
    Blend: AUG-CC-PVTZ
  Basis Set: (AUG-CC-PVTZ AUX)
    Blend: AUG-CC-PVTZ-JKFIT
	 Reference Energy          =    -422.8858276542408703 [Eh]
	 Singles Energy            =      -0.0000000000000000 [Eh]
	 Same-Spin Energy          =      -0.4068721525220079 [Eh]
	 Opposite-Spin Energy      =      -1.2777964491372522 [Eh]
	 Correlation Energy        =      -1.6846686016592600 [Eh]
	 Total Energy              =    -424.5704962559001387 [Eh]

	 ================> DF-SCS-MP2 Energies <==================
	-----------------------------------------------------------
	 SCS Same-Spin Scale       =       0.3333333333333333 [-]
	 SCS Opposite-Spin Scale   =       1.2000000000000000 [-]
	 SCS Same-Spin Energy      =      -0.1356240508406693 [Eh]
	 SCS Opposite-Spin Energy  =      -1.5333557389647026 [Eh]
	 SCS Correlation Energy    =      -1.6689797898053720 [Eh]
	 SCS Total Energy          =    -424.5548074440462187 [Eh]
	-----------------------------------------------------------

  Dipole Moment: [D]
     X:     0.3522      Y:     1.9447      Z:     0.0000     Total:     1.9763

*** Psi4 exiting successfully. Buy a developer a beer!
