                               Psi4 1.3.2 release

  ==> Input File <==

--------------------------------------------------------------------------
#psi4
#
memory 32 gb

molecule  {
0 1
  F       -0.8877360     1.6438520    -0.0000090
  O        0.5963310    -1.5951230    -0.0000100
  N        1.4876940     0.5283410     0.0000080
  C       -0.8953169     0.1512993     0.0000006
  C       -1.9951030    -0.4179850     0.7549870
  C       -1.9951080    -0.4179870    -0.7549750
  C        0.4689560    -0.3659830     0.0000000
  C        2.8766980     0.1124380     0.0000010
  H       -2.6981940     0.2412550     1.2525940
  H       -1.7416620    -1.3380720     1.2694370
  H       -1.7416990    -1.3380720    -1.2694420
  H       -2.6981990     0.2412650    -1.2525680
  H        1.2473010     1.5101930     0.0000000
  H        3.3936150     0.4789380     0.8911940
  H        3.3935940     0.4788830    -0.8912260
  H        2.8865570    -0.9771380     0.0000350
units angstrom
no_reorient  #important for SAPT in psi4, default
symmetry c1  #important for SAPT in psi4, default
}

set PROPERTIES_ORIGIN ["COM"]
properties('MP2/aug-cc-pvtz', properties = ['dipole'])
--------------------------------------------------------------------------

    Molecular point group: c1
  Charge       = 0
  Multiplicity = 1
  Basis Set: AUG-CC-PVTZ
    Blend: AUG-CC-PVTZ
  Basis Set: (AUG-CC-PVTZ AUX)
    Blend: AUG-CC-PVTZ-JKFIT

    Orbital Energies [Eh]
    ---------------------

    Doubly Occupied:

       1A    -26.279288     2A    -20.523566     3A    -15.596212
       4A    -11.363714     5A    -11.336230     6A    -11.264878
       7A    -11.251143     8A    -11.250478     9A     -1.566421
      10A     -1.384378    11A     -1.238668    12A     -1.189084
      13A     -0.984666    14A     -0.882416    15A     -0.859688
      16A     -0.785306    17A     -0.747420    18A     -0.696804
      19A     -0.657068    20A     -0.651157    21A     -0.636494
      22A     -0.626760    23A     -0.615362    24A     -0.583616
      25A     -0.563577    26A     -0.550864    27A     -0.528892
      28A     -0.470874    29A     -0.452877    30A     -0.432083
      31A     -0.399400

  @DF-RHF Final Energy:  -422.87409783462061

   => Energetics <=

    Nuclear Repulsion Energy =            388.6220655216855562
    One-Electron Energy =               -1350.2535595961041963
    Two-Electron Energy =                 538.7573962397980267
    Total Energy =                       -422.8740978346206703
  Basis Set: (AUG-CC-PVTZ AUX)
    Blend: AUG-CC-PVTZ-RI
    Molecular point group: c1

    Geometry (in Angstrom), charge = 0, multiplicity = 1:

       Center              X                  Y                   Z               Mass
    ------------   -----------------  -----------------  -----------------  -----------------
         F           -0.862823652549     1.634042881367    -0.000008730714    18.998403162730
         O            0.621243347451    -1.604932118633    -0.000009730714    15.994914619570
         N            1.512606347451     0.518531881367     0.000008269286    14.003074004430
         C           -0.870404552549     0.141490181367     0.000000869286    12.000000000000
         C           -1.970190652549    -0.427794118633     0.754987269286    12.000000000000
         C           -1.970195652549    -0.427796118633    -0.754974730714    12.000000000000
         C            0.493868347451    -0.375792118633     0.000000269286    12.000000000000
         C            2.901610347451     0.102628881367     0.000001269286    12.000000000000
         H           -2.673281652549     0.231445881367     1.252594269286     1.007825032230
         H           -1.716749652549    -1.347881118633     1.269437269286     1.007825032230
         H           -1.716786652549    -1.347881118633    -1.269441730714     1.007825032230
         H           -2.673286652549     0.231455881367    -1.252567730714     1.007825032230
         H            1.272213347451     1.500383881367     0.000000269286     1.007825032230
         H            3.418527347451     0.469128881367     0.891194269286     1.007825032230
         H            3.418506347451     0.469073881367    -0.891225730714     1.007825032230
         H            2.911469347451    -0.986947118633     0.000035269286     1.007825032230

  Basis Set: AUG-CC-PVTZ
    Blend: AUG-CC-PVTZ
  Basis Set: (AUG-CC-PVTZ AUX)
    Blend: AUG-CC-PVTZ-JKFIT
	 Reference Energy          =    -422.8740978346206134 [Eh]
	 Singles Energy            =      -0.0000000000000000 [Eh]
	 Same-Spin Energy          =      -0.4076487589745409 [Eh]
	 Opposite-Spin Energy      =      -1.2800548921010950 [Eh]
	 Correlation Energy        =      -1.6877036510756360 [Eh]
	 Total Energy              =    -424.5618014856962645 [Eh]

	 ================> DF-SCS-MP2 Energies <==================
	-----------------------------------------------------------
	 SCS Same-Spin Scale       =       0.3333333333333333 [-]
	 SCS Opposite-Spin Scale   =       1.2000000000000000 [-]
	 SCS Same-Spin Energy      =      -0.1358829196581803 [Eh]
	 SCS Opposite-Spin Energy  =      -1.5360658705213139 [Eh]
	 SCS Correlation Energy    =      -1.6719487901794943 [Eh]
	 SCS Total Energy          =    -424.5460466248001126 [Eh]
	-----------------------------------------------------------

  Dipole Moment: [D]
     X:     0.3997      Y:     1.5351      Z:     0.0000     Total:     1.5863

*** Psi4 exiting successfully. Buy a developer a beer!
