                               Psi4 1.3.2 release

  ==> Input File <==

--------------------------------------------------------------------------
#psi4
#
memory 32 gb

molecule  {
0 1
  F       -0.8877360     1.6438520    -0.0000090
  O        0.5963310    -1.5951230    -0.0000100
  N        1.4876940     0.5283410     0.0000080
  C       -0.8948090     0.2512980     0.0000000
  C       -1.9951030    -0.4179850     0.7549870
  C       -2.0877446    -0.3017004    -0.7068840
  C        0.4689560    -0.3659830     0.0000000
  C        2.8766980     0.1124380     0.0000010
  H       -2.6981940     0.2412550     1.2525940
  H       -1.7416620    -1.3380720     1.2694370
  H       -1.7416990    -1.3380720    -1.2694420
  H       -2.6981990     0.2412650    -1.2525680
  H        1.2473010     1.5101930     0.0000000
  H        3.3936150     0.4789380     0.8911940
  H        3.3935940     0.4788830    -0.8912260
  H        2.8865570    -0.9771380     0.0000350
units angstrom
no_reorient  #important for SAPT in psi4, default
symmetry c1  #important for SAPT in psi4, default
}

set PROPERTIES_ORIGIN ["COM"]
properties('MP2/aug-cc-pvtz', properties = ['dipole'])
--------------------------------------------------------------------------

    Molecular point group: c1
  Charge       = 0
  Multiplicity = 1
  Basis Set: AUG-CC-PVTZ
    Blend: AUG-CC-PVTZ
  Basis Set: (AUG-CC-PVTZ AUX)
    Blend: AUG-CC-PVTZ-JKFIT

    Orbital Energies [Eh]
    ---------------------

    Doubly Occupied:

       1A    -26.301241     2A    -20.522453     3A    -15.594670
       4A    -11.363759     5A    -11.333208     6A    -11.263874
       7A    -11.249884     8A    -11.248770     9A     -1.611637
      10A     -1.379371    11A     -1.238013    12A     -1.173979
      13A     -0.982855    14A     -0.880771    15A     -0.854715
      16A     -0.787275    17A     -0.762615    18A     -0.713183
      19A     -0.685328    20A     -0.656908    21A     -0.638704
      22A     -0.627512    23A     -0.620259    24A     -0.586835
      25A     -0.556530    26A     -0.550260    27A     -0.515422
      28A     -0.473082    29A     -0.430167    30A     -0.422790
      31A     -0.398146

  @DF-RHF Final Energy:  -422.85854820480768

   => Energetics <=

    Nuclear Repulsion Energy =            388.5215789835563669
    One-Electron Energy =               -1349.9118245895899690
    Two-Electron Energy =                 538.5316974012259834
    Total Energy =                       -422.8585482048076756
  Basis Set: (AUG-CC-PVTZ AUX)
    Blend: AUG-CC-PVTZ-RI
    Molecular point group: c1

    Geometry (in Angstrom), charge = 0, multiplicity = 1:

       Center              X                  Y                   Z               Mass
    ------------   -----------------  -----------------  -----------------  -----------------
         F           -0.853379316999     1.611870952884    -0.004938593768    18.998403162730
         O            0.630687683001    -1.627104047116    -0.004939593768    15.994914619570
         N            1.522050683001     0.496359952884    -0.004921593768    14.003074004430
         C           -0.860452316999     0.219316952884    -0.004929593768    12.000000000000
         C           -1.960746316999    -0.449966047116     0.750057406232    12.000000000000
         C           -2.053387916999    -0.333681447116    -0.711813593768    12.000000000000
         C            0.503312683001    -0.397964047116    -0.004929593768    12.000000000000
         C            2.911054683001     0.080456952884    -0.004928593768    12.000000000000
         H           -2.663837316999     0.209273952884     1.247664406232     1.007825032230
         H           -1.707305316999    -1.370053047116     1.264507406232     1.007825032230
         H           -1.707342316999    -1.370053047116    -1.274371593768     1.007825032230
         H           -2.663842316999     0.209283952884    -1.257497593768     1.007825032230
         H            1.281657683001     1.478211952884    -0.004929593768     1.007825032230
         H            3.427971683001     0.446956952884     0.886264406232     1.007825032230
         H            3.427950683001     0.446901952884    -0.896155593768     1.007825032230
         H            2.920913683001    -1.009119047116    -0.004894593768     1.007825032230

  Basis Set: AUG-CC-PVTZ
    Blend: AUG-CC-PVTZ
  Basis Set: (AUG-CC-PVTZ AUX)
    Blend: AUG-CC-PVTZ-JKFIT
	 Reference Energy          =    -422.8585482048076756 [Eh]
	 Singles Energy            =      -0.0000000000000000 [Eh]
	 Same-Spin Energy          =      -0.4073442368701857 [Eh]
	 Opposite-Spin Energy      =      -1.2789750307778456 [Eh]
	 Correlation Energy        =      -1.6863192676480314 [Eh]
	 Total Energy              =    -424.5448674724557350 [Eh]

	 ================> DF-SCS-MP2 Energies <==================
	-----------------------------------------------------------
	 SCS Same-Spin Scale       =       0.3333333333333333 [-]
	 SCS Opposite-Spin Scale   =       1.2000000000000000 [-]
	 SCS Same-Spin Energy      =      -0.1357814122900619 [Eh]
	 SCS Opposite-Spin Energy  =      -1.5347700369334147 [Eh]
	 SCS Correlation Energy    =      -1.6705514492234768 [Eh]
	 SCS Total Energy          =    -424.5290996540311426 [Eh]
	-----------------------------------------------------------

  Dipole Moment: [D]
     X:     0.4386      Y:     1.9861      Z:     0.0532     Total:     2.0346

*** Psi4 exiting successfully. Buy a developer a beer!
