                               Psi4 1.3.2 release

  ==> Input File <==

--------------------------------------------------------------------------
#psi4
#
memory 32 gb

molecule  {
0 1
  F       -0.8877360     1.6438520    -0.0000090
  O        0.5963310    -1.5951230    -0.0000100
  N        1.4876940     0.5283410     0.0000080
  C       -0.8937932     0.4512954    -0.0000013
  C       -1.9951030    -0.4179850     0.7549870
  C       -1.9951080    -0.4179870    -0.7549750
  C        0.4689560    -0.3659830     0.0000000
  C        2.8766980     0.1124380     0.0000010
  H       -2.6981940     0.2412550     1.2525940
  H       -1.7416620    -1.3380720     1.2694370
  H       -1.7416990    -1.3380720    -1.2694420
  H       -2.6981990     0.2412650    -1.2525680
  H        1.2473010     1.5101930     0.0000000
  H        3.3936150     0.4789380     0.8911940
  H        3.3935940     0.4788830    -0.8912260
  H        2.8865570    -0.9771380     0.0000350
units angstrom
no_reorient  #important for SAPT in psi4, default
symmetry c1  #important for SAPT in psi4, default
}

set PROPERTIES_ORIGIN ["COM"]
properties('MP2/aug-cc-pvtz', properties = ['dipole'])
--------------------------------------------------------------------------

    Molecular point group: c1
  Charge       = 0
  Multiplicity = 1
  Basis Set: AUG-CC-PVTZ
    Blend: AUG-CC-PVTZ
  Basis Set: (AUG-CC-PVTZ AUX)
    Blend: AUG-CC-PVTZ-JKFIT

    Orbital Energies [Eh]
    ---------------------

    Doubly Occupied:

       1A    -26.355699     2A    -20.518796     3A    -15.589624
       4A    -11.358028     5A    -11.342151     6A    -11.260248
       7A    -11.242249     8A    -11.241589     9A     -1.742289
      10A     -1.370526    11A     -1.234760    12A     -1.122245
      13A     -0.976047    14A     -0.906381    15A     -0.844173
      16A     -0.819007    17A     -0.791016    18A     -0.760091
      19A     -0.736525    20A     -0.644323    21A     -0.641809
      22A     -0.626687    23A     -0.623733    24A     -0.568987
      25A     -0.547233    26A     -0.544694    27A     -0.520191
      28A     -0.466157    29A     -0.400843    30A     -0.396782
      31A     -0.381351

  @DF-RHF Final Energy:  -422.83766871345199

   => Energetics <=

    Nuclear Repulsion Energy =            388.8590769236326992
    One-Electron Energy =               -1350.2450244876190482
    Two-Electron Energy =                 538.5482788505343024
    Total Energy =                       -422.8376687134519898
  Basis Set: (AUG-CC-PVTZ AUX)
    Blend: AUG-CC-PVTZ-RI
    Molecular point group: c1

    Geometry (in Angstrom), charge = 0, multiplicity = 1:

       Center              X                  Y                   Z               Mass
    ------------   -----------------  -----------------  -----------------  -----------------
         F           -0.862979850716     1.603289556594    -0.000008535940    18.998403162730
         O            0.621087149284    -1.635685443406    -0.000009535940    15.994914619570
         N            1.512450149284     0.487778556594     0.000008464060    14.003074004430
         C           -0.869037050716     0.410732956594    -0.000000835940    12.000000000000
         C           -1.970346850716    -0.458547443406     0.754987464060    12.000000000000
         C           -1.970351850716    -0.458549443406    -0.754974535940    12.000000000000
         C            0.493712149284    -0.406545443406     0.000000464060    12.000000000000
         C            2.901454149284     0.071875556594     0.000001464060    12.000000000000
         H           -2.673437850716     0.200692556594     1.252594464060     1.007825032230
         H           -1.716905850716    -1.378634443406     1.269437464060     1.007825032230
         H           -1.716942850716    -1.378634443406    -1.269441535940     1.007825032230
         H           -2.673442850716     0.200702556594    -1.252567535940     1.007825032230
         H            1.272057149284     1.469630556594     0.000000464060     1.007825032230
         H            3.418371149284     0.438375556594     0.891194464060     1.007825032230
         H            3.418350149284     0.438320556594    -0.891225535940     1.007825032230
         H            2.911313149284    -1.017700443406     0.000035464060     1.007825032230

  Basis Set: AUG-CC-PVTZ
    Blend: AUG-CC-PVTZ
  Basis Set: (AUG-CC-PVTZ AUX)
    Blend: AUG-CC-PVTZ-JKFIT
	 Reference Energy          =    -422.8376687134519898 [Eh]
	 Singles Energy            =      -0.0000000000000000 [Eh]
	 Same-Spin Energy          =      -0.4074064141471608 [Eh]
	 Opposite-Spin Energy      =      -1.2768851862301096 [Eh]
	 Correlation Energy        =      -1.6842916003772703 [Eh]
	 Total Energy              =    -424.5219603138292541 [Eh]

	 ================> DF-SCS-MP2 Energies <==================
	-----------------------------------------------------------
	 SCS Same-Spin Scale       =       0.3333333333333333 [-]
	 SCS Opposite-Spin Scale   =       1.2000000000000000 [-]
	 SCS Same-Spin Energy      =      -0.1358021380490536 [Eh]
	 SCS Opposite-Spin Energy  =      -1.5322622234761314 [Eh]
	 SCS Correlation Energy    =      -1.6680643615251849 [Eh]
	 SCS Total Energy          =    -424.5057330749771722 [Eh]
	-----------------------------------------------------------

  Dipole Moment: [D]
     X:     0.5566      Y:     2.8459      Z:     0.0000     Total:     2.8998

*** Psi4 exiting successfully. Buy a developer a beer!
