                               Psi4 1.3.2 release

  ==> Input File <==

--------------------------------------------------------------------------
#psi4
#
memory 32 gb

molecule  {
0 1
  F       -0.9077567     1.6437415    -0.0137886
  O        0.5963310    -1.5951230    -0.0000100
  N        1.4876940     0.5283410     0.0000080
  C       -0.8948090     0.2512980     0.0000000
  C       -1.9951030    -0.4179850     0.7549870
  C       -1.9951080    -0.4179870    -0.7549750
  C        0.4689560    -0.3659830     0.0000000
  C        2.8766980     0.1124380     0.0000010
  H       -2.6981940     0.2412550     1.2525940
  H       -1.7416620    -1.3380720     1.2694370
  H       -1.7416990    -1.3380720    -1.2694420
  H       -2.6981990     0.2412650    -1.2525680
  H        1.2473010     1.5101930     0.0000000
  H        3.3936150     0.4789380     0.8911940
  H        3.3935940     0.4788830    -0.8912260
  H        2.8865570    -0.9771380     0.0000350
units angstrom
no_reorient  #important for SAPT in psi4, default
symmetry c1  #important for SAPT in psi4, default
}

set PROPERTIES_ORIGIN ["COM"]
properties('MP2/aug-cc-pvtz', properties = ['dipole'])
--------------------------------------------------------------------------

    Molecular point group: c1
  Charge       = 0
  Multiplicity = 1
  Basis Set: AUG-CC-PVTZ
    Blend: AUG-CC-PVTZ
  Basis Set: (AUG-CC-PVTZ AUX)
    Blend: AUG-CC-PVTZ-JKFIT

    Orbital Energies [Eh]
    ---------------------

    Doubly Occupied:

       1A    -26.305100     2A    -20.521805     3A    -15.594397
       4A    -11.362337     5A    -11.334328     6A    -11.263613
       7A    -11.248164     8A    -11.247256     9A     -1.613417
      10A     -1.379219    11A     -1.237758    12A     -1.166717
      13A     -0.981253    14A     -0.876793    15A     -0.851518
      16A     -0.786899    17A     -0.766780    18A     -0.703410
      19A     -0.686391    20A     -0.649504    21A     -0.641272
      22A     -0.627289    23A     -0.626036    24A     -0.585134
      25A     -0.555990    26A     -0.550208    27A     -0.526192
      28A     -0.469691    29A     -0.433190    30A     -0.424920
      31A     -0.398469

  @DF-RHF Final Energy:  -422.88582432295510

   => Energetics <=

    Nuclear Repulsion Energy =            388.4202374609843673
    One-Electron Energy =               -1349.7820172913118313
    Two-Electron Energy =                 538.4759555073724187
    Total Energy =                       -422.8858243229550453
  Basis Set: (AUG-CC-PVTZ AUX)
    Blend: AUG-CC-PVTZ-RI
    Molecular point group: c1

    Geometry (in Angstrom), charge = 0, multiplicity = 1:

       Center              X                  Y                   Z               Mass
    ------------   -----------------  -----------------  -----------------  -----------------
         F           -0.879647105386     1.623699207004    -0.011551872056    18.998403162730
         O            0.624440594614    -1.615165292996     0.002226727944    15.994914619570
         N            1.515803594614     0.508298707004     0.002244727944    14.003074004430
         C           -0.866699405386     0.231255707004     0.002236727944    12.000000000000
         C           -1.966993405386    -0.438027292996     0.757223727944    12.000000000000
         C           -1.966998405386    -0.438029292996    -0.752738272056    12.000000000000
         C            0.497065594614    -0.386025292996     0.002236727944    12.000000000000
         C            2.904807594614     0.092395707004     0.002237727944    12.000000000000
         H           -2.670084405386     0.221212707004     1.254830727944     1.007825032230
         H           -1.713552405386    -1.358114292996     1.271673727944     1.007825032230
         H           -1.713589405386    -1.358114292996    -1.267205272056     1.007825032230
         H           -2.670089405386     0.221222707004    -1.250331272056     1.007825032230
         H            1.275410594614     1.490150707004     0.002236727944     1.007825032230
         H            3.421724594614     0.458895707004     0.893430727944     1.007825032230
         H            3.421703594614     0.458840707004    -0.888989272056     1.007825032230
         H            2.914666594614    -0.997180292996     0.002271727944     1.007825032230

  Basis Set: AUG-CC-PVTZ
    Blend: AUG-CC-PVTZ
  Basis Set: (AUG-CC-PVTZ AUX)
    Blend: AUG-CC-PVTZ-JKFIT
	 Reference Energy          =    -422.8858243229551022 [Eh]
	 Singles Energy            =      -0.0000000000000000 [Eh]
	 Same-Spin Energy          =      -0.4068668036163214 [Eh]
	 Opposite-Spin Energy      =      -1.2778244637360812 [Eh]
	 Correlation Energy        =      -1.6846912673524026 [Eh]
	 Total Energy              =    -424.5705155903074797 [Eh]

	 ================> DF-SCS-MP2 Energies <==================
	-----------------------------------------------------------
	 SCS Same-Spin Scale       =       0.3333333333333333 [-]
	 SCS Opposite-Spin Scale   =       1.2000000000000000 [-]
	 SCS Same-Spin Energy      =      -0.1356222678721071 [Eh]
	 SCS Opposite-Spin Energy  =      -1.5333893564832974 [Eh]
	 SCS Correlation Energy    =      -1.6690116243554045 [Eh]
	 SCS Total Energy          =    -424.5548359473104938 [Eh]
	-----------------------------------------------------------

  Dipole Moment: [D]
     X:     0.4657      Y:     1.9438      Z:     0.0144     Total:     1.9989

*** Psi4 exiting successfully. Buy a developer a beer!
