                               Psi4 1.3.2 release

  ==> Input File <==

--------------------------------------------------------------------------
#psi4
#
memory 32 gb

molecule  {
0 1
  F       -0.8877360     1.6438520    -0.0000090
  O        0.5963310    -1.5951230    -0.0000100
  N        1.4876940     0.5283410     0.0000080
  C       -0.8958248     0.0513006     0.0000013
  C       -1.9951030    -0.4179850     0.7549870
  C       -1.9951080    -0.4179870    -0.7549750
  C        0.4689560    -0.3659830     0.0000000
  C        2.8766980     0.1124380     0.0000010
  H       -2.6981940     0.2412550     1.2525940
  H       -1.7416620    -1.3380720     1.2694370
  H       -1.7416990    -1.3380720    -1.2694420
  H       -2.6981990     0.2412650    -1.2525680
  H        1.2473010     1.5101930     0.0000000
  H        3.3936150     0.4789380     0.8911940
  H        3.3935940     0.4788830    -0.8912260
  H        2.8865570    -0.9771380     0.0000350
units angstrom
no_reorient  #important for SAPT in psi4, default
symmetry c1  #important for SAPT in psi4, default
}

set PROPERTIES_ORIGIN ["COM"]
properties('MP2/aug-cc-pvtz', properties = ['dipole'])
--------------------------------------------------------------------------

    Molecular point group: c1
  Charge       = 0
  Multiplicity = 1
  Basis Set: AUG-CC-PVTZ
    Blend: AUG-CC-PVTZ
  Basis Set: (AUG-CC-PVTZ AUX)
    Blend: AUG-CC-PVTZ-JKFIT

    Orbital Energies [Eh]
    ---------------------

    Doubly Occupied:

       1A    -26.249814     2A    -20.527001     3A    -15.598579
       4A    -11.366575     5A    -11.340866     6A    -11.266466
       7A    -11.254489     8A    -11.253824     9A     -1.524635
      10A     -1.391464    11A     -1.240228    12A     -1.210164
      13A     -0.988556    14A     -0.891332    15A     -0.869124
      16A     -0.787203    17A     -0.738108    18A     -0.697207
      19A     -0.654350    20A     -0.641343    21A     -0.630050
      22A     -0.615132    23A     -0.595014    24A     -0.574070
      25A     -0.572811    26A     -0.551416    27A     -0.531572
      28A     -0.470713    29A     -0.466834    30A     -0.437507
      31A     -0.401126

  @DF-RHF Final Energy:  -422.84745475680978

   => Energetics <=

    Nuclear Repulsion Energy =            388.7623945133282177
    One-Electron Energy =               -1350.5445562503682595
    Two-Electron Energy =                 538.9347069802302030
    Total Energy =                       -422.8474547568098387
  Basis Set: (AUG-CC-PVTZ AUX)
    Blend: AUG-CC-PVTZ-RI
    Molecular point group: c1

    Geometry (in Angstrom), charge = 0, multiplicity = 1:

       Center              X                  Y                   Z               Mass
    ------------   -----------------  -----------------  -----------------  -----------------
         F           -0.862771586493     1.644293989625    -0.000008802472    18.998403162730
         O            0.621295413507    -1.594681010375    -0.000009802472    15.994914619570
         N            1.512658413507     0.528782989625     0.000008197528    14.003074004430
         C           -0.870860386493     0.051742589625     0.000001497528    12.000000000000
         C           -1.970138586493    -0.417543010375     0.754987197528    12.000000000000
         C           -1.970143586493    -0.417545010375    -0.754974802472    12.000000000000
         C            0.493920413507    -0.365541010375     0.000000197528    12.000000000000
         C            2.901662413507     0.112879989625     0.000001197528    12.000000000000
         H           -2.673229586493     0.241696989625     1.252594197528     1.007825032230
         H           -1.716697586493    -1.337630010375     1.269437197528     1.007825032230
         H           -1.716734586493    -1.337630010375    -1.269441802472     1.007825032230
         H           -2.673234586493     0.241706989625    -1.252567802472     1.007825032230
         H            1.272265413507     1.510634989625     0.000000197528     1.007825032230
         H            3.418579413507     0.479379989625     0.891194197528     1.007825032230
         H            3.418558413507     0.479324989625    -0.891225802472     1.007825032230
         H            2.911521413507    -0.976696010375     0.000035197528     1.007825032230

  Basis Set: AUG-CC-PVTZ
    Blend: AUG-CC-PVTZ
  Basis Set: (AUG-CC-PVTZ AUX)
    Blend: AUG-CC-PVTZ-JKFIT
	 Reference Energy          =    -422.8474547568097819 [Eh]
	 Singles Energy            =      -0.0000000000000000 [Eh]
	 Same-Spin Energy          =      -0.4089314567628004 [Eh]
	 Opposite-Spin Energy      =      -1.2827691198616020 [Eh]
	 Correlation Energy        =      -1.6917005766244024 [Eh]
	 Total Energy              =    -424.5391553334341666 [Eh]

	 ================> DF-SCS-MP2 Energies <==================
	-----------------------------------------------------------
	 SCS Same-Spin Scale       =       0.3333333333333333 [-]
	 SCS Opposite-Spin Scale   =       1.2000000000000000 [-]
	 SCS Same-Spin Energy      =      -0.1363104855876001 [Eh]
	 SCS Opposite-Spin Energy  =      -1.5393229438339224 [Eh]
	 SCS Correlation Energy    =      -1.6756334294215225 [Eh]
	 SCS Total Energy          =    -424.5230881862312913 [Eh]
	-----------------------------------------------------------

  Dipole Moment: [D]
     X:     0.3949      Y:     1.0888      Z:     0.0000     Total:     1.1582

*** Psi4 exiting successfully. Buy a developer a beer!
