                               Psi4 1.3.2 release

  ==> Input File <==

--------------------------------------------------------------------------
#psi4
#
memory 32 gb

molecule  {
0 1
  F       -0.8877360     1.6438520    -0.0000090
  O        0.5963310    -1.5951230    -0.0000100
  N        1.4876940     0.5283410     0.0000080
  C       -0.8948090     0.2512980     0.0000000
  C       -1.9951030    -0.4179850     0.7549870
  C       -1.9951080    -0.4179870    -0.7549750
  C        0.4689560    -0.3659830     0.0000000
  C        2.8766980     0.1124380     0.0000010
  H       -2.6981940     0.2412550     1.2525940
  H       -1.7416620    -1.3380720     1.2694370
  H       -1.7416990    -1.3380720    -1.2694420
  H       -2.6981990     0.2412650    -1.2525680
  H        1.2473010     1.5101930     0.0000000
  H        3.3936150     0.4789380     0.8911940
  H        3.3935940     0.4788830    -0.8912260
  H        2.8865570    -0.9771380     0.0000350
units angstrom
no_reorient  #important for SAPT in psi4, default
symmetry c1  #important for SAPT in psi4, default
}

set PROPERTIES_ORIGIN ["COM"]
properties('MP2/aug-cc-pvtz', properties = ['dipole'])
--------------------------------------------------------------------------

    Molecular point group: c1
  Charge       = 0
  Multiplicity = 1
  Basis Set: AUG-CC-PVTZ
    Blend: AUG-CC-PVTZ
  Basis Set: (AUG-CC-PVTZ AUX)
    Blend: AUG-CC-PVTZ-JKFIT

    Orbital Energies [Eh]
    ---------------------

    Doubly Occupied:

       1A    -26.305326     2A    -20.521332     3A    -15.593870
       4A    -11.361643     5A    -11.334491     6A    -11.263301
       7A    -11.248434     8A    -11.247770     9A     -1.613727
      10A     -1.378775    11A     -1.237291    12A     -1.167036
      13A     -0.980996    14A     -0.876967    15A     -0.851725
      16A     -0.786386    17A     -0.766634    18A     -0.704053
      19A     -0.686740    20A     -0.648997    21A     -0.641529
      22A     -0.626867    23A     -0.626335    24A     -0.584647
      25A     -0.555792    26A     -0.549817    27A     -0.526375
      28A     -0.469920    29A     -0.433469    30A     -0.424758
      31A     -0.398032

  @DF-RHF Final Energy:  -422.88588739222956

   => Energetics <=

    Nuclear Repulsion Energy =            388.5420986586260597
    One-Electron Energy =               -1350.0298993616336247
    Two-Electron Energy =                 538.6019133107779453
    Total Energy =                       -422.8858873922296198
  Basis Set: (AUG-CC-PVTZ AUX)
    Blend: AUG-CC-PVTZ-RI
    Molecular point group: c1

    Geometry (in Angstrom), charge = 0, multiplicity = 1:

       Center              X                  Y                   Z               Mass
    ------------   -----------------  -----------------  -----------------  -----------------
         F           -0.862875718604     1.623791773110    -0.000008669206    18.998403162730
         O            0.621191281396    -1.615183226890    -0.000009669206    15.994914619570
         N            1.512554281396     0.508280773110     0.000008330794    14.003074004430
         C           -0.869948718604     0.231237773110     0.000000330794    12.000000000000
         C           -1.970242718604    -0.438045226890     0.754987330794    12.000000000000
         C           -1.970247718604    -0.438047226890    -0.754974669206    12.000000000000
         C            0.493816281396    -0.386043226890     0.000000330794    12.000000000000
         C            2.901558281396     0.092377773110     0.000001330794    12.000000000000
         H           -2.673333718604     0.221194773110     1.252594330794     1.007825032230
         H           -1.716801718604    -1.358132226890     1.269437330794     1.007825032230
         H           -1.716838718604    -1.358132226890    -1.269441669206     1.007825032230
         H           -2.673338718604     0.221204773110    -1.252567669206     1.007825032230
         H            1.272161281396     1.490132773110     0.000000330794     1.007825032230
         H            3.418475281396     0.458877773110     0.891194330794     1.007825032230
         H            3.418454281396     0.458822773110    -0.891225669206     1.007825032230
         H            2.911417281396    -0.997198226890     0.000035330794     1.007825032230

  Basis Set: AUG-CC-PVTZ
    Blend: AUG-CC-PVTZ
  Basis Set: (AUG-CC-PVTZ AUX)
    Blend: AUG-CC-PVTZ-JKFIT
	 Reference Energy          =    -422.8858873922295629 [Eh]
	 Singles Energy            =      -0.0000000000000000 [Eh]
	 Same-Spin Energy          =      -0.4068612480101889 [Eh]
	 Opposite-Spin Energy      =      -1.2777929477395413 [Eh]
	 Correlation Energy        =      -1.6846541957497303 [Eh]
	 Total Energy              =    -424.5705415879792781 [Eh]

	 ================> DF-SCS-MP2 Energies <==================
	-----------------------------------------------------------
	 SCS Same-Spin Scale       =       0.3333333333333333 [-]
	 SCS Opposite-Spin Scale   =       1.2000000000000000 [-]
	 SCS Same-Spin Energy      =      -0.1356204160033963 [Eh]
	 SCS Opposite-Spin Energy  =      -1.5333515372874496 [Eh]
	 SCS Correlation Energy    =      -1.6689719532908458 [Eh]
	 SCS Total Energy          =    -424.5548593455204127 [Eh]
	-----------------------------------------------------------

  Dipole Moment: [D]
     X:     0.4258      Y:     1.9472      Z:     0.0000     Total:     1.9932

*** Psi4 exiting successfully. Buy a developer a beer!
