                               Psi4 1.3.2 release

  ==> Input File <==

--------------------------------------------------------------------------
#psi4
#
memory 32 gb

molecule  {
0 1
  F       -0.8877360     1.6438520    -0.0000090
  O        0.5963310    -1.5951230    -0.0000100
  N        1.4876940     0.5283410     0.0000080
  C       -0.8948090     0.2512980     0.0000000
  C       -1.9951030    -0.4179850     0.7549870
  C       -1.9951080    -0.4179870    -0.7549750
  C        0.5600583    -0.4072186     0.0000000
  C        2.8766980     0.1124380     0.0000010
  H       -2.6981940     0.2412550     1.2525940
  H       -1.7416620    -1.3380720     1.2694370
  H       -1.7416990    -1.3380720    -1.2694420
  H       -2.6981990     0.2412650    -1.2525680
  H        1.2473010     1.5101930     0.0000000
  H        3.3936150     0.4789380     0.8911940
  H        3.3935940     0.4788830    -0.8912260
  H        2.8865570    -0.9771380     0.0000350
units angstrom
no_reorient  #important for SAPT in psi4, default
symmetry c1  #important for SAPT in psi4, default
}

set PROPERTIES_ORIGIN ["COM"]
properties('MP2/aug-cc-pvtz', properties = ['dipole'])
--------------------------------------------------------------------------

    Molecular point group: c1
  Charge       = 0
  Multiplicity = 1
  Basis Set: AUG-CC-PVTZ
    Blend: AUG-CC-PVTZ
  Basis Set: (AUG-CC-PVTZ AUX)
    Blend: AUG-CC-PVTZ-JKFIT

    Orbital Energies [Eh]
    ---------------------

    Doubly Occupied:

       1A    -26.298053     2A    -20.527975     3A    -15.597637
       4A    -11.359410     5A    -11.325675     6A    -11.266293
       7A    -11.239509     8A    -11.238850     9A     -1.605849
      10A     -1.410140    11A     -1.258844    12A     -1.154726
      13A     -0.978066    14A     -0.855631    15A     -0.843163
      16A     -0.804288    17A     -0.756483    18A     -0.695878
      19A     -0.679269    20A     -0.656274    21A     -0.643985
      22A     -0.637404    23A     -0.626518    24A     -0.580024
      25A     -0.562706    26A     -0.557678    27A     -0.524332
      28A     -0.472888    29A     -0.427339    30A     -0.409204
      31A     -0.408292

  @DF-RHF Final Energy:  -422.87865274896467

   => Energetics <=

    Nuclear Repulsion Energy =            388.4142486443745952
    One-Electron Energy =               -1349.7810403592864077
    Two-Electron Energy =                 538.4881389659472006
    Total Energy =                       -422.8786527489646687
  Basis Set: (AUG-CC-PVTZ AUX)
    Blend: AUG-CC-PVTZ-RI
    Molecular point group: c1

    Geometry (in Angstrom), charge = 0, multiplicity = 1:

       Center              X                  Y                   Z               Mass
    ------------   -----------------  -----------------  -----------------  -----------------
         F           -0.872214835411     1.628018934059    -0.000008669206    18.998403162730
         O            0.611852164589    -1.610956065941    -0.000009669206    15.994914619570
         N            1.503215164589     0.512507934059     0.000008330794    14.003074004430
         C           -0.879287835411     0.235464934059     0.000000330794    12.000000000000
         C           -1.979581835411    -0.433818065941     0.754987330794    12.000000000000
         C           -1.979586835411    -0.433820065941    -0.754974669206    12.000000000000
         C            0.575579464589    -0.423051665941     0.000000330794    12.000000000000
         C            2.892219164589     0.096604934059     0.000001330794    12.000000000000
         H           -2.682672835411     0.225421934059     1.252594330794     1.007825032230
         H           -1.726140835411    -1.353905065941     1.269437330794     1.007825032230
         H           -1.726177835411    -1.353905065941    -1.269441669206     1.007825032230
         H           -2.682677835411     0.225431934059    -1.252567669206     1.007825032230
         H            1.262822164589     1.494359934059     0.000000330794     1.007825032230
         H            3.409136164589     0.463104934059     0.891194330794     1.007825032230
         H            3.409115164589     0.463049934059    -0.891225669206     1.007825032230
         H            2.902078164589    -0.992971065941     0.000035330794     1.007825032230

  Basis Set: AUG-CC-PVTZ
    Blend: AUG-CC-PVTZ
  Basis Set: (AUG-CC-PVTZ AUX)
    Blend: AUG-CC-PVTZ-JKFIT
	 Reference Energy          =    -422.8786527489646687 [Eh]
	 Singles Energy            =      -0.0000000000000000 [Eh]
	 Same-Spin Energy          =      -0.4058177923779232 [Eh]
	 Opposite-Spin Energy      =      -1.2757149151593938 [Eh]
	 Correlation Energy        =      -1.6815327075373170 [Eh]
	 Total Energy              =    -424.5601854565019835 [Eh]

	 ================> DF-SCS-MP2 Energies <==================
	-----------------------------------------------------------
	 SCS Same-Spin Scale       =       0.3333333333333333 [-]
	 SCS Opposite-Spin Scale   =       1.2000000000000000 [-]
	 SCS Same-Spin Energy      =      -0.1352725974593077 [Eh]
	 SCS Opposite-Spin Energy  =      -1.5308578981912726 [Eh]
	 SCS Correlation Energy    =      -1.6661304956505802 [Eh]
	 SCS Total Energy          =    -424.5447832446152461 [Eh]
	-----------------------------------------------------------

  Dipole Moment: [D]
     X:     1.0289      Y:     1.8156      Z:     0.0000     Total:     2.0869

*** Psi4 exiting successfully. Buy a developer a beer!
