                               Psi4 1.3.2 release

  ==> Input File <==

--------------------------------------------------------------------------
#psi4
#
memory 32 gb

molecule  {
0 1
  F       -0.8634337     1.6435165    -0.0000091
  O        0.5963310    -1.5951230    -0.0000100
  N        1.4876940     0.5283410     0.0000080
  C       -0.8948090     0.2512980     0.0000000
  C       -1.9951030    -0.4179850     0.7549870
  C       -1.9951080    -0.4179870    -0.7549750
  C        0.4689560    -0.3659830     0.0000000
  C        2.8766980     0.1124380     0.0000010
  H       -2.6981940     0.2412550     1.2525940
  H       -1.7416620    -1.3380720     1.2694370
  H       -1.7416990    -1.3380720    -1.2694420
  H       -2.6981990     0.2412650    -1.2525680
  H        1.2473010     1.5101930     0.0000000
  H        3.3936150     0.4789380     0.8911940
  H        3.3935940     0.4788830    -0.8912260
  H        2.8865570    -0.9771380     0.0000350
units angstrom
no_reorient  #important for SAPT in psi4, default
symmetry c1  #important for SAPT in psi4, default
}

set PROPERTIES_ORIGIN ["COM"]
properties('MP2/aug-cc-pvtz', properties = ['dipole'])
--------------------------------------------------------------------------

    Molecular point group: c1
  Charge       = 0
  Multiplicity = 1
  Basis Set: AUG-CC-PVTZ
    Blend: AUG-CC-PVTZ
  Basis Set: (AUG-CC-PVTZ AUX)
    Blend: AUG-CC-PVTZ-JKFIT

    Orbital Energies [Eh]
    ---------------------

    Doubly Occupied:

       1A    -26.305582     2A    -20.520752     3A    -15.593211
       4A    -11.360794     5A    -11.334689     6A    -11.262912
       7A    -11.248912     8A    -11.248248     9A     -1.614128
      10A     -1.378228    11A     -1.236714    12A     -1.167419
      13A     -0.980680    14A     -0.877195    15A     -0.851983
      16A     -0.785750    17A     -0.766464    18A     -0.704824
      19A     -0.687174    20A     -0.648464    21A     -0.641893
      22A     -0.626509    23A     -0.626349    24A     -0.584039
      25A     -0.555554    26A     -0.549328    27A     -0.526576
      28A     -0.470216    29A     -0.433800    30A     -0.424534
      31A     -0.397487

  @DF-RHF Final Energy:  -422.88580115624364

   => Energetics <=

    Nuclear Repulsion Energy =            388.6994205780209199
    One-Electron Energy =               -1350.3496316778396249
    Two-Electron Energy =                 538.7644099435751741
    Total Energy =                       -422.8858011562435877
  Basis Set: (AUG-CC-PVTZ AUX)
    Blend: AUG-CC-PVTZ-RI
    Molecular point group: c1

    Geometry (in Angstrom), charge = 0, multiplicity = 1:

       Center              X                  Y                   Z               Mass
    ------------   -----------------  -----------------  -----------------  -----------------
         F           -0.842517625582     1.623510723982    -0.000008752976    18.998403162730
         O            0.617247074418    -1.615128776018    -0.000009652976    15.994914619570
         N            1.508610074418     0.508335223982     0.000008347024    14.003074004430
         C           -0.873892925582     0.231292223982     0.000000347024    12.000000000000
         C           -1.974186925582    -0.437990776018     0.754987347024    12.000000000000
         C           -1.974191925582    -0.437992776018    -0.754974652976    12.000000000000
         C            0.489872074418    -0.385988776018     0.000000347024    12.000000000000
         C            2.897614074418     0.092432223982     0.000001347024    12.000000000000
         H           -2.677277925582     0.221249223982     1.252594347024     1.007825032230
         H           -1.720745925582    -1.358077776018     1.269437347024     1.007825032230
         H           -1.720782925582    -1.358077776018    -1.269441652976     1.007825032230
         H           -2.677282925582     0.221259223982    -1.252567652976     1.007825032230
         H            1.268217074418     1.490187223982     0.000000347024     1.007825032230
         H            3.414531074418     0.458932223982     0.891194347024     1.007825032230
         H            3.414510074418     0.458877223982    -0.891225652976     1.007825032230
         H            2.907473074418    -0.997143776018     0.000035347024     1.007825032230

  Basis Set: AUG-CC-PVTZ
    Blend: AUG-CC-PVTZ
  Basis Set: (AUG-CC-PVTZ AUX)
    Blend: AUG-CC-PVTZ-JKFIT
	 Reference Energy          =    -422.8858011562436445 [Eh]
	 Singles Energy            =      -0.0000000000000000 [Eh]
	 Same-Spin Energy          =      -0.4068616675025721 [Eh]
	 Opposite-Spin Energy      =      -1.2777673220002841 [Eh]
	 Correlation Energy        =      -1.6846289895028561 [Eh]
	 Total Energy              =    -424.5704301457465135 [Eh]

	 ================> DF-SCS-MP2 Energies <==================
	-----------------------------------------------------------
	 SCS Same-Spin Scale       =       0.3333333333333333 [-]
	 SCS Opposite-Spin Scale   =       1.2000000000000000 [-]
	 SCS Same-Spin Energy      =      -0.1356205558341907 [Eh]
	 SCS Opposite-Spin Energy  =      -1.5333207864003409 [Eh]
	 SCS Correlation Energy    =      -1.6689413422345316 [Eh]
	 SCS Total Energy          =    -424.5547424984781628 [Eh]
	-----------------------------------------------------------

  Dipole Moment: [D]
     X:     0.3768      Y:     1.9522      Z:     0.0000     Total:     1.9883

*** Psi4 exiting successfully. Buy a developer a beer!
