                               Psi4 1.3.2 release

  ==> Input File <==

--------------------------------------------------------------------------
#psi4
#
memory 32 gb

molecule  {
0 1
  F       -0.8877360     1.6438520    -0.0000090
  O        0.5963310    -1.5951230    -0.0000100
  N        1.5475973     0.4550989     0.0000077
  C       -0.8948090     0.2512980     0.0000000
  C       -1.9951030    -0.4179850     0.7549870
  C       -1.9951080    -0.4179870    -0.7549750
  C        0.4689560    -0.3659830     0.0000000
  C        2.8766980     0.1124380     0.0000010
  H       -2.6981940     0.2412550     1.2525940
  H       -1.7416620    -1.3380720     1.2694370
  H       -1.7416990    -1.3380720    -1.2694420
  H       -2.6981990     0.2412650    -1.2525680
  H        1.2473010     1.5101930     0.0000000
  H        3.3936150     0.4789380     0.8911940
  H        3.3935940     0.4788830    -0.8912260
  H        2.8865570    -0.9771380     0.0000350
units angstrom
no_reorient  #important for SAPT in psi4, default
symmetry c1  #important for SAPT in psi4, default
}

set PROPERTIES_ORIGIN ["COM"]
properties('MP2/aug-cc-pvtz', properties = ['dipole'])
--------------------------------------------------------------------------

    Molecular point group: c1
  Charge       = 0
  Multiplicity = 1
  Basis Set: AUG-CC-PVTZ
    Blend: AUG-CC-PVTZ
  Basis Set: (AUG-CC-PVTZ AUX)
    Blend: AUG-CC-PVTZ-JKFIT

    Orbital Energies [Eh]
    ---------------------

    Doubly Occupied:

       1A    -26.308026     2A    -20.517739     3A    -15.596646
       4A    -11.361727     5A    -11.339622     6A    -11.256278
       7A    -11.251055     8A    -11.250390     9A     -1.616197
      10A     -1.380264    11A     -1.242365    12A     -1.170051
      13A     -0.988971    14A     -0.875733    15A     -0.854133
      16A     -0.772744    17A     -0.763712    18A     -0.707056
      19A     -0.689170    20A     -0.657007    21A     -0.648304
      22A     -0.635585    23A     -0.628138    24A     -0.590389
      25A     -0.555564    26A     -0.530875    27A     -0.526760
      28A     -0.470187    29A     -0.435843    30A     -0.426735
      31A     -0.389794

  @DF-RHF Final Energy:  -422.87163883307488

   => Energetics <=

    Nuclear Repulsion Energy =            388.7899511400939332
    One-Electron Energy =               -1350.4490618635827559
    Two-Electron Energy =                 538.7874718904139399
    Total Energy =                       -422.8716388330748259
  Basis Set: (AUG-CC-PVTZ AUX)
    Blend: AUG-CC-PVTZ-RI
    Molecular point group: c1

    Geometry (in Angstrom), charge = 0, multiplicity = 1:

       Center              X                  Y                   Z               Mass
    ------------   -----------------  -----------------  -----------------  -----------------
         F           -0.870041595641     1.632553291799    -0.000008633319    18.998403162730
         O            0.614025404359    -1.606421708201    -0.000009633319    15.994914619570
         N            1.565291704359     0.443800191799     0.000008066681    14.003074004430
         C           -0.877114595641     0.239999291799     0.000000366681    12.000000000000
         C           -1.977408595641    -0.429283708201     0.754987366681    12.000000000000
         C           -1.977413595641    -0.429285708201    -0.754974633319    12.000000000000
         C            0.486650404359    -0.377281708201     0.000000366681    12.000000000000
         C            2.894392404359     0.101139291799     0.000001366681    12.000000000000
         H           -2.680499595641     0.229956291799     1.252594366681     1.007825032230
         H           -1.723967595641    -1.349370708201     1.269437366681     1.007825032230
         H           -1.724004595641    -1.349370708201    -1.269441633319     1.007825032230
         H           -2.680504595641     0.229966291799    -1.252567633319     1.007825032230
         H            1.264995404359     1.498894291799     0.000000366681     1.007825032230
         H            3.411309404359     0.467639291799     0.891194366681     1.007825032230
         H            3.411288404359     0.467584291799    -0.891225633319     1.007825032230
         H            2.904251404359    -0.988436708201     0.000035366681     1.007825032230

  Basis Set: AUG-CC-PVTZ
    Blend: AUG-CC-PVTZ
  Basis Set: (AUG-CC-PVTZ AUX)
    Blend: AUG-CC-PVTZ-JKFIT
	 Reference Energy          =    -422.8716388330748828 [Eh]
	 Singles Energy            =      -0.0000000000000000 [Eh]
	 Same-Spin Energy          =      -0.4079225592790030 [Eh]
	 Opposite-Spin Energy      =      -1.2792876733316716 [Eh]
	 Correlation Energy        =      -1.6872102326106746 [Eh]
	 Total Energy              =    -424.5588490656855356 [Eh]

	 ================> DF-SCS-MP2 Energies <==================
	-----------------------------------------------------------
	 SCS Same-Spin Scale       =       0.3333333333333333 [-]
	 SCS Opposite-Spin Scale   =       1.2000000000000000 [-]
	 SCS Same-Spin Energy      =      -0.1359741864263343 [Eh]
	 SCS Opposite-Spin Energy  =      -1.5351452079980059 [Eh]
	 SCS Correlation Energy    =      -1.6711193944243403 [Eh]
	 SCS Total Energy          =    -424.5427582274992346 [Eh]
	-----------------------------------------------------------

  Dipole Moment: [D]
     X:     0.1894      Y:     2.0230      Z:     0.0000     Total:     2.0319

*** Psi4 exiting successfully. Buy a developer a beer!
