                               Psi4 1.3.2 release

  ==> Input File <==

--------------------------------------------------------------------------
#psi4
#
memory 32 gb

molecule  {
0 1
  F       -0.8877360     1.6438520    -0.0000090
  O        0.7241133    -1.5750753    -0.0000093
  N        1.4876940     0.5283410     0.0000080
  C       -0.8948090     0.2512980     0.0000000
  C       -1.9951030    -0.4179850     0.7549870
  C       -1.9951080    -0.4179870    -0.7549750
  C        0.4689560    -0.3659830     0.0000000
  C        2.8766980     0.1124380     0.0000010
  H       -2.6981940     0.2412550     1.2525940
  H       -1.7416620    -1.3380720     1.2694370
  H       -1.7416990    -1.3380720    -1.2694420
  H       -2.6981990     0.2412650    -1.2525680
  H        1.2473010     1.5101930     0.0000000
  H        3.3936150     0.4789380     0.8911940
  H        3.3935940     0.4788830    -0.8912260
  H        2.8865570    -0.9771380     0.0000350
units angstrom
no_reorient  #important for SAPT in psi4, default
symmetry c1  #important for SAPT in psi4, default
}

set PROPERTIES_ORIGIN ["COM"]
properties('MP2/aug-cc-pvtz', properties = ['dipole'])
--------------------------------------------------------------------------

    Molecular point group: c1
  Charge       = 0
  Multiplicity = 1
  Basis Set: AUG-CC-PVTZ
    Blend: AUG-CC-PVTZ
  Basis Set: (AUG-CC-PVTZ AUX)
    Blend: AUG-CC-PVTZ-JKFIT

    Orbital Energies [Eh]
    ---------------------

    Doubly Occupied:

       1A    -26.309804     2A    -20.519004     3A    -15.587404
       4A    -11.360935     5A    -11.340956     6A    -11.257826
       7A    -11.252919     8A    -11.252254     9A     -1.617595
      10A     -1.379608    11A     -1.228625    12A     -1.172601
      13A     -0.979314    14A     -0.878110    15A     -0.855882
      16A     -0.782829    17A     -0.769032    18A     -0.707209
      19A     -0.690561    20A     -0.651083    21A     -0.641462
      22A     -0.626280    23A     -0.623616    24A     -0.586987
      25A     -0.554618    26A     -0.542739    27A     -0.529491
      28A     -0.472012    29A     -0.438099    30A     -0.425736
      31A     -0.392339

  @DF-RHF Final Energy:  -422.88268659004092

   => Energetics <=

    Nuclear Repulsion Energy =            388.3045990816772814
    One-Electron Energy =               -1349.5207121388248197
    Two-Electron Energy =                 538.3334264671066194
    Total Energy =                       -422.8826865900409757
  Basis Set: (AUG-CC-PVTZ AUX)
    Blend: AUG-CC-PVTZ-RI
    Molecular point group: c1

    Geometry (in Angstrom), charge = 0, multiplicity = 1:

       Center              X                  Y                   Z               Mass
    ------------   -----------------  -----------------  -----------------  -----------------
         F           -0.880335863636     1.621052459844    -0.000008764854    18.998403162730
         O            0.731513436364    -1.597874840156    -0.000009064854    15.994914619570
         N            1.495094136364     0.505541459844     0.000008235146    14.003074004430
         C           -0.887408863636     0.228498459844     0.000000235146    12.000000000000
         C           -1.987702863636    -0.440784540156     0.754987235146    12.000000000000
         C           -1.987707863636    -0.440786540156    -0.754974764854    12.000000000000
         C            0.476356136364    -0.388782540156     0.000000235146    12.000000000000
         C            2.884098136364     0.089638459844     0.000001235146    12.000000000000
         H           -2.690793863636     0.218455459844     1.252594235146     1.007825032230
         H           -1.734261863636    -1.360871540156     1.269437235146     1.007825032230
         H           -1.734298863636    -1.360871540156    -1.269441764854     1.007825032230
         H           -2.690798863636     0.218465459844    -1.252567764854     1.007825032230
         H            1.254701136364     1.487393459844     0.000000235146     1.007825032230
         H            3.401015136364     0.456138459844     0.891194235146     1.007825032230
         H            3.400994136364     0.456083459844    -0.891225764854     1.007825032230
         H            2.893957136364    -0.999937540156     0.000035235146     1.007825032230

  Basis Set: AUG-CC-PVTZ
    Blend: AUG-CC-PVTZ
  Basis Set: (AUG-CC-PVTZ AUX)
    Blend: AUG-CC-PVTZ-JKFIT
	 Reference Energy          =    -422.8826865900409189 [Eh]
	 Singles Energy            =      -0.0000000000000000 [Eh]
	 Same-Spin Energy          =      -0.4070638748659821 [Eh]
	 Opposite-Spin Energy      =      -1.2780407329132590 [Eh]
	 Correlation Energy        =      -1.6851046077792411 [Eh]
	 Total Energy              =    -424.5677911978201564 [Eh]

	 ================> DF-SCS-MP2 Energies <==================
	-----------------------------------------------------------
	 SCS Same-Spin Scale       =       0.3333333333333333 [-]
	 SCS Opposite-Spin Scale   =       1.2000000000000000 [-]
	 SCS Same-Spin Energy      =      -0.1356879582886607 [Eh]
	 SCS Opposite-Spin Energy  =      -1.5336488794959109 [Eh]
	 SCS Correlation Energy    =      -1.6693368377845716 [Eh]
	 SCS Total Energy          =    -424.5520234278254748 [Eh]
	-----------------------------------------------------------

  Dipole Moment: [D]
     X:    -0.0138      Y:     1.9129      Z:     0.0000     Total:     1.9130

*** Psi4 exiting successfully. Buy a developer a beer!
