                               Psi4 1.3.2 release

  ==> Input File <==

--------------------------------------------------------------------------
#psi4
#
memory 32 gb

molecule  {
0 1
  F       -0.8877360     1.6438520    -0.0000090
  O        0.5963310    -1.5951230    -0.0000100
  N        1.4876940     0.5283410     0.0000080
  C       -0.8948090     0.2512980     0.0000000
  C       -1.9951030    -0.4179850     0.7549870
  C       -1.9614962    -0.4551804    -0.7691907
  C        0.4689560    -0.3659830     0.0000000
  C        2.8766980     0.1124380     0.0000010
  H       -2.6981940     0.2412550     1.2525940
  H       -1.7416620    -1.3380720     1.2694370
  H       -1.7416990    -1.3380720    -1.2694420
  H       -2.6981990     0.2412650    -1.2525680
  H        1.2473010     1.5101930     0.0000000
  H        3.3936150     0.4789380     0.8911940
  H        3.3935940     0.4788830    -0.8912260
  H        2.8865570    -0.9771380     0.0000350
units angstrom
no_reorient  #important for SAPT in psi4, default
symmetry c1  #important for SAPT in psi4, default
}

set PROPERTIES_ORIGIN ["COM"]
properties('MP2/aug-cc-pvtz', properties = ['dipole'])
--------------------------------------------------------------------------

    Molecular point group: c1
  Charge       = 0
  Multiplicity = 1
  Basis Set: AUG-CC-PVTZ
    Blend: AUG-CC-PVTZ
  Basis Set: (AUG-CC-PVTZ AUX)
    Blend: AUG-CC-PVTZ-JKFIT

    Orbital Energies [Eh]
    ---------------------

    Doubly Occupied:

       1A    -26.307014     2A    -20.521150     3A    -15.593800
       4A    -11.361197     5A    -11.335808     6A    -11.263230
       7A    -11.249006     8A    -11.248381     9A     -1.614829
      10A     -1.378813    11A     -1.237239    12A     -1.165135
      13A     -0.980591    14A     -0.876378    15A     -0.854013
      16A     -0.786562    17A     -0.767918    18A     -0.704560
      19A     -0.688508    20A     -0.646752    21A     -0.644067
      22A     -0.627739    23A     -0.626780    24A     -0.582771
      25A     -0.554558    26A     -0.549704    27A     -0.529299
      28A     -0.466538    29A     -0.436025    30A     -0.422697
      31A     -0.398092

  @DF-RHF Final Energy:  -422.88242340515922

   => Energetics <=

    Nuclear Repulsion Energy =            388.5920457475153853
    One-Electron Energy =               -1350.1106324659244819
    Two-Electron Energy =                 538.6361633132498810
    Total Energy =                       -422.8824234051592157
  Basis Set: (AUG-CC-PVTZ AUX)
    Blend: AUG-CC-PVTZ-RI
    Molecular point group: c1

    Geometry (in Angstrom), charge = 0, multiplicity = 1:

       Center              X                  Y                   Z               Mass
    ------------   -----------------  -----------------  -----------------  -----------------
         F           -0.866321345403     1.627604558375     0.001448616535    18.998403162730
         O            0.617745654597    -1.611370441625     0.001447616535    15.994914619570
         N            1.509108654597     0.512093558375     0.001465616535    14.003074004430
         C           -0.873394345403     0.235050558375     0.001457616535    12.000000000000
         C           -1.973688345403    -0.434232441625     0.756444616535    12.000000000000
         C           -1.940081545403    -0.471427841625    -0.767733083465    12.000000000000
         C            0.490370654597    -0.382230441625     0.001457616535    12.000000000000
         C            2.898112654597     0.096190558375     0.001458616535    12.000000000000
         H           -2.676779345403     0.225007558375     1.254051616535     1.007825032230
         H           -1.720247345403    -1.354319441625     1.270894616535     1.007825032230
         H           -1.720284345403    -1.354319441625    -1.267984383465     1.007825032230
         H           -2.676784345403     0.225017558375    -1.251110383465     1.007825032230
         H            1.268715654597     1.493945558375     0.001457616535     1.007825032230
         H            3.415029654597     0.462690558375     0.892651616535     1.007825032230
         H            3.415008654597     0.462635558375    -0.889768383465     1.007825032230
         H            2.907971654597    -0.993385441625     0.001492616535     1.007825032230

  Basis Set: AUG-CC-PVTZ
    Blend: AUG-CC-PVTZ
  Basis Set: (AUG-CC-PVTZ AUX)
    Blend: AUG-CC-PVTZ-JKFIT
	 Reference Energy          =    -422.8824234051592157 [Eh]
	 Singles Energy            =      -0.0000000000000000 [Eh]
	 Same-Spin Energy          =      -0.4069160764645904 [Eh]
	 Opposite-Spin Energy      =      -1.2781006011220550 [Eh]
	 Correlation Energy        =      -1.6850166775866455 [Eh]
	 Total Energy              =    -424.5674400827458612 [Eh]

	 ================> DF-SCS-MP2 Energies <==================
	-----------------------------------------------------------
	 SCS Same-Spin Scale       =       0.3333333333333333 [-]
	 SCS Opposite-Spin Scale   =       1.2000000000000000 [-]
	 SCS Same-Spin Energy      =      -0.1356386921548635 [Eh]
	 SCS Opposite-Spin Energy  =      -1.5337207213464661 [Eh]
	 SCS Correlation Energy    =      -1.6693594135013297 [Eh]
	 SCS Total Energy          =    -424.5517828186605698 [Eh]
	-----------------------------------------------------------

  Dipole Moment: [D]
     X:     0.4340      Y:     1.9422      Z:     0.0036     Total:     1.9901

*** Psi4 exiting successfully. Buy a developer a beer!
