                               Psi4 1.3.2 release

  ==> Input File <==

--------------------------------------------------------------------------
#psi4
#
memory 32 gb

molecule  {
0 1
  F       -0.8877360     1.6438520    -0.0000090
  O        0.5963310    -1.5951230    -0.0000100
  N        1.4876940     0.5283410     0.0000080
  C       -0.8948090     0.2512980     0.0000000
  C       -1.9951030    -0.4179850     0.7549870
  C       -2.0114137    -0.3990816    -0.7475211
  C        0.4689560    -0.3659830     0.0000000
  C        2.8766980     0.1124380     0.0000010
  H       -2.6981940     0.2412550     1.2525940
  H       -1.7416620    -1.3380720     1.2694370
  H       -1.7416990    -1.3380720    -1.2694420
  H       -2.6981990     0.2412650    -1.2525680
  H        1.2473010     1.5101930     0.0000000
  H        3.3936150     0.4789380     0.8911940
  H        3.3935940     0.4788830    -0.8912260
  H        2.8865570    -0.9771380     0.0000350
units angstrom
no_reorient  #important for SAPT in psi4, default
symmetry c1  #important for SAPT in psi4, default
}

set PROPERTIES_ORIGIN ["COM"]
properties('MP2/aug-cc-pvtz', properties = ['dipole'])
--------------------------------------------------------------------------

    Molecular point group: c1
  Charge       = 0
  Multiplicity = 1
  Basis Set: AUG-CC-PVTZ
    Blend: AUG-CC-PVTZ
  Basis Set: (AUG-CC-PVTZ AUX)
    Blend: AUG-CC-PVTZ-JKFIT

    Orbital Energies [Eh]
    ---------------------

    Doubly Occupied:

       1A    -26.304542     2A    -20.521463     3A    -15.593944
       4A    -11.361919     5A    -11.334004     6A    -11.263361
       7A    -11.248328     8A    -11.247643     9A     -1.613250
      10A     -1.378805    11A     -1.237355    12A     -1.168067
      13A     -0.981241    14A     -0.877391    15A     -0.851259
      16A     -0.786393    17A     -0.765921    18A     -0.704596
      19A     -0.686127    20A     -0.650475    21A     -0.640443
      22A     -0.626924    23A     -0.625149    24A     -0.585512
      25A     -0.556140    26A     -0.549875    27A     -0.524577
      28A     -0.471413    29A     -0.432054    30A     -0.425665
      31A     -0.398028

  @DF-RHF Final Energy:  -422.88512021797965

   => Energetics <=

    Nuclear Repulsion Energy =            388.5258942820378820
    One-Electron Energy =               -1349.9983007281159644
    Two-Electron Energy =                 538.5872862280984918
    Total Energy =                       -422.8851202179796474
  Basis Set: (AUG-CC-PVTZ AUX)
    Blend: AUG-CC-PVTZ-RI
    Molecular point group: c1

    Geometry (in Angstrom), charge = 0, multiplicity = 1:

       Center              X                  Y                   Z               Mass
    ------------   -----------------  -----------------  -----------------  -----------------
         F           -0.861204181915     1.621853734895    -0.000772786498    18.998403162730
         O            0.622862818085    -1.617121265105    -0.000773786498    15.994914619570
         N            1.514225818085     0.506342734895    -0.000755786498    14.003074004430
         C           -0.868277181915     0.229299734895    -0.000763786498    12.000000000000
         C           -1.968571181915    -0.439983265105     0.754223213502    12.000000000000
         C           -1.984881881915    -0.421079865105    -0.748284886498    12.000000000000
         C            0.495487818085    -0.387981265105    -0.000763786498    12.000000000000
         C            2.903229818085     0.090439734895    -0.000762786498    12.000000000000
         H           -2.671662181915     0.219256734895     1.251830213502     1.007825032230
         H           -1.715130181915    -1.360070265105     1.268673213502     1.007825032230
         H           -1.715167181915    -1.360070265105    -1.270205786498     1.007825032230
         H           -2.671667181915     0.219266734895    -1.253331786498     1.007825032230
         H            1.273832818085     1.488194734895    -0.000763786498     1.007825032230
         H            3.420146818085     0.456939734895     0.890430213502     1.007825032230
         H            3.420125818085     0.456884734895    -0.891989786498     1.007825032230
         H            2.913088818085    -0.999136265105    -0.000728786498     1.007825032230

  Basis Set: AUG-CC-PVTZ
    Blend: AUG-CC-PVTZ
  Basis Set: (AUG-CC-PVTZ AUX)
    Blend: AUG-CC-PVTZ-JKFIT
	 Reference Energy          =    -422.8851202179796474 [Eh]
	 Singles Energy            =      -0.0000000000000000 [Eh]
	 Same-Spin Energy          =      -0.4068751086697211 [Eh]
	 Opposite-Spin Energy      =      -1.2777760844442883 [Eh]
	 Correlation Energy        =      -1.6846511931140093 [Eh]
	 Total Energy              =    -424.5697714110936545 [Eh]

	 ================> DF-SCS-MP2 Energies <==================
	-----------------------------------------------------------
	 SCS Same-Spin Scale       =       0.3333333333333333 [-]
	 SCS Opposite-Spin Scale   =       1.2000000000000000 [-]
	 SCS Same-Spin Energy      =      -0.1356250362232403 [Eh]
	 SCS Opposite-Spin Energy  =      -1.5333313013331458 [Eh]
	 SCS Correlation Energy    =      -1.6689563375563861 [Eh]
	 SCS Total Energy          =    -424.5540765555360281 [Eh]
	-----------------------------------------------------------

  Dipole Moment: [D]
     X:     0.4243      Y:     1.9511      Z:     0.0023     Total:     1.9967

*** Psi4 exiting successfully. Buy a developer a beer!
