                               Psi4 1.3.2 release

  ==> Input File <==

--------------------------------------------------------------------------
#psi4
#
memory 32 gb

molecule  {
0 1
  F       -0.8877360     1.6438520    -0.0000090
  O        0.5963310    -1.5951230    -0.0000100
  N        1.4876940     0.5283410     0.0000080
  C       -0.8948090     0.2512980     0.0000000
  C       -1.9951030    -0.4179850     0.7549870
  C       -2.0273793    -0.3799782    -0.7398395
  C        0.4689560    -0.3659830     0.0000000
  C        2.8766980     0.1124380     0.0000010
  H       -2.6981940     0.2412550     1.2525940
  H       -1.7416620    -1.3380720     1.2694370
  H       -1.7416990    -1.3380720    -1.2694420
  H       -2.6981990     0.2412650    -1.2525680
  H        1.2473010     1.5101930     0.0000000
  H        3.3936150     0.4789380     0.8911940
  H        3.3935940     0.4788830    -0.8912260
  H        2.8865570    -0.9771380     0.0000350
units angstrom
no_reorient  #important for SAPT in psi4, default
symmetry c1  #important for SAPT in psi4, default
}

set PROPERTIES_ORIGIN ["COM"]
properties('MP2/aug-cc-pvtz', properties = ['dipole'])
--------------------------------------------------------------------------

    Molecular point group: c1
  Charge       = 0
  Multiplicity = 1
  Basis Set: AUG-CC-PVTZ
    Blend: AUG-CC-PVTZ
  Basis Set: (AUG-CC-PVTZ AUX)
    Blend: AUG-CC-PVTZ-JKFIT

    Orbital Energies [Eh]
    ---------------------

    Doubly Occupied:

       1A    -26.303799     2A    -20.521618     3A    -15.594043
       4A    -11.362227     5A    -11.333629     6A    -11.263436
       7A    -11.248349     8A    -11.247636     9A     -1.612822
      10A     -1.378865    11A     -1.237443    12A     -1.169149
      13A     -0.981514    14A     -0.877898    15A     -0.851219
      16A     -0.786463    17A     -0.765189    18A     -0.705604
      19A     -0.685703    20A     -0.651943    21A     -0.639669
      22A     -0.626999    23A     -0.623814    24A     -0.586225
      25A     -0.556352    26A     -0.549939    27A     -0.522634
      28A     -0.472660    29A     -0.430602    30A     -0.426456
      31A     -0.398038

  @DF-RHF Final Energy:  -422.88275446537057

   => Energetics <=

    Nuclear Repulsion Energy =            388.5152122379200250
    One-Electron Energy =               -1349.9720634323327886
    Two-Electron Energy =                 538.5740967290422532
    Total Energy =                       -422.8827544653705672
  Basis Set: (AUG-CC-PVTZ AUX)
    Blend: AUG-CC-PVTZ-RI
    Molecular point group: c1

    Geometry (in Angstrom), charge = 0, multiplicity = 1:

       Center              X                  Y                   Z               Mass
    ------------   -----------------  -----------------  -----------------  -----------------
         F           -0.859567509699     1.619895399221    -0.001560245867    18.998403162730
         O            0.624499490301    -1.619079600779    -0.001561245867    15.994914619570
         N            1.515862490301     0.504384399221    -0.001543245867    14.003074004430
         C           -0.866640509699     0.227341399221    -0.001551245867    12.000000000000
         C           -1.966934509699    -0.441941600779     0.753435754133    12.000000000000
         C           -1.999210809699    -0.403934800779    -0.741390745867    12.000000000000
         C            0.497124490301    -0.389939600779    -0.001551245867    12.000000000000
         C            2.904866490301     0.088481399221    -0.001550245867    12.000000000000
         H           -2.670025509699     0.217298399221     1.251042754133     1.007825032230
         H           -1.713493509699    -1.362028600779     1.267885754133     1.007825032230
         H           -1.713530509699    -1.362028600779    -1.270993245867     1.007825032230
         H           -2.670030509699     0.217308399221    -1.254119245867     1.007825032230
         H            1.275469490301     1.486236399221    -0.001551245867     1.007825032230
         H            3.421783490301     0.454981399221     0.889642754133     1.007825032230
         H            3.421762490301     0.454926399221    -0.892777245867     1.007825032230
         H            2.914725490301    -1.001094600779    -0.001516245867     1.007825032230

  Basis Set: AUG-CC-PVTZ
    Blend: AUG-CC-PVTZ
  Basis Set: (AUG-CC-PVTZ AUX)
    Blend: AUG-CC-PVTZ-JKFIT
	 Reference Energy          =    -422.8827544653705672 [Eh]
	 Singles Energy            =      -0.0000000000000000 [Eh]
	 Same-Spin Energy          =      -0.4069160644159069 [Eh]
	 Opposite-Spin Energy      =      -1.2778484913871893 [Eh]
	 Correlation Energy        =      -1.6847645558030961 [Eh]
	 Total Energy              =    -424.5675190211736663 [Eh]

	 ================> DF-SCS-MP2 Energies <==================
	-----------------------------------------------------------
	 SCS Same-Spin Scale       =       0.3333333333333333 [-]
	 SCS Opposite-Spin Scale   =       1.2000000000000000 [-]
	 SCS Same-Spin Energy      =      -0.1356386881386356 [Eh]
	 SCS Opposite-Spin Energy  =      -1.5334181896646271 [Eh]
	 SCS Correlation Energy    =      -1.6690568778032626 [Eh]
	 SCS Total Energy          =    -424.5518113431738243 [Eh]
	-----------------------------------------------------------

  Dipole Moment: [D]
     X:     0.4244      Y:     1.9561      Z:     0.0073     Total:     2.0016

*** Psi4 exiting successfully. Buy a developer a beer!
