                               Psi4 1.3.2 release

  ==> Input File <==

--------------------------------------------------------------------------
#psi4
#
memory 32 gb

molecule  {
0 1
  F       -0.8877360     1.6438520    -0.0000090
  O        0.5748601    -1.5971588    -0.0000101
  N        1.4876940     0.5283410     0.0000080
  C       -0.8948090     0.2512980     0.0000000
  C       -1.9951030    -0.4179850     0.7549870
  C       -1.9951080    -0.4179870    -0.7549750
  C        0.4689560    -0.3659830     0.0000000
  C        2.8766980     0.1124380     0.0000010
  H       -2.6981940     0.2412550     1.2525940
  H       -1.7416620    -1.3380720     1.2694370
  H       -1.7416990    -1.3380720    -1.2694420
  H       -2.6981990     0.2412650    -1.2525680
  H        1.2473010     1.5101930     0.0000000
  H        3.3936150     0.4789380     0.8911940
  H        3.3935940     0.4788830    -0.8912260
  H        2.8865570    -0.9771380     0.0000350
units angstrom
no_reorient  #important for SAPT in psi4, default
symmetry c1  #important for SAPT in psi4, default
}

set PROPERTIES_ORIGIN ["COM"]
properties('MP2/aug-cc-pvtz', properties = ['dipole'])
--------------------------------------------------------------------------

    Molecular point group: c1
  Charge       = 0
  Multiplicity = 1
  Basis Set: AUG-CC-PVTZ
    Blend: AUG-CC-PVTZ
  Basis Set: (AUG-CC-PVTZ AUX)
    Blend: AUG-CC-PVTZ-JKFIT

    Orbital Energies [Eh]
    ---------------------

    Doubly Occupied:

       1A    -26.304532     2A    -20.521653     3A    -15.594923
       4A    -11.361791     5A    -11.333402     6A    -11.264157
       7A    -11.247664     8A    -11.246999     9A     -1.613042
      10A     -1.378782    11A     -1.238648    12A     -1.166067
      13A     -0.981298    14A     -0.876722    15A     -0.851019
      16A     -0.787031    17A     -0.766119    18A     -0.703523
      19A     -0.686068    20A     -0.648745    21A     -0.641585
      22A     -0.627415    23A     -0.626298    24A     -0.584168
      25A     -0.556053    26A     -0.550913    27A     -0.525773
      28A     -0.469483    29A     -0.432670    30A     -0.424415
      31A     -0.398932

  @DF-RHF Final Energy:  -422.88576146003697

   => Energetics <=

    Nuclear Repulsion Energy =            388.6099146296829190
    One-Electron Energy =               -1350.1715726883644493
    Two-Electron Energy =                 538.6758965986446128
    Total Energy =                       -422.8857614600369743
  Basis Set: (AUG-CC-PVTZ AUX)
    Blend: AUG-CC-PVTZ-RI
    Molecular point group: c1

    Geometry (in Angstrom), charge = 0, multiplicity = 1:

       Center              X                  Y                   Z               Mass
    ------------   -----------------  -----------------  -----------------  -----------------
         F           -0.859941939607     1.624069944369    -0.000008655542    18.998403162730
         O            0.602654160393    -1.616940855631    -0.000009755542    15.994914619570
         N            1.515488060393     0.508558944369     0.000008344458    14.003074004430
         C           -0.867014939607     0.231515944369     0.000000344458    12.000000000000
         C           -1.967308939607    -0.437767055631     0.754987344458    12.000000000000
         C           -1.967313939607    -0.437769055631    -0.754974655542    12.000000000000
         C            0.496750060393    -0.385765055631     0.000000344458    12.000000000000
         C            2.904492060393     0.092655944369     0.000001344458    12.000000000000
         H           -2.670399939607     0.221472944369     1.252594344458     1.007825032230
         H           -1.713867939607    -1.357854055631     1.269437344458     1.007825032230
         H           -1.713904939607    -1.357854055631    -1.269441655542     1.007825032230
         H           -2.670404939607     0.221482944369    -1.252567655542     1.007825032230
         H            1.275095060393     1.490410944369     0.000000344458     1.007825032230
         H            3.421409060393     0.459155944369     0.891194344458     1.007825032230
         H            3.421388060393     0.459100944369    -0.891225655542     1.007825032230
         H            2.914351060393    -0.996920055631     0.000035344458     1.007825032230

  Basis Set: AUG-CC-PVTZ
    Blend: AUG-CC-PVTZ
  Basis Set: (AUG-CC-PVTZ AUX)
    Blend: AUG-CC-PVTZ-JKFIT
	 Reference Energy          =    -422.8857614600369743 [Eh]
	 Singles Energy            =      -0.0000000000000000 [Eh]
	 Same-Spin Energy          =      -0.4068594314023039 [Eh]
	 Opposite-Spin Energy      =      -1.2778042723716445 [Eh]
	 Correlation Energy        =      -1.6846637037739485 [Eh]
	 Total Energy              =    -424.5704251638109099 [Eh]

	 ================> DF-SCS-MP2 Energies <==================
	-----------------------------------------------------------
	 SCS Same-Spin Scale       =       0.3333333333333333 [-]
	 SCS Opposite-Spin Scale   =       1.2000000000000000 [-]
	 SCS Same-Spin Energy      =      -0.1356198104674346 [Eh]
	 SCS Opposite-Spin Energy  =      -1.5333651268459734 [Eh]
	 SCS Correlation Energy    =      -1.6689849373134080 [Eh]
	 SCS Total Energy          =    -424.5547463973503568 [Eh]
	-----------------------------------------------------------

  Dipole Moment: [D]
     X:     0.4994      Y:     1.9485      Z:     0.0000     Total:     2.0115

*** Psi4 exiting successfully. Buy a developer a beer!
