                               Psi4 1.3.2 release

  ==> Input File <==

--------------------------------------------------------------------------
#psi4
#
memory 32 gb

molecule  {
0 1
  F       -0.8877360     1.6438520    -0.0000090
  O        0.5963310    -1.5951230    -0.0000100
  N        1.5755956     0.4169547     0.0000076
  C       -0.8948090     0.2512980     0.0000000
  C       -1.9951030    -0.4179850     0.7549870
  C       -1.9951080    -0.4179870    -0.7549750
  C        0.4689560    -0.3659830     0.0000000
  C        2.8766980     0.1124380     0.0000010
  H       -2.6981940     0.2412550     1.2525940
  H       -1.7416620    -1.3380720     1.2694370
  H       -1.7416990    -1.3380720    -1.2694420
  H       -2.6981990     0.2412650    -1.2525680
  H        1.2473010     1.5101930     0.0000000
  H        3.3936150     0.4789380     0.8911940
  H        3.3935940     0.4788830    -0.8912260
  H        2.8865570    -0.9771380     0.0000350
units angstrom
no_reorient  #important for SAPT in psi4, default
symmetry c1  #important for SAPT in psi4, default
}

set PROPERTIES_ORIGIN ["COM"]
properties('MP2/aug-cc-pvtz', properties = ['dipole'])
--------------------------------------------------------------------------

    Molecular point group: c1
  Charge       = 0
  Multiplicity = 1
  Basis Set: AUG-CC-PVTZ
    Blend: AUG-CC-PVTZ
  Basis Set: (AUG-CC-PVTZ AUX)
    Blend: AUG-CC-PVTZ-JKFIT

    Orbital Energies [Eh]
    ---------------------

    Doubly Occupied:

       1A    -26.309283     2A    -20.516267     3A    -15.597961
       4A    -11.362579     5A    -11.342243     6A    -11.253174
       7A    -11.252412     8A    -11.251748     9A     -1.617370
      10A     -1.381678    11A     -1.246999    12A     -1.171559
      13A     -0.992849    14A     -0.876466    15A     -0.855381
      16A     -0.772841    17A     -0.757342    18A     -0.708655
      19A     -0.690355    20A     -0.662738    21A     -0.649708
      22A     -0.640633    23A     -0.629060    24A     -0.592562
      25A     -0.555832    26A     -0.527034    27A     -0.519047
      28A     -0.470388    29A     -0.437065    30A     -0.427345
      31A     -0.385661

  @DF-RHF Final Energy:  -422.85534760001906

   => Energetics <=

    Nuclear Repulsion Energy =            388.9705456968654858
    One-Electron Energy =               -1350.7433174489719931
    Two-Electron Energy =                 538.9174241520875057
    Total Energy =                       -422.8553476000190585
  Basis Set: (AUG-CC-PVTZ AUX)
    Blend: AUG-CC-PVTZ-RI
    Molecular point group: c1

    Geometry (in Angstrom), charge = 0, multiplicity = 1:

       Center              X                  Y                   Z               Mass
    ------------   -----------------  -----------------  -----------------  -----------------
         F           -0.873390866466     1.637116256558    -0.000008621357    18.998403162730
         O            0.610676133534    -1.601858743442    -0.000009621357    15.994914619570
         N            1.589940733534     0.410218956558     0.000007978643    14.003074004430
         C           -0.880463866466     0.244562256558     0.000000378643    12.000000000000
         C           -1.980757866466    -0.424720743442     0.754987378643    12.000000000000
         C           -1.980762866466    -0.424722743442    -0.754974621357    12.000000000000
         C            0.483301133534    -0.372718743442     0.000000378643    12.000000000000
         C            2.891043133534     0.105702256558     0.000001378643    12.000000000000
         H           -2.683848866466     0.234519256558     1.252594378643     1.007825032230
         H           -1.727316866466    -1.344807743442     1.269437378643     1.007825032230
         H           -1.727353866466    -1.344807743442    -1.269441621357     1.007825032230
         H           -2.683853866466     0.234529256558    -1.252567621357     1.007825032230
         H            1.261646133534     1.503457256558     0.000000378643     1.007825032230
         H            3.407960133534     0.472202256558     0.891194378643     1.007825032230
         H            3.407939133534     0.472147256558    -0.891225621357     1.007825032230
         H            2.900902133534    -0.983873743442     0.000035378643     1.007825032230

  Basis Set: AUG-CC-PVTZ
    Blend: AUG-CC-PVTZ
  Basis Set: (AUG-CC-PVTZ AUX)
    Blend: AUG-CC-PVTZ-JKFIT
	 Reference Energy          =    -422.8553476000190585 [Eh]
	 Singles Energy            =      -0.0000000000000000 [Eh]
	 Same-Spin Energy          =      -0.4086690469477403 [Eh]
	 Opposite-Spin Energy      =      -1.2806053506710109 [Eh]
	 Correlation Energy        =      -1.6892743976187512 [Eh]
	 Total Energy              =    -424.5446219976378188 [Eh]

	 ================> DF-SCS-MP2 Energies <==================
	-----------------------------------------------------------
	 SCS Same-Spin Scale       =       0.3333333333333333 [-]
	 SCS Opposite-Spin Scale   =       1.2000000000000000 [-]
	 SCS Same-Spin Energy      =      -0.1362230156492468 [Eh]
	 SCS Opposite-Spin Energy  =      -1.5367264208052129 [Eh]
	 SCS Correlation Energy    =      -1.6729494364544597 [Eh]
	 SCS Total Energy          =    -424.5282970364735320 [Eh]
	-----------------------------------------------------------

  Dipole Moment: [D]
     X:     0.0707      Y:     2.0436      Z:     0.0000     Total:     2.0448

*** Psi4 exiting successfully. Buy a developer a beer!
