                               Psi4 1.3.2 release

  ==> Input File <==

--------------------------------------------------------------------------
#psi4
#
memory 32 gb

molecule  {
0 1
  F       -0.8877360     1.6438520    -0.0000090
  O        0.5102802    -1.6010141    -0.0000104
  N        1.4876940     0.5283410     0.0000080
  C       -0.8948090     0.2512980     0.0000000
  C       -1.9951030    -0.4179850     0.7549870
  C       -1.9951080    -0.4179870    -0.7549750
  C        0.4689560    -0.3659830     0.0000000
  C        2.8766980     0.1124380     0.0000010
  H       -2.6981940     0.2412550     1.2525940
  H       -1.7416620    -1.3380720     1.2694370
  H       -1.7416990    -1.3380720    -1.2694420
  H       -2.6981990     0.2412650    -1.2525680
  H        1.2473010     1.5101930     0.0000000
  H        3.3936150     0.4789380     0.8911940
  H        3.3935940     0.4788830    -0.8912260
  H        2.8865570    -0.9771380     0.0000350
units angstrom
no_reorient  #important for SAPT in psi4, default
symmetry c1  #important for SAPT in psi4, default
}

set PROPERTIES_ORIGIN ["COM"]
properties('MP2/aug-cc-pvtz', properties = ['dipole'])
--------------------------------------------------------------------------

    Molecular point group: c1
  Charge       = 0
  Multiplicity = 1
  Basis Set: AUG-CC-PVTZ
    Blend: AUG-CC-PVTZ
  Basis Set: (AUG-CC-PVTZ AUX)
    Blend: AUG-CC-PVTZ-JKFIT

    Orbital Energies [Eh]
    ---------------------

    Doubly Occupied:

       1A    -26.302064     2A    -20.522506     3A    -15.598038
       4A    -11.362282     5A    -11.330123     6A    -11.266631
       7A    -11.245313     8A    -11.244649     9A     -1.610913
      10A     -1.379045    11A     -1.242573    12A     -1.163089
      13A     -0.982227    14A     -0.875904    15A     -0.848882
      16A     -0.788990    17A     -0.764447    18A     -0.701934
      19A     -0.683990    20A     -0.648193    21A     -0.641798
      22A     -0.629056    23A     -0.626089    24A     -0.582549
      25A     -0.556944    26A     -0.554071    27A     -0.523851
      28A     -0.468007    29A     -0.430229    30A     -0.423114
      31A     -0.401540

  @DF-RHF Final Energy:  -422.88427516819218

   => Energetics <=

    Nuclear Repulsion Energy =            388.8619252652597993
    One-Electron Energy =               -1350.6943148204309182
    Two-Electron Energy =                 538.9481143869790003
    Total Energy =                       -422.8842751681921754
  Basis Set: (AUG-CC-PVTZ AUX)
    Blend: AUG-CC-PVTZ-RI
    Molecular point group: c1

    Geometry (in Angstrom), charge = 0, multiplicity = 1:

       Center              X                  Y                   Z               Mass
    ------------   -----------------  -----------------  -----------------  -----------------
         F           -0.851117756445     1.624596731702    -0.000008614550    18.998403162730
         O            0.546898443555    -1.620269368298    -0.000010014550    15.994914619570
         N            1.524312243555     0.509085731702     0.000008385450    14.003074004430
         C           -0.858190756445     0.232042731702     0.000000385450    12.000000000000
         C           -1.958484756445    -0.437240268298     0.754987385450    12.000000000000
         C           -1.958489756445    -0.437242268298    -0.754974614550    12.000000000000
         C            0.505574243555    -0.385238268298     0.000000385450    12.000000000000
         C            2.913316243555     0.093182731702     0.000001385450    12.000000000000
         H           -2.661575756445     0.221999731702     1.252594385450     1.007825032230
         H           -1.705043756445    -1.357327268298     1.269437385450     1.007825032230
         H           -1.705080756445    -1.357327268298    -1.269441614550     1.007825032230
         H           -2.661580756445     0.222009731702    -1.252567614550     1.007825032230
         H            1.283919243555     1.490937731702     0.000000385450     1.007825032230
         H            3.430233243555     0.459682731702     0.891194385450     1.007825032230
         H            3.430212243555     0.459627731702    -0.891225614550     1.007825032230
         H            2.923175243555    -0.996393268298     0.000035385450     1.007825032230

  Basis Set: AUG-CC-PVTZ
    Blend: AUG-CC-PVTZ
  Basis Set: (AUG-CC-PVTZ AUX)
    Blend: AUG-CC-PVTZ-JKFIT
	 Reference Energy          =    -422.8842751681921754 [Eh]
	 Singles Energy            =      -0.0000000000000000 [Eh]
	 Same-Spin Energy          =      -0.4069087002916774 [Eh]
	 Opposite-Spin Energy      =      -1.2779259267994023 [Eh]
	 Correlation Energy        =      -1.6848346270910797 [Eh]
	 Total Energy              =    -424.5691097952832820 [Eh]

	 ================> DF-SCS-MP2 Energies <==================
	-----------------------------------------------------------
	 SCS Same-Spin Scale       =       0.3333333333333333 [-]
	 SCS Opposite-Spin Scale   =       1.2000000000000000 [-]
	 SCS Same-Spin Energy      =      -0.1356362334305591 [Eh]
	 SCS Opposite-Spin Energy  =      -1.5335111121592828 [Eh]
	 SCS Correlation Energy    =      -1.6691473455898420 [Eh]
	 SCS Total Energy          =    -424.5534225137820385 [Eh]
	-----------------------------------------------------------

  Dipole Moment: [D]
     X:     0.7208      Y:     1.9447      Z:     0.0000     Total:     2.0740

*** Psi4 exiting successfully. Buy a developer a beer!
