                               Psi4 1.3.2 release

  ==> Input File <==

--------------------------------------------------------------------------
#psi4
#
memory 32 gb

molecule  {
0 1
  F       -0.8877360     1.6438520    -0.0000090
  O        0.5963310    -1.5951230    -0.0000100
  N        1.3886309     0.6299289     0.0000083
  C       -0.8948090     0.2512980     0.0000000
  C       -1.9951030    -0.4179850     0.7549870
  C       -1.9951080    -0.4179870    -0.7549750
  C        0.4689560    -0.3659830     0.0000000
  C        2.8766980     0.1124380     0.0000010
  H       -2.6981940     0.2412550     1.2525940
  H       -1.7416620    -1.3380720     1.2694370
  H       -1.7416990    -1.3380720    -1.2694420
  H       -2.6981990     0.2412650    -1.2525680
  H        1.2473010     1.5101930     0.0000000
  H        3.3936150     0.4789380     0.8911940
  H        3.3935940     0.4788830    -0.8912260
  H        2.8865570    -0.9771380     0.0000350
units angstrom
no_reorient  #important for SAPT in psi4, default
symmetry c1  #important for SAPT in psi4, default
}

set PROPERTIES_ORIGIN ["COM"]
properties('MP2/aug-cc-pvtz', properties = ['dipole'])
--------------------------------------------------------------------------

    Molecular point group: c1
  Charge       = 0
  Multiplicity = 1
  Basis Set: AUG-CC-PVTZ
    Blend: AUG-CC-PVTZ
  Basis Set: (AUG-CC-PVTZ AUX)
    Blend: AUG-CC-PVTZ-JKFIT

    Orbital Energies [Eh]
    ---------------------

    Doubly Occupied:

       1A    -26.301300     2A    -20.527878     3A    -15.589117
       4A    -11.365282     5A    -11.327320     6A    -11.274236
       7A    -11.244825     8A    -11.244161     9A     -1.610273
      10A     -1.379120    11A     -1.239660    12A     -1.162774
      13A     -0.970162    14A     -0.890712    15A     -0.848433
      16A     -0.814973    17A     -0.763110    18A     -0.700523
      19A     -0.683402    20A     -0.648240    21A     -0.628511
      22A     -0.620932    23A     -0.617084    24A     -0.574251
      25A     -0.559387    26A     -0.558061    27A     -0.525779
      28A     -0.470307    29A     -0.430157    30A     -0.420055
      31A     -0.409473

  @DF-RHF Final Energy:  -422.85681476038133

   => Energetics <=

    Nuclear Repulsion Energy =            388.4989519491688839
    One-Electron Energy =               -1349.9125376530275844
    Two-Electron Energy =                 538.5567709434773178
    Total Energy =                       -422.8568147603813259
  Basis Set: (AUG-CC-PVTZ AUX)
    Blend: AUG-CC-PVTZ-RI
    Molecular point group: c1

    Geometry (in Angstrom), charge = 0, multiplicity = 1:

       Center              X                  Y                   Z               Mass
    ------------   -----------------  -----------------  -----------------  -----------------
         F           -0.851025386595     1.611639414228    -0.000008705093    18.998403162730
         O            0.633041613405    -1.627335585772    -0.000009705093    15.994914619570
         N            1.425341513405     0.597716314228     0.000008594907    14.003074004430
         C           -0.858098386595     0.219085414228     0.000000294907    12.000000000000
         C           -1.958392386595    -0.450197585772     0.754987294907    12.000000000000
         C           -1.958397386595    -0.450199585772    -0.754974705093    12.000000000000
         C            0.505666613405    -0.398195585772     0.000000294907    12.000000000000
         C            2.913408613405     0.080225414228     0.000001294907    12.000000000000
         H           -2.661483386595     0.209042414228     1.252594294907     1.007825032230
         H           -1.704951386595    -1.370284585772     1.269437294907     1.007825032230
         H           -1.704988386595    -1.370284585772    -1.269441705093     1.007825032230
         H           -2.661488386595     0.209052414228    -1.252567705093     1.007825032230
         H            1.284011613405     1.477980414228     0.000000294907     1.007825032230
         H            3.430325613405     0.446725414228     0.891194294907     1.007825032230
         H            3.430304613405     0.446670414228    -0.891225705093     1.007825032230
         H            2.923267613405    -1.009350585772     0.000035294907     1.007825032230

  Basis Set: AUG-CC-PVTZ
    Blend: AUG-CC-PVTZ
  Basis Set: (AUG-CC-PVTZ AUX)
    Blend: AUG-CC-PVTZ-JKFIT
	 Reference Energy          =    -422.8568147603813259 [Eh]
	 Singles Energy            =      -0.0000000000000000 [Eh]
	 Same-Spin Energy          =      -0.4065122193232686 [Eh]
	 Opposite-Spin Energy      =      -1.2786496716148519 [Eh]
	 Correlation Energy        =      -1.6851618909381205 [Eh]
	 Total Energy              =    -424.5419766513194304 [Eh]

	 ================> DF-SCS-MP2 Energies <==================
	-----------------------------------------------------------
	 SCS Same-Spin Scale       =       0.3333333333333333 [-]
	 SCS Opposite-Spin Scale   =       1.2000000000000000 [-]
	 SCS Same-Spin Energy      =      -0.1355040731077562 [Eh]
	 SCS Opposite-Spin Energy  =      -1.5343796059378223 [Eh]
	 SCS Correlation Energy    =      -1.6698836790455784 [Eh]
	 SCS Total Energy          =    -424.5266984394269230 [Eh]
	-----------------------------------------------------------

  Dipole Moment: [D]
     X:     0.7499      Y:     1.7839      Z:     0.0000     Total:     1.9352

*** Psi4 exiting successfully. Buy a developer a beer!
