                               Psi4 1.3.2 release

  ==> Input File <==

--------------------------------------------------------------------------
#psi4
#
memory 32 gb

molecule  {
0 1
  F       -0.7422132     1.6354841    -0.0000094
  O        0.5963310    -1.5951230    -0.0000100
  N        1.4876940     0.5283410     0.0000080
  C       -0.8948090     0.2512980     0.0000000
  C       -1.9951030    -0.4179850     0.7549870
  C       -1.9951080    -0.4179870    -0.7549750
  C        0.4689560    -0.3659830     0.0000000
  C        2.8766980     0.1124380     0.0000010
  H       -2.6981940     0.2412550     1.2525940
  H       -1.7416620    -1.3380720     1.2694370
  H       -1.7416990    -1.3380720    -1.2694420
  H       -2.6981990     0.2412650    -1.2525680
  H        1.2473010     1.5101930     0.0000000
  H        3.3936150     0.4789380     0.8911940
  H        3.3935940     0.4788830    -0.8912260
  H        2.8865570    -0.9771380     0.0000350
units angstrom
no_reorient  #important for SAPT in psi4, default
symmetry c1  #important for SAPT in psi4, default
}

set PROPERTIES_ORIGIN ["COM"]
properties('MP2/aug-cc-pvtz', properties = ['dipole'])
--------------------------------------------------------------------------

    Molecular point group: c1
  Charge       = 0
  Multiplicity = 1
  Basis Set: AUG-CC-PVTZ
    Blend: AUG-CC-PVTZ
  Basis Set: (AUG-CC-PVTZ AUX)
    Blend: AUG-CC-PVTZ-JKFIT

    Orbital Energies [Eh]
    ---------------------

    Doubly Occupied:

       1A    -26.306582     2A    -20.517741     3A    -15.589568
       4A    -11.356461     5A    -11.335698     6A    -11.260765
       7A    -11.251340     8A    -11.250678     9A     -1.616606
      10A     -1.375354    11A     -1.233654    12A     -1.169287
      13A     -0.979055    14A     -0.878671    15A     -0.853349
      16A     -0.782500    17A     -0.765737    18A     -0.708536
      19A     -0.689559    20A     -0.648843    21A     -0.642704
      22A     -0.624496    23A     -0.623561    24A     -0.580689
      25A     -0.554468    26A     -0.546610    27A     -0.527263
      28A     -0.471894    29A     -0.435494    30A     -0.422996
      31A     -0.394551

  @DF-RHF Final Energy:  -422.88282270131646

   => Energetics <=

    Nuclear Repulsion Energy =            389.6340529396786110
    One-Electron Energy =               -1352.2443323125262395
    Two-Electron Energy =                 539.7274566715310584
    Total Energy =                       -422.8828227013165133
  Basis Set: (AUG-CC-PVTZ AUX)
    Blend: AUG-CC-PVTZ-RI
    Molecular point group: c1

    Geometry (in Angstrom), charge = 0, multiplicity = 1:

       Center              X                  Y                   Z               Mass
    ------------   -----------------  -----------------  -----------------  -----------------
         F           -0.740970931843     1.616781963890    -0.000009004287    18.998403162730
         O            0.597573268157    -1.613825136110    -0.000009604287    15.994914619570
         N            1.488936268157     0.509638863890     0.000008395713    14.003074004430
         C           -0.893566731843     0.232595863890     0.000000395713    12.000000000000
         C           -1.993860731843    -0.436687136110     0.754987395713    12.000000000000
         C           -1.993865731843    -0.436689136110    -0.754974604287    12.000000000000
         C            0.470198268157    -0.384685136110     0.000000395713    12.000000000000
         C            2.877940268157     0.093735863890     0.000001395713    12.000000000000
         H           -2.696951731843     0.222552863890     1.252594395713     1.007825032230
         H           -1.740419731843    -1.356774136110     1.269437395713     1.007825032230
         H           -1.740456731843    -1.356774136110    -1.269441604287     1.007825032230
         H           -2.696956731843     0.222562863890    -1.252567604287     1.007825032230
         H            1.248543268157     1.491490863890     0.000000395713     1.007825032230
         H            3.394857268157     0.460235863890     0.891194395713     1.007825032230
         H            3.394836268157     0.460180863890    -0.891225604287     1.007825032230
         H            2.887799268157    -0.995840136110     0.000035395713     1.007825032230

  Basis Set: AUG-CC-PVTZ
    Blend: AUG-CC-PVTZ
  Basis Set: (AUG-CC-PVTZ AUX)
    Blend: AUG-CC-PVTZ-JKFIT
	 Reference Energy          =    -422.8828227013164565 [Eh]
	 Singles Energy            =      -0.0000000000000000 [Eh]
	 Same-Spin Energy          =      -0.4069802820855120 [Eh]
	 Opposite-Spin Energy      =      -1.2778315673307066 [Eh]
	 Correlation Energy        =      -1.6848118494162185 [Eh]
	 Total Energy              =    -424.5676345507326914 [Eh]

	 ================> DF-SCS-MP2 Energies <==================
	-----------------------------------------------------------
	 SCS Same-Spin Scale       =       0.3333333333333333 [-]
	 SCS Opposite-Spin Scale   =       1.2000000000000000 [-]
	 SCS Same-Spin Energy      =      -0.1356600940285040 [Eh]
	 SCS Opposite-Spin Energy  =      -1.5333978807968478 [Eh]
	 SCS Correlation Energy    =      -1.6690579748253518 [Eh]
	 SCS Total Energy          =    -424.5518806761418205 [Eh]
	-----------------------------------------------------------

  Dipole Moment: [D]
     X:     0.1260      Y:     1.9892      Z:     0.0000     Total:     1.9932

*** Psi4 exiting successfully. Buy a developer a beer!
