                               Psi4 1.3.2 release

  ==> Input File <==

--------------------------------------------------------------------------
#psi4
#
memory 32 gb

molecule  {
0 1
  F       -0.8877360     1.6438520    -0.0000090
  O        0.5963310    -1.5951230    -0.0000100
  N        1.4876940     0.5283410     0.0000080
  C       -0.8948090     0.2512980     0.0000000
  C       -1.9951030    -0.4179850     0.7549870
  C       -1.8904163    -0.5269408    -0.7947944
  C        0.4689560    -0.3659830     0.0000000
  C        2.8766980     0.1124380     0.0000010
  H       -2.6981940     0.2412550     1.2525940
  H       -1.7416620    -1.3380720     1.2694370
  H       -1.7416990    -1.3380720    -1.2694420
  H       -2.6981990     0.2412650    -1.2525680
  H        1.2473010     1.5101930     0.0000000
  H        3.3936150     0.4789380     0.8911940
  H        3.3935940     0.4788830    -0.8912260
  H        2.8865570    -0.9771380     0.0000350
units angstrom
no_reorient  #important for SAPT in psi4, default
symmetry c1  #important for SAPT in psi4, default
}

set PROPERTIES_ORIGIN ["COM"]
properties('MP2/aug-cc-pvtz', properties = ['dipole'])
--------------------------------------------------------------------------

    Molecular point group: c1
  Charge       = 0
  Multiplicity = 1
  Basis Set: AUG-CC-PVTZ
    Blend: AUG-CC-PVTZ
  Basis Set: (AUG-CC-PVTZ AUX)
    Blend: AUG-CC-PVTZ-JKFIT

    Orbital Energies [Eh]
    ---------------------

    Doubly Occupied:

       1A    -26.310837     2A    -20.521132     3A    -15.593995
       4A    -11.360772     5A    -11.339860     6A    -11.263297
       7A    -11.251680     8A    -11.250836     9A     -1.617584
      10A     -1.379329    11A     -1.237464    12A     -1.161995
      13A     -0.980161    14A     -0.876622    15A     -0.863954
      16A     -0.787632    17A     -0.769613    18A     -0.713021
      19A     -0.692626    20A     -0.652370    21A     -0.641736
      22A     -0.627728    23A     -0.625784    24A     -0.580445
      25A     -0.551091    26A     -0.548863    27A     -0.530809
      28A     -0.460128    29A     -0.439223    30A     -0.417465
      31A     -0.398466

  @DF-RHF Final Energy:  -422.85440861891016

   => Energetics <=

    Nuclear Repulsion Energy =            388.7667981453485027
    One-Electron Energy =               -1350.3493754548912875
    Two-Electron Energy =                 538.7281686906326286
    Total Energy =                       -422.8544086189101563
  Basis Set: (AUG-CC-PVTZ AUX)
    Blend: AUG-CC-PVTZ-RI
    Molecular point group: c1

    Geometry (in Angstrom), charge = 0, multiplicity = 1:

       Center              X                  Y                   Z               Mass
    ------------   -----------------  -----------------  -----------------  -----------------
         F           -0.873607917627     1.634960890297     0.004073313661    18.998403162730
         O            0.610459082373    -1.604014109703     0.004072313661    15.994914619570
         N            1.501822082373     0.519449890297     0.004090313661    14.003074004430
         C           -0.880680917627     0.242406890297     0.004082313661    12.000000000000
         C           -1.980974917627    -0.426876109703     0.759069313661    12.000000000000
         C           -1.876288217627    -0.535831909703    -0.790712086339    12.000000000000
         C            0.483084082373    -0.374874109703     0.004082313661    12.000000000000
         C            2.890826082373     0.103546890297     0.004083313661    12.000000000000
         H           -2.684065917627     0.232363890297     1.256676313661     1.007825032230
         H           -1.727533917627    -1.346963109703     1.273519313661     1.007825032230
         H           -1.727570917627    -1.346963109703    -1.265359686339     1.007825032230
         H           -2.684070917627     0.232373890297    -1.248485686339     1.007825032230
         H            1.261429082373     1.501301890297     0.004082313661     1.007825032230
         H            3.407743082373     0.470046890297     0.895276313661     1.007825032230
         H            3.407722082373     0.469991890297    -0.887143686339     1.007825032230
         H            2.900685082373    -0.986029109703     0.004117313661     1.007825032230

  Basis Set: AUG-CC-PVTZ
    Blend: AUG-CC-PVTZ
  Basis Set: (AUG-CC-PVTZ AUX)
    Blend: AUG-CC-PVTZ-JKFIT
	 Reference Energy          =    -422.8544086189101563 [Eh]
	 Singles Energy            =      -0.0000000000000000 [Eh]
	 Same-Spin Energy          =      -0.4073623160905055 [Eh]
	 Opposite-Spin Energy      =      -1.2798026532538811 [Eh]
	 Correlation Energy        =      -1.6871649693443866 [Eh]
	 Total Energy              =    -424.5415735882545505 [Eh]

	 ================> DF-SCS-MP2 Energies <==================
	-----------------------------------------------------------
	 SCS Same-Spin Scale       =       0.3333333333333333 [-]
	 SCS Opposite-Spin Scale   =       1.2000000000000000 [-]
	 SCS Same-Spin Energy      =      -0.1357874386968352 [Eh]
	 SCS Opposite-Spin Energy  =      -1.5357631839046573 [Eh]
	 SCS Correlation Energy    =      -1.6715506226014925 [Eh]
	 SCS Total Energy          =    -424.5259592415116572 [Eh]
	-----------------------------------------------------------

  Dipole Moment: [D]
     X:     0.4740      Y:     1.9413      Z:     0.0428     Total:     1.9988

*** Psi4 exiting successfully. Buy a developer a beer!
