                               Psi4 1.3.2 release

  ==> Input File <==

--------------------------------------------------------------------------
#psi4
#
memory 32 gb

molecule  {
0 1
  F       -1.0076791     1.6368319    -0.0825394
  O        0.5963310    -1.5951230    -0.0000100
  N        1.4876940     0.5283410     0.0000080
  C       -0.8948090     0.2512980     0.0000000
  C       -1.9951030    -0.4179850     0.7549870
  C       -1.9951080    -0.4179870    -0.7549750
  C        0.4689560    -0.3659830     0.0000000
  C        2.8766980     0.1124380     0.0000010
  H       -2.6981940     0.2412550     1.2525940
  H       -1.7416620    -1.3380720     1.2694370
  H       -1.7416990    -1.3380720    -1.2694420
  H       -2.6981990     0.2412650    -1.2525680
  H        1.2473010     1.5101930     0.0000000
  H        3.3936150     0.4789380     0.8911940
  H        3.3935940     0.4788830    -0.8912260
  H        2.8865570    -0.9771380     0.0000350
units angstrom
no_reorient  #important for SAPT in psi4, default
symmetry c1  #important for SAPT in psi4, default
}

set PROPERTIES_ORIGIN ["COM"]
properties('MP2/aug-cc-pvtz', properties = ['dipole'])
--------------------------------------------------------------------------

    Molecular point group: c1
  Charge       = 0
  Multiplicity = 1
  Basis Set: AUG-CC-PVTZ
    Blend: AUG-CC-PVTZ
  Basis Set: (AUG-CC-PVTZ AUX)
    Blend: AUG-CC-PVTZ-JKFIT

    Orbital Energies [Eh]
    ---------------------

    Doubly Occupied:

       1A    -26.303726     2A    -20.524078     3A    -15.596819
       4A    -11.365712     5A    -11.333479     6A    -11.265051
       7A    -11.247642     8A    -11.243907     9A     -1.612138
      10A     -1.381330    11A     -1.239966    12A     -1.165067
      13A     -0.982495    14A     -0.876099    15A     -0.850573
      16A     -0.789288    17A     -0.767565    18A     -0.700069
      19A     -0.684732    20A     -0.652572    21A     -0.640715
      22A     -0.629255    23A     -0.622818    24A     -0.587385
      25A     -0.556988    26A     -0.552014    27A     -0.525034
      28A     -0.468794    29A     -0.431581    30A     -0.425349
      31A     -0.400507

  @DF-RHF Final Energy:  -422.88347977951588

   => Energetics <=

    Nuclear Repulsion Energy =            387.9232141962259561
    One-Electron Energy =               -1348.7678904280471670
    Two-Electron Energy =                 537.9611964523053302
    Total Energy =                       -422.8834797795159375
  Basis Set: (AUG-CC-PVTZ AUX)
    Blend: AUG-CC-PVTZ-RI
    Molecular point group: c1

    Geometry (in Angstrom), charge = 0, multiplicity = 1:

       Center              X                  Y                   Z               Mass
    ------------   -----------------  -----------------  -----------------  -----------------
         F           -0.963352331404     1.617911019073    -0.069144576524    18.998403162730
         O            0.640657768596    -1.614043880927     0.013384823476    15.994914619570
         N            1.532020768596     0.509420119073     0.013402823476    14.003074004430
         C           -0.850482231404     0.232377119073     0.013394823476    12.000000000000
         C           -1.950776231404    -0.436905880927     0.768381823476    12.000000000000
         C           -1.950781231404    -0.436907880927    -0.741580176524    12.000000000000
         C            0.513282768596    -0.384903880927     0.013394823476    12.000000000000
         C            2.921024768596     0.093517119073     0.013395823476    12.000000000000
         H           -2.653867231404     0.222334119073     1.265988823476     1.007825032230
         H           -1.697335231404    -1.356992880927     1.282831823476     1.007825032230
         H           -1.697372231404    -1.356992880927    -1.256047176524     1.007825032230
         H           -2.653872231404     0.222344119073    -1.239173176524     1.007825032230
         H            1.291627768596     1.491272119073     0.013394823476     1.007825032230
         H            3.437941768596     0.460017119073     0.904588823476     1.007825032230
         H            3.437920768596     0.459962119073    -0.877831176524     1.007825032230
         H            2.930883768596    -0.996058880927     0.013429823476     1.007825032230

  Basis Set: AUG-CC-PVTZ
    Blend: AUG-CC-PVTZ
  Basis Set: (AUG-CC-PVTZ AUX)
    Blend: AUG-CC-PVTZ-JKFIT
	 Reference Energy          =    -422.8834797795158806 [Eh]
	 Singles Energy            =      -0.0000000000000000 [Eh]
	 Same-Spin Energy          =      -0.4069800901780239 [Eh]
	 Opposite-Spin Energy      =      -1.2781381157387275 [Eh]
	 Correlation Energy        =      -1.6851182059167513 [Eh]
	 Total Energy              =    -424.5685979854326320 [Eh]

	 ================> DF-SCS-MP2 Energies <==================
	-----------------------------------------------------------
	 SCS Same-Spin Scale       =       0.3333333333333333 [-]
	 SCS Opposite-Spin Scale   =       1.2000000000000000 [-]
	 SCS Same-Spin Energy      =      -0.1356600300593413 [Eh]
	 SCS Opposite-Spin Energy  =      -1.5337657388864729 [Eh]
	 SCS Correlation Energy    =      -1.6694257689458143 [Eh]
	 SCS Total Energy          =    -424.5529055484616947 [Eh]
	-----------------------------------------------------------

  Dipole Moment: [D]
     X:     0.6610      Y:     1.9370      Z:     0.0864     Total:     2.0485

*** Psi4 exiting successfully. Buy a developer a beer!
