                               Psi4 1.3.2 release

  ==> Input File <==

--------------------------------------------------------------------------
#psi4
#
memory 32 gb

molecule  {
0 1
  F       -0.8877360     1.6438520    -0.0000090
  O        0.4671531    -1.6017040    -0.0000106
  N        1.4876940     0.5283410     0.0000080
  C       -0.8948090     0.2512980     0.0000000
  C       -1.9951030    -0.4179850     0.7549870
  C       -1.9951080    -0.4179870    -0.7549750
  C        0.4689560    -0.3659830     0.0000000
  C        2.8766980     0.1124380     0.0000010
  H       -2.6981940     0.2412550     1.2525940
  H       -1.7416620    -1.3380720     1.2694370
  H       -1.7416990    -1.3380720    -1.2694420
  H       -2.6981990     0.2412650    -1.2525680
  H        1.2473010     1.5101930     0.0000000
  H        3.3936150     0.4789380     0.8911940
  H        3.3935940     0.4788830    -0.8912260
  H        2.8865570    -0.9771380     0.0000350
units angstrom
no_reorient  #important for SAPT in psi4, default
symmetry c1  #important for SAPT in psi4, default
}

set PROPERTIES_ORIGIN ["COM"]
properties('MP2/aug-cc-pvtz', properties = ['dipole'])
--------------------------------------------------------------------------

    Molecular point group: c1
  Charge       = 0
  Multiplicity = 1
  Basis Set: AUG-CC-PVTZ
    Blend: AUG-CC-PVTZ
  Basis Set: (AUG-CC-PVTZ AUX)
    Blend: AUG-CC-PVTZ-JKFIT

    Orbital Energies [Eh]
    ---------------------

    Doubly Occupied:

       1A    -26.300345     2A    -20.522986     3A    -15.600077
       4A    -11.362646     5A    -11.327934     6A    -11.268202
       7A    -11.243717     8A    -11.243053     9A     -1.609434
      10A     -1.379426    11A     -1.245073    12A     -1.161045
      13A     -0.982861    14A     -0.875294    15A     -0.847447
      16A     -0.790297    17A     -0.763242    18A     -0.700880
      19A     -0.682555    20A     -0.648014    21A     -0.641966
      22A     -0.630140    23A     -0.625859    24A     -0.581309
      25A     -0.557624    26A     -0.556072    27A     -0.522485
      28A     -0.466881    29A     -0.428572    30A     -0.422035
      31A     -0.403195

  @DF-RHF Final Energy:  -422.88235878816056

   => Energetics <=

    Nuclear Repulsion Energy =            389.0705840119150025
    One-Electron Energy =               -1351.1245562014225925
    Two-Electron Energy =                 539.1716134013470310
    Total Energy =                       -422.8823587881605590
  Basis Set: (AUG-CC-PVTZ AUX)
    Blend: AUG-CC-PVTZ-RI
    Molecular point group: c1

    Geometry (in Angstrom), charge = 0, multiplicity = 1:

       Center              X                  Y                   Z               Mass
    ------------   -----------------  -----------------  -----------------  -----------------
         F           -0.845224879099     1.624690999485    -0.000008587222    18.998403162730
         O            0.509664220901    -1.620865000515    -0.000010187222    15.994914619570
         N            1.530205120901     0.509179999485     0.000008412778    14.003074004430
         C           -0.852297879099     0.232136999485     0.000000412778    12.000000000000
         C           -1.952591879099    -0.437146000515     0.754987412778    12.000000000000
         C           -1.952596879099    -0.437148000515    -0.754974587222    12.000000000000
         C            0.511467120901    -0.385144000515     0.000000412778    12.000000000000
         C            2.919209120901     0.093276999485     0.000001412778    12.000000000000
         H           -2.655682879099     0.222093999485     1.252594412778     1.007825032230
         H           -1.699150879099    -1.357233000515     1.269437412778     1.007825032230
         H           -1.699187879099    -1.357233000515    -1.269441587222     1.007825032230
         H           -2.655687879099     0.222103999485    -1.252567587222     1.007825032230
         H            1.289812120901     1.491031999485     0.000000412778     1.007825032230
         H            3.436126120901     0.459776999485     0.891194412778     1.007825032230
         H            3.436105120901     0.459721999485    -0.891225587222     1.007825032230
         H            2.929068120901    -0.996299000515     0.000035412778     1.007825032230

  Basis Set: AUG-CC-PVTZ
    Blend: AUG-CC-PVTZ
  Basis Set: (AUG-CC-PVTZ AUX)
    Blend: AUG-CC-PVTZ-JKFIT
	 Reference Energy          =    -422.8823587881605590 [Eh]
	 Singles Energy            =      -0.0000000000000000 [Eh]
	 Same-Spin Energy          =      -0.4069876305020360 [Eh]
	 Opposite-Spin Energy      =      -1.2780791103658493 [Eh]
	 Correlation Energy        =      -1.6850667408678852 [Eh]
	 Total Energy              =    -424.5674255290284691 [Eh]

	 ================> DF-SCS-MP2 Energies <==================
	-----------------------------------------------------------
	 SCS Same-Spin Scale       =       0.3333333333333333 [-]
	 SCS Opposite-Spin Scale   =       1.2000000000000000 [-]
	 SCS Same-Spin Energy      =      -0.1356625435006787 [Eh]
	 SCS Opposite-Spin Energy  =      -1.5336949324390192 [Eh]
	 SCS Correlation Energy    =      -1.6693574759396979 [Eh]
	 SCS Total Energy          =    -424.5517162641002642 [Eh]
	-----------------------------------------------------------

  Dipole Moment: [D]
     X:     0.8685      Y:     1.9357      Z:     0.0000     Total:     2.1216

*** Psi4 exiting successfully. Buy a developer a beer!
