                               Psi4 1.3.2 release

  ==> Input File <==

--------------------------------------------------------------------------
#psi4
#
memory 32 gb

molecule  {
0 1
  F       -0.8877360     1.6438520    -0.0000090
  O        0.5963310    -1.5951230    -0.0000100
  N        1.4876940     0.5283410     0.0000080
  C       -0.8948090     0.2512980     0.0000000
  C       -1.9951030    -0.4179850     0.7549870
  C       -1.9951080    -0.4179870    -0.7549750
  C        0.2867515    -0.2835118     0.0000000
  C        2.8766980     0.1124380     0.0000010
  H       -2.6981940     0.2412550     1.2525940
  H       -1.7416620    -1.3380720     1.2694370
  H       -1.7416990    -1.3380720    -1.2694420
  H       -2.6981990     0.2412650    -1.2525680
  H        1.2473010     1.5101930     0.0000000
  H        3.3936150     0.4789380     0.8911940
  H        3.3935940     0.4788830    -0.8912260
  H        2.8865570    -0.9771380     0.0000350
units angstrom
no_reorient  #important for SAPT in psi4, default
symmetry c1  #important for SAPT in psi4, default
}

set PROPERTIES_ORIGIN ["COM"]
properties('MP2/aug-cc-pvtz', properties = ['dipole'])
--------------------------------------------------------------------------

    Molecular point group: c1
  Charge       = 0
  Multiplicity = 1
  Basis Set: AUG-CC-PVTZ
    Blend: AUG-CC-PVTZ
  Basis Set: (AUG-CC-PVTZ AUX)
    Blend: AUG-CC-PVTZ-JKFIT

    Orbital Energies [Eh]
    ---------------------

    Doubly Occupied:

       1A    -26.317202     2A    -20.508785     3A    -15.587403
       4A    -11.368211     5A    -11.340553     6A    -11.269993
       7A    -11.269316     8A    -11.257421     9A     -1.627745
      10A     -1.320672    11A     -1.197206    12A     -1.192826
      13A     -1.013012    14A     -0.907894    15A     -0.871265
      16A     -0.790217    17A     -0.742712    18A     -0.722280
      19A     -0.701121    20A     -0.652998    21A     -0.647435
      22A     -0.615627    23A     -0.610316    24A     -0.578665
      25A     -0.562840    26A     -0.526788    27A     -0.526034
      28A     -0.475247    29A     -0.431177    30A     -0.422329
      31A     -0.376541

  @DF-RHF Final Energy:  -422.81343270637581

   => Energetics <=

    Nuclear Repulsion Energy =            389.1832669564035427
    One-Electron Energy =               -1351.1297380477246861
    Two-Electron Energy =                 539.1330383849453938
    Total Energy =                       -422.8134327063758064
  Basis Set: (AUG-CC-PVTZ AUX)
    Blend: AUG-CC-PVTZ-RI
    Molecular point group: c1

    Geometry (in Angstrom), charge = 0, multiplicity = 1:

       Center              X                  Y                   Z               Mass
    ------------   -----------------  -----------------  -----------------  -----------------
         F           -0.844197495242     1.615337451210    -0.000008669206    18.998403162730
         O            0.639869504758    -1.623637548790    -0.000009669206    15.994914619570
         N            1.531232504758     0.499826451210     0.000008330794    14.003074004430
         C           -0.851270495242     0.222783451210     0.000000330794    12.000000000000
         C           -1.951564495242    -0.446499548790     0.754987330794    12.000000000000
         C           -1.951569495242    -0.446501548790    -0.754974669206    12.000000000000
         C            0.330290004758    -0.312026348790     0.000000330794    12.000000000000
         C            2.920236504758     0.083923451210     0.000001330794    12.000000000000
         H           -2.654655495242     0.212740451210     1.252594330794     1.007825032230
         H           -1.698123495242    -1.366586548790     1.269437330794     1.007825032230
         H           -1.698160495242    -1.366586548790    -1.269441669206     1.007825032230
         H           -2.654660495242     0.212750451210    -1.252567669206     1.007825032230
         H            1.290839504758     1.481678451210     0.000000330794     1.007825032230
         H            3.437153504758     0.450423451210     0.891194330794     1.007825032230
         H            3.437132504758     0.450368451210    -0.891225669206     1.007825032230
         H            2.930095504758    -1.005652548790     0.000035330794     1.007825032230

  Basis Set: AUG-CC-PVTZ
    Blend: AUG-CC-PVTZ
  Basis Set: (AUG-CC-PVTZ AUX)
    Blend: AUG-CC-PVTZ-JKFIT
	 Reference Energy          =    -422.8134327063758064 [Eh]
	 Singles Energy            =      -0.0000000000000000 [Eh]
	 Same-Spin Energy          =      -0.4122828252148328 [Eh]
	 Opposite-Spin Energy      =      -1.2879899148637852 [Eh]
	 Correlation Energy        =      -1.7002727400786180 [Eh]
	 Total Energy              =    -424.5137054464544235 [Eh]

	 ================> DF-SCS-MP2 Energies <==================
	-----------------------------------------------------------
	 SCS Same-Spin Scale       =       0.3333333333333333 [-]
	 SCS Opposite-Spin Scale   =       1.2000000000000000 [-]
	 SCS Same-Spin Energy      =      -0.1374276084049443 [Eh]
	 SCS Opposite-Spin Energy  =      -1.5455878978365423 [Eh]
	 SCS Correlation Energy    =      -1.6830155062414867 [Eh]
	 SCS Total Energy          =    -424.4964482126172811 [Eh]
	-----------------------------------------------------------

  Dipole Moment: [D]
     X:    -0.7717      Y:     2.1258      Z:     0.0000     Total:     2.2615

*** Psi4 exiting successfully. Buy a developer a beer!
