                               Psi4 1.3.2 release

  ==> Input File <==

--------------------------------------------------------------------------
#psi4
#
memory 32 gb

molecule  {
0 1
  F       -0.9677707     1.6408659    -0.0550852
  O        0.5963310    -1.5951230    -0.0000100
  N        1.4876940     0.5283410     0.0000080
  C       -0.8948090     0.2512980     0.0000000
  C       -1.9951030    -0.4179850     0.7549870
  C       -1.9951080    -0.4179870    -0.7549750
  C        0.4689560    -0.3659830     0.0000000
  C        2.8766980     0.1124380     0.0000010
  H       -2.6981940     0.2412550     1.2525940
  H       -1.7416620    -1.3380720     1.2694370
  H       -1.7416990    -1.3380720    -1.2694420
  H       -2.6981990     0.2412650    -1.2525680
  H        1.2473010     1.5101930     0.0000000
  H        3.3936150     0.4789380     0.8911940
  H        3.3935940     0.4788830    -0.8912260
  H        2.8865570    -0.9771380     0.0000350
units angstrom
no_reorient  #important for SAPT in psi4, default
symmetry c1  #important for SAPT in psi4, default
}

set PROPERTIES_ORIGIN ["COM"]
properties('MP2/aug-cc-pvtz', properties = ['dipole'])
--------------------------------------------------------------------------

    Molecular point group: c1
  Charge       = 0
  Multiplicity = 1
  Basis Set: AUG-CC-PVTZ
    Blend: AUG-CC-PVTZ
  Basis Set: (AUG-CC-PVTZ AUX)
    Blend: AUG-CC-PVTZ-JKFIT

    Orbital Energies [Eh]
    ---------------------

    Doubly Occupied:

       1A    -26.304323     2A    -20.523187     3A    -15.595891
       4A    -11.364382     5A    -11.333826     6A    -11.264499
       7A    -11.247818     8A    -11.245269     9A     -1.612594
      10A     -1.380507    11A     -1.239108    12A     -1.165739
      13A     -0.982008    14A     -0.876345    15A     -0.850930
      16A     -0.788371    17A     -0.767240    18A     -0.701428
      19A     -0.685379    20A     -0.651265    21A     -0.640807
      22A     -0.628499    23A     -0.624402    24A     -0.586522
      25A     -0.556590    26A     -0.551321    27A     -0.525547
      28A     -0.469101    29A     -0.432260    30A     -0.425265
      31A     -0.399722

  @DF-RHF Final Energy:  -422.88482199911545

   => Energetics <=

    Nuclear Repulsion Energy =            388.0995653044446954
    One-Electron Energy =               -1349.1284845813590891
    Two-Electron Energy =                 538.1440972777990055
    Total Energy =                       -422.8848219991153883
  Basis Set: (AUG-CC-PVTZ AUX)
    Blend: AUG-CC-PVTZ-RI
    Molecular point group: c1

    Geometry (in Angstrom), charge = 0, multiplicity = 1:

       Center              X                  Y                   Z               Mass
    ------------   -----------------  -----------------  -----------------  -----------------
         F           -0.929920972249     1.621290310220    -0.046146129567    18.998403162730
         O            0.634180727751    -1.614698589780     0.008929070433    15.994914619570
         N            1.525543727751     0.508765410220     0.008947070433    14.003074004430
         C           -0.856959272249     0.231722410220     0.008939070433    12.000000000000
         C           -1.957253272249    -0.437560589780     0.763926070433    12.000000000000
         C           -1.957258272249    -0.437562589780    -0.746035929567    12.000000000000
         C            0.506805727751    -0.385558589780     0.008939070433    12.000000000000
         C            2.914547727751     0.092862410220     0.008940070433    12.000000000000
         H           -2.660344272249     0.221679410220     1.261533070433     1.007825032230
         H           -1.703812272249    -1.357647589780     1.278376070433     1.007825032230
         H           -1.703849272249    -1.357647589780    -1.260502929567     1.007825032230
         H           -2.660349272249     0.221689410220    -1.243628929567     1.007825032230
         H            1.285150727751     1.490617410220     0.008939070433     1.007825032230
         H            3.431464727751     0.459362410220     0.900133070433     1.007825032230
         H            3.431443727751     0.459307410220    -0.882286929567     1.007825032230
         H            2.924406727751    -0.996713589780     0.008974070433     1.007825032230

  Basis Set: AUG-CC-PVTZ
    Blend: AUG-CC-PVTZ
  Basis Set: (AUG-CC-PVTZ AUX)
    Blend: AUG-CC-PVTZ-JKFIT
	 Reference Energy          =    -422.8848219991154451 [Eh]
	 Singles Energy            =      -0.0000000000000000 [Eh]
	 Same-Spin Energy          =      -0.4069177266812527 [Eh]
	 Opposite-Spin Energy      =      -1.2779817351634115 [Eh]
	 Correlation Energy        =      -1.6848994618446642 [Eh]
	 Total Energy              =    -424.5697214609601247 [Eh]

	 ================> DF-SCS-MP2 Energies <==================
	-----------------------------------------------------------
	 SCS Same-Spin Scale       =       0.3333333333333333 [-]
	 SCS Opposite-Spin Scale   =       1.2000000000000000 [-]
	 SCS Same-Spin Energy      =      -0.1356392422270842 [Eh]
	 SCS Opposite-Spin Energy  =      -1.5335780821960938 [Eh]
	 SCS Correlation Energy    =      -1.6692173244231781 [Eh]
	 SCS Total Energy          =    -424.5540393235386318 [Eh]
	-----------------------------------------------------------

  Dipole Moment: [D]
     X:     0.5839      Y:     1.9376      Z:     0.0576     Total:     2.0245

*** Psi4 exiting successfully. Buy a developer a beer!
