                               Psi4 1.3.2 release

  ==> Input File <==

--------------------------------------------------------------------------
#psi4
#
memory 32 gb

molecule  {
0 1
  F       -0.8391409     1.6427568    -0.0000091
  O        0.5963310    -1.5951230    -0.0000100
  N        1.4876940     0.5283410     0.0000080
  C       -0.8948090     0.2512980     0.0000000
  C       -1.9951030    -0.4179850     0.7549870
  C       -1.9951080    -0.4179870    -0.7549750
  C        0.4689560    -0.3659830     0.0000000
  C        2.8766980     0.1124380     0.0000010
  H       -2.6981940     0.2412550     1.2525940
  H       -1.7416620    -1.3380720     1.2694370
  H       -1.7416990    -1.3380720    -1.2694420
  H       -2.6981990     0.2412650    -1.2525680
  H        1.2473010     1.5101930     0.0000000
  H        3.3936150     0.4789380     0.8911940
  H        3.3935940     0.4788830    -0.8912260
  H        2.8865570    -0.9771380     0.0000350
units angstrom
no_reorient  #important for SAPT in psi4, default
symmetry c1  #important for SAPT in psi4, default
}

set PROPERTIES_ORIGIN ["COM"]
properties('MP2/aug-cc-pvtz', properties = ['dipole'])
--------------------------------------------------------------------------

    Molecular point group: c1
  Charge       = 0
  Multiplicity = 1
  Basis Set: AUG-CC-PVTZ
    Blend: AUG-CC-PVTZ
  Basis Set: (AUG-CC-PVTZ AUX)
    Blend: AUG-CC-PVTZ-JKFIT

    Orbital Energies [Eh]
    ---------------------

    Doubly Occupied:

       1A    -26.305820     2A    -20.520165     3A    -15.592530
       4A    -11.359939     5A    -11.334888     6A    -11.262510
       7A    -11.249392     8A    -11.248729     9A     -1.614559
      10A     -1.377671    11A     -1.236125    12A     -1.167799
      13A     -0.980361    14A     -0.877443    15A     -0.852246
      16A     -0.785104    17A     -0.766306    18A     -0.705586
      19A     -0.687621    20A     -0.648058    21A     -0.642278
      22A     -0.626481    23A     -0.625819    24A     -0.583411
      25A     -0.555322    26A     -0.548821    27A     -0.526756
      28A     -0.470525    29A     -0.434132    30A     -0.424281
      31A     -0.396929

  @DF-RHF Final Energy:  -422.88555234416947

   => Energetics <=

    Nuclear Repulsion Energy =            388.8664856840538846
    One-Electron Energy =               -1350.6888647468731506
    Two-Electron Energy =                 538.9368267186497405
    Total Energy =                       -422.8855523441694686
  Basis Set: (AUG-CC-PVTZ AUX)
    Blend: AUG-CC-PVTZ-RI
    Molecular point group: c1

    Geometry (in Angstrom), charge = 0, multiplicity = 1:

       Center              X                  Y                   Z               Mass
    ------------   -----------------  -----------------  -----------------  -----------------
         F           -0.822167490731     1.622874321532    -0.000008752976    18.998403162730
         O            0.613304409269    -1.615005478468    -0.000009652976    15.994914619570
         N            1.504667409269     0.508458521532     0.000008347024    14.003074004430
         C           -0.877835590731     0.231415521532     0.000000347024    12.000000000000
         C           -1.978129590731    -0.437867478468     0.754987347024    12.000000000000
         C           -1.978134590731    -0.437869478468    -0.754974652976    12.000000000000
         C            0.485929409269    -0.385865478468     0.000000347024    12.000000000000
         C            2.893671409269     0.092555521532     0.000001347024    12.000000000000
         H           -2.681220590731     0.221372521532     1.252594347024     1.007825032230
         H           -1.724688590731    -1.357954478468     1.269437347024     1.007825032230
         H           -1.724725590731    -1.357954478468    -1.269441652976     1.007825032230
         H           -2.681225590731     0.221382521532    -1.252567652976     1.007825032230
         H            1.264274409269     1.490310521532     0.000000347024     1.007825032230
         H            3.410588409269     0.459055521532     0.891194347024     1.007825032230
         H            3.410567409269     0.459000521532    -0.891225652976     1.007825032230
         H            2.903530409269    -0.997020478468     0.000035347024     1.007825032230

  Basis Set: AUG-CC-PVTZ
    Blend: AUG-CC-PVTZ
  Basis Set: (AUG-CC-PVTZ AUX)
    Blend: AUG-CC-PVTZ-JKFIT
	 Reference Energy          =    -422.8855523441694686 [Eh]
	 Singles Energy            =      -0.0000000000000000 [Eh]
	 Same-Spin Energy          =      -0.4068695637066377 [Eh]
	 Opposite-Spin Energy      =      -1.2777542366644192 [Eh]
	 Correlation Energy        =      -1.6846238003710570 [Eh]
	 Total Energy              =    -424.5701761445405396 [Eh]

	 ================> DF-SCS-MP2 Energies <==================
	-----------------------------------------------------------
	 SCS Same-Spin Scale       =       0.3333333333333333 [-]
	 SCS Opposite-Spin Scale   =       1.2000000000000000 [-]
	 SCS Same-Spin Energy      =      -0.1356231879022126 [Eh]
	 SCS Opposite-Spin Energy  =      -1.5333050839973030 [Eh]
	 SCS Correlation Energy    =      -1.6689282718995155 [Eh]
	 SCS Total Energy          =    -424.5544806160689859 [Eh]
	-----------------------------------------------------------

  Dipole Moment: [D]
     X:     0.3275      Y:     1.9580      Z:     0.0000     Total:     1.9852

*** Psi4 exiting successfully. Buy a developer a beer!
