                               Psi4 1.3.2 release

  ==> Input File <==

--------------------------------------------------------------------------
#psi4
#
memory 32 gb

molecule  {
0 1
  F       -0.8877360     1.6438520    -0.0000090
  O        0.5963310    -1.5951230    -0.0000100
  N        1.4558620     0.5633496     0.0000081
  C       -0.8948090     0.2512980     0.0000000
  C       -1.9951030    -0.4179850     0.7549870
  C       -1.9951080    -0.4179870    -0.7549750
  C        0.4689560    -0.3659830     0.0000000
  C        2.8766980     0.1124380     0.0000010
  H       -2.6981940     0.2412550     1.2525940
  H       -1.7416620    -1.3380720     1.2694370
  H       -1.7416990    -1.3380720    -1.2694420
  H       -2.6981990     0.2412650    -1.2525680
  H        1.2473010     1.5101930     0.0000000
  H        3.3936150     0.4789380     0.8911940
  H        3.3935940     0.4788830    -0.8912260
  H        2.8865570    -0.9771380     0.0000350
units angstrom
no_reorient  #important for SAPT in psi4, default
symmetry c1  #important for SAPT in psi4, default
}

set PROPERTIES_ORIGIN ["COM"]
properties('MP2/aug-cc-pvtz', properties = ['dipole'])
--------------------------------------------------------------------------

    Molecular point group: c1
  Charge       = 0
  Multiplicity = 1
  Basis Set: AUG-CC-PVTZ
    Blend: AUG-CC-PVTZ
  Basis Set: (AUG-CC-PVTZ AUX)
    Blend: AUG-CC-PVTZ-JKFIT

    Orbital Energies [Eh]
    ---------------------

    Doubly Occupied:

       1A    -26.303952     2A    -20.523384     3A    -15.592342
       4A    -11.362365     5A    -11.332013     6A    -11.266996
       7A    -11.247182     8A    -11.246518     9A     -1.612507
      10A     -1.378589    11A     -1.236834    12A     -1.165558
      13A     -0.977123    14A     -0.879520    15A     -0.850578
      16A     -0.796614    17A     -0.765566    18A     -0.702722
      19A     -0.685557    20A     -0.648135    21A     -0.635805
      22A     -0.625251    23A     -0.623182    24A     -0.580712
      25A     -0.556514    26A     -0.556298    27A     -0.526199
      28A     -0.469936    29A     -0.432323    30A     -0.423427
      31A     -0.402005

  @DF-RHF Final Energy:  -422.88319956296209

   => Energetics <=

    Nuclear Repulsion Energy =            388.4817387760933229
    One-Electron Energy =               -1349.9184619656127779
    Two-Electron Energy =                 538.5535236265573076
    Total Energy =                       -422.8831995629620906
  Basis Set: (AUG-CC-PVTZ AUX)
    Blend: AUG-CC-PVTZ-RI
    Molecular point group: c1

    Geometry (in Angstrom), charge = 0, multiplicity = 1:

       Center              X                  Y                   Z               Mass
    ------------   -----------------  -----------------  -----------------  -----------------
         F           -0.859067844951     1.619603901610    -0.000008681169    18.998403162730
         O            0.624999155049    -1.619371098390    -0.000009681169    15.994914619570
         N            1.484530155049     0.539101501610     0.000008418831    14.003074004430
         C           -0.866140844951     0.227049901610     0.000000318831    12.000000000000
         C           -1.966434844951    -0.442233098390     0.754987318831    12.000000000000
         C           -1.966439844951    -0.442235098390    -0.754974681169    12.000000000000
         C            0.497624155049    -0.390231098390     0.000000318831    12.000000000000
         C            2.905366155049     0.088189901610     0.000001318831    12.000000000000
         H           -2.669525844951     0.217006901610     1.252594318831     1.007825032230
         H           -1.712993844951    -1.362320098390     1.269437318831     1.007825032230
         H           -1.713030844951    -1.362320098390    -1.269441681169     1.007825032230
         H           -2.669530844951     0.217016901610    -1.252567681169     1.007825032230
         H            1.275969155049     1.485944901610     0.000000318831     1.007825032230
         H            3.422283155049     0.454689901610     0.891194318831     1.007825032230
         H            3.422262155049     0.454634901610    -0.891225681169     1.007825032230
         H            2.915225155049    -1.001386098390     0.000035318831     1.007825032230

  Basis Set: AUG-CC-PVTZ
    Blend: AUG-CC-PVTZ
  Basis Set: (AUG-CC-PVTZ AUX)
    Blend: AUG-CC-PVTZ-JKFIT
	 Reference Energy          =    -422.8831995629620906 [Eh]
	 Singles Energy            =      -0.0000000000000000 [Eh]
	 Same-Spin Energy          =      -0.4065690678070279 [Eh]
	 Opposite-Spin Energy      =      -1.2776545640595858 [Eh]
	 Correlation Energy        =      -1.6842236318666137 [Eh]
	 Total Energy              =    -424.5674231948286774 [Eh]

	 ================> DF-SCS-MP2 Energies <==================
	-----------------------------------------------------------
	 SCS Same-Spin Scale       =       0.3333333333333333 [-]
	 SCS Opposite-Spin Scale   =       1.2000000000000000 [-]
	 SCS Same-Spin Energy      =      -0.1355230226023426 [Eh]
	 SCS Opposite-Spin Energy  =      -1.5331854768715030 [Eh]
	 SCS Correlation Energy    =      -1.6687084994738455 [Eh]
	 SCS Total Energy          =    -424.5519080624359276 [Eh]
	-----------------------------------------------------------

  Dipole Moment: [D]
     X:     0.5397      Y:     1.8973      Z:     0.0000     Total:     1.9726

*** Psi4 exiting successfully. Buy a developer a beer!
