                               Psi4 1.4a3.dev225

  ==> Input File <==

--------------------------------------------------------------------------
#psi4
#
memory 32 gb

molecule  {
0 1
  F       -0.8877360     1.6438520    -0.0000090
  O        0.5963310    -1.5951230    -0.0000100
  N        1.4876940     0.5283410     0.0000080
  C       -0.8945550     0.3012974    -0.0000003
  C       -1.9951030    -0.4179850     0.7549870
  C       -1.9951080    -0.4179870    -0.7549750
  C        0.4689560    -0.3659830     0.0000000
  C        2.8766980     0.1124380     0.0000010
  H       -2.6981940     0.2412550     1.2525940
  H       -1.7416620    -1.3380720     1.2694370
  H       -1.7416990    -1.3380720    -1.2694420
  H       -2.6981990     0.2412650    -1.2525680
  H        1.2473010     1.5101930     0.0000000
  H        3.3936150     0.4789380     0.8911940
  H        3.3935940     0.4788830    -0.8912260
  H        2.8865570    -0.9771380     0.0000350
units angstrom
no_reorient  #important for SAPT in psi4, default
symmetry c1  #important for SAPT in psi4, default
}

set PROPERTIES_ORIGIN ["COM"]
properties('MP2/aug-cc-pvtz', properties = ['dipole'])
--------------------------------------------------------------------------

    Molecular point group: c1
  Charge       = 0
  Multiplicity = 1
  Basis Set: AUG-CC-PVTZ
    Blend: AUG-CC-PVTZ
  Basis Set: (AUG-CC-PVTZ AUX)
    Blend: AUG-CC-PVTZ-JKFIT

    Orbital Energies [Eh]
    ---------------------

    Doubly Occupied:

       1A    -26.317585     2A    -20.520535     3A    -15.592734
       4A    -11.360775     5A    -11.334866     6A    -11.262520
       7A    -11.247140     8A    -11.246476     9A     -1.640675
      10A     -1.376422    11A     -1.236637    12A     -1.155819
      13A     -0.979349    14A     -0.877284    15A     -0.848409
      16A     -0.791374    17A     -0.775135    18A     -0.711465
      19A     -0.703477    20A     -0.648191    21A     -0.642104
      22A     -0.628570    23A     -0.626181    24A     -0.582484
      25A     -0.552556    26A     -0.549227    27A     -0.525051
      28A     -0.469189    29A     -0.422086    30A     -0.420135
      31A     -0.397409

  @DF-RHF Final Energy:  -422.88437520153133

   => Energetics <=

    Nuclear Repulsion Energy =            388.5467139291563967
    One-Electron Energy =               -1349.9784601054727773
    Two-Electron Energy =                 538.5473709747851672
    Total Energy =                       -422.8843752015312702
  Basis Set: (AUG-CC-PVTZ AUX)
    Blend: AUG-CC-PVTZ-RI
    Molecular point group: c1

    Geometry (in Angstrom), charge = 0, multiplicity = 1:

       Center              X                  Y                   Z               Mass
    ------------   -----------------  -----------------  -----------------  -----------------
         F           -0.862901756758     1.618666213855    -0.000008638453    18.998403162730
         O            0.621165243242    -1.620308786145    -0.000009638453    15.994914619570
         N            1.512528243242     0.503155213855     0.000008361547    14.003074004430
         C           -0.869720756758     0.276111613855     0.000000061547    12.000000000000
         C           -1.970268756758    -0.443170786145     0.754987361547    12.000000000000
         C           -1.970273756758    -0.443172786145    -0.754974638453    12.000000000000
         C            0.493790243242    -0.391168786145     0.000000361547    12.000000000000
         C            2.901532243242     0.087252213855     0.000001361547    12.000000000000
         H           -2.673359756758     0.216069213855     1.252594361547     1.007825032230
         H           -1.716827756758    -1.363257786145     1.269437361547     1.007825032230
         H           -1.716864756758    -1.363257786145    -1.269441638453     1.007825032230
         H           -2.673364756758     0.216079213855    -1.252567638453     1.007825032230
         H            1.272135243242     1.485007213855     0.000000361547     1.007825032230
         H            3.418449243242     0.453752213855     0.891194361547     1.007825032230
         H            3.418428243242     0.453697213855    -0.891225638453     1.007825032230
         H            2.911391243242    -1.002323786145     0.000035361547     1.007825032230

  Basis Set: AUG-CC-PVTZ
    Blend: AUG-CC-PVTZ
  Basis Set: (AUG-CC-PVTZ AUX)
    Blend: AUG-CC-PVTZ-JKFIT
	 Reference Energy          =    -422.8843752015313271 [Eh]
	 Singles Energy            =      -0.0000000000000000 [Eh]
	 Same-Spin Energy          =      -0.4067104029543285 [Eh]
	 Opposite-Spin Energy      =      -1.2770205895861793 [Eh]
	 Correlation Energy        =      -1.6837309925405077 [Eh]
	 Total Energy              =    -424.5681061940718450 [Eh]

	 ================> DF-SCS-MP2 Energies <==================
	-----------------------------------------------------------
	 SCS Same-Spin Scale       =       0.3333333333333333 [-]
	 SCS Opposite-Spin Scale   =       1.2000000000000000 [-]
	 SCS Same-Spin Energy      =      -0.1355701343181095 [Eh]
	 SCS Opposite-Spin Energy  =      -1.5324247075034150 [Eh]
	 SCS Correlation Energy    =      -1.6679948418215245 [Eh]
	 SCS Total Energy          =    -424.5523700433528234 [Eh]
	-----------------------------------------------------------

  Dipole Moment: [D]
     X:     0.4471      Y:     2.1534      Z:     0.0000     Total:     2.1993

*** Psi4 exiting successfully. Buy a developer a beer!
