                               Psi4 1.4a3.dev225

  ==> Input File <==

--------------------------------------------------------------------------
#psi4
#
memory 32 gb

molecule  {
0 1
  F       -0.8877360     1.6438520    -0.0000090
  O        0.5963310    -1.5951230    -0.0000100
  N        1.4876940     0.5283410     0.0000080
  C       -0.8948090     0.2512980     0.0000000
  C       -1.9951030    -0.4179850     0.7549870
  C       -1.9951080    -0.4179870    -0.7549750
  C        0.4507355    -0.3577359     0.0000000
  C        2.8766980     0.1124380     0.0000010
  H       -2.6981940     0.2412550     1.2525940
  H       -1.7416620    -1.3380720     1.2694370
  H       -1.7416990    -1.3380720    -1.2694420
  H       -2.6981990     0.2412650    -1.2525680
  H        1.2473010     1.5101930     0.0000000
  H        3.3936150     0.4789380     0.8911940
  H        3.3935940     0.4788830    -0.8912260
  H        2.8865570    -0.9771380     0.0000350
units angstrom
no_reorient  #important for SAPT in psi4, default
symmetry c1  #important for SAPT in psi4, default
}

set PROPERTIES_ORIGIN ["COM"]
properties('MP2/aug-cc-pvtz', properties = ['dipole'])
--------------------------------------------------------------------------

    Molecular point group: c1
  Charge       = 0
  Multiplicity = 1
  Basis Set: AUG-CC-PVTZ
    Blend: AUG-CC-PVTZ
  Basis Set: (AUG-CC-PVTZ AUX)
    Blend: AUG-CC-PVTZ-JKFIT

    Orbital Energies [Eh]
    ---------------------

    Doubly Occupied:

       1A    -26.306639     2A    -20.520175     3A    -15.593251
       4A    -11.362415     5A    -11.335715     6A    -11.262760
       7A    -11.250289     8A    -11.249624     9A     -1.615195
      10A     -1.372594    11A     -1.233036    12A     -1.169616
      13A     -0.982299    14A     -0.881313    15A     -0.853473
      16A     -0.783332    17A     -0.767968    18A     -0.705754
      19A     -0.688179    20A     -0.648751    21A     -0.641364
      22A     -0.625045    23A     -0.624987    24A     -0.585710
      25A     -0.555316    26A     -0.547935    27A     -0.526313
      28A     -0.469404    29A     -0.434247    30A     -0.426789
      31A     -0.395834

  @DF-RHF Final Energy:  -422.88420742113607

   => Energetics <=

    Nuclear Repulsion Energy =            388.5780231240483431
    One-Electron Energy =               -1350.0938136541822132
    Two-Electron Energy =                 538.6315831089979156
    Total Energy =                       -422.8842074211360114
  Basis Set: (AUG-CC-PVTZ AUX)
    Blend: AUG-CC-PVTZ-RI
    Molecular point group: c1

    Geometry (in Angstrom), charge = 0, multiplicity = 1:

       Center              X                  Y                   Z               Mass
    ------------   -----------------  -----------------  -----------------  -----------------
         F           -0.861007891143     1.622946342970    -0.000008669206    18.998403162730
         O            0.623059108857    -1.616028657030    -0.000009669206    15.994914619570
         N            1.514422108857     0.507435342970     0.000008330794    14.003074004430
         C           -0.868080891143     0.230392342970     0.000000330794    12.000000000000
         C           -1.968374891143    -0.438890657030     0.754987330794    12.000000000000
         C           -1.968379891143    -0.438892657030    -0.754974669206    12.000000000000
         C            0.477463608857    -0.378641557030     0.000000330794    12.000000000000
         C            2.903426108857     0.091532342970     0.000001330794    12.000000000000
         H           -2.671465891143     0.220349342970     1.252594330794     1.007825032230
         H           -1.714933891143    -1.358977657030     1.269437330794     1.007825032230
         H           -1.714970891143    -1.358977657030    -1.269441669206     1.007825032230
         H           -2.671470891143     0.220359342970    -1.252567669206     1.007825032230
         H            1.274029108857     1.489287342970     0.000000330794     1.007825032230
         H            3.420343108857     0.458032342970     0.891194330794     1.007825032230
         H            3.420322108857     0.457977342970    -0.891225669206     1.007825032230
         H            2.913285108857    -0.998043657030     0.000035330794     1.007825032230

  Basis Set: AUG-CC-PVTZ
    Blend: AUG-CC-PVTZ
  Basis Set: (AUG-CC-PVTZ AUX)
    Blend: AUG-CC-PVTZ-JKFIT
	 Reference Energy          =    -422.8842074211360682 [Eh]
	 Singles Energy            =      -0.0000000000000000 [Eh]
	 Same-Spin Energy          =      -0.4072134323549465 [Eh]
	 Opposite-Spin Energy      =      -1.2784738324635643 [Eh]
	 Correlation Energy        =      -1.6856872648185108 [Eh]
	 Total Energy              =    -424.5698946859545799 [Eh]

	 ================> DF-SCS-MP2 Energies <==================
	-----------------------------------------------------------
	 SCS Same-Spin Scale       =       0.3333333333333333 [-]
	 SCS Opposite-Spin Scale   =       1.2000000000000000 [-]
	 SCS Same-Spin Energy      =      -0.1357378107849821 [Eh]
	 SCS Opposite-Spin Energy  =      -1.5341685989562770 [Eh]
	 SCS Correlation Energy    =      -1.6699064097412593 [Eh]
	 SCS Total Energy          =    -424.5541138308773270 [Eh]
	-----------------------------------------------------------

  Dipole Moment: [D]
     X:     0.3095      Y:     1.9687      Z:     0.0000     Total:     1.9929

*** Psi4 exiting successfully. Buy a developer a beer!
