                               Psi4 1.3.2 release

  ==> Input File <==

--------------------------------------------------------------------------
#psi4
#
memory 32 gb

molecule  {
0 1
  F       -0.7678704     1.6356150     0.0825215
  O        0.5963310    -1.5951230    -0.0000100
  N        1.4876940     0.5283410     0.0000080
  C       -0.8948090     0.2512980     0.0000000
  C       -1.9951030    -0.4179850     0.7549870
  C       -1.9951080    -0.4179870    -0.7549750
  C        0.4689560    -0.3659830     0.0000000
  C        2.8766980     0.1124380     0.0000010
  H       -2.6981940     0.2412550     1.2525940
  H       -1.7416620    -1.3380720     1.2694370
  H       -1.7416990    -1.3380720    -1.2694420
  H       -2.6981990     0.2412650    -1.2525680
  H        1.2473010     1.5101930     0.0000000
  H        3.3936150     0.4789380     0.8911940
  H        3.3935940     0.4788830    -0.8912260
  H        2.8865570    -0.9771380     0.0000350
units angstrom
no_reorient  #important for SAPT in psi4, default
symmetry c1  #important for SAPT in psi4, default
}

set PROPERTIES_ORIGIN ["COM"]
properties('MP2/aug-cc-pvtz', properties = ['dipole'])
--------------------------------------------------------------------------

    Molecular point group: c1
  Charge       = 0
  Multiplicity = 1
  Basis Set: AUG-CC-PVTZ
    Blend: AUG-CC-PVTZ
  Basis Set: (AUG-CC-PVTZ AUX)
    Blend: AUG-CC-PVTZ-JKFIT

    Orbital Energies [Eh]
    ---------------------

    Doubly Occupied:

       1A    -26.306304     2A    -20.518391     3A    -15.590390
       4A    -11.357370     5A    -11.335441     6A    -11.261251
       7A    -11.252383     8A    -11.248583     9A     -1.615956
      10A     -1.375972    11A     -1.234325    12A     -1.168877
      13A     -0.979402    14A     -0.878311    15A     -0.853052
      16A     -0.783177    17A     -0.765769    18A     -0.707708
      19A     -0.688970    20A     -0.648188    21A     -0.642863
      22A     -0.625551    23A     -0.623899    24A     -0.581472
      25A     -0.554636    26A     -0.547239    27A     -0.527112
      28A     -0.471601    29A     -0.434815    30A     -0.423362
      31A     -0.395195

  @DF-RHF Final Energy:  -422.88332245347698

   => Energetics <=

    Nuclear Repulsion Energy =            389.4308624692434933
    One-Electron Energy =               -1351.8332393860564480
    Two-Electron Energy =                 539.5190544633359195
    Total Energy =                       -422.8833224534770352
  Basis Set: (AUG-CC-PVTZ AUX)
    Blend: AUG-CC-PVTZ-RI
    Molecular point group: c1

    Geometry (in Angstrom), charge = 0, multiplicity = 1:

       Center              X                  Y                   Z               Mass
    ------------   -----------------  -----------------  -----------------  -----------------
         F           -0.762464027735     1.616891619123     0.069127321881    18.998403162730
         O            0.601737372265    -1.613846380877    -0.013404178119    15.994914619570
         N            1.493100372265     0.509617619123    -0.013386178119    14.003074004430
         C           -0.889402627735     0.232574619123    -0.013394178119    12.000000000000
         C           -1.989696627735    -0.436708380877     0.741592821881    12.000000000000
         C           -1.989701627735    -0.436710380877    -0.768369178119    12.000000000000
         C            0.474362372265    -0.384706380877    -0.013394178119    12.000000000000
         C            2.882104372265     0.093714619123    -0.013393178119    12.000000000000
         H           -2.692787627735     0.222531619123     1.239199821881     1.007825032230
         H           -1.736255627735    -1.356795380877     1.256042821881     1.007825032230
         H           -1.736292627735    -1.356795380877    -1.282836178119     1.007825032230
         H           -2.692792627735     0.222541619123    -1.265962178119     1.007825032230
         H            1.252707372265     1.491469619123    -0.013394178119     1.007825032230
         H            3.399021372265     0.460214619123     0.877799821881     1.007825032230
         H            3.399000372265     0.460159619123    -0.904620178119     1.007825032230
         H            2.891963372265    -0.995861380877    -0.013359178119     1.007825032230

  Basis Set: AUG-CC-PVTZ
    Blend: AUG-CC-PVTZ
  Basis Set: (AUG-CC-PVTZ AUX)
    Blend: AUG-CC-PVTZ-JKFIT
	 Reference Energy          =    -422.8833224534769784 [Eh]
	 Singles Energy            =      -0.0000000000000000 [Eh]
	 Same-Spin Energy          =      -0.4069508975939939 [Eh]
	 Opposite-Spin Energy      =      -1.2778316523004842 [Eh]
	 Correlation Energy        =      -1.6847825498944782 [Eh]
	 Total Energy              =    -424.5681050033714428 [Eh]

	 ================> DF-SCS-MP2 Energies <==================
	-----------------------------------------------------------
	 SCS Same-Spin Scale       =       0.3333333333333333 [-]
	 SCS Opposite-Spin Scale   =       1.2000000000000000 [-]
	 SCS Same-Spin Energy      =      -0.1356502991979980 [Eh]
	 SCS Opposite-Spin Energy  =      -1.5333979827605810 [Eh]
	 SCS Correlation Energy    =      -1.6690482819585790 [Eh]
	 SCS Total Energy          =    -424.5523707354355452 [Eh]
	-----------------------------------------------------------

  Dipole Moment: [D]
     X:     0.1802      Y:     1.9819      Z:    -0.0853     Total:     1.9919

*** Psi4 exiting successfully. Buy a developer a beer!
