                               Psi4 1.4a3.dev225

  ==> Input File <==

--------------------------------------------------------------------------
#psi4
#
memory 32 gb

molecule  {
0 1
  F       -0.8877360     1.6438520    -0.0000090
  O        0.5963310    -1.5951230    -0.0000100
  N        1.4876940     0.5283410     0.0000080
  C       -0.8947074     0.2712977    -0.0000001
  C       -1.9951030    -0.4179850     0.7549870
  C       -1.9951080    -0.4179870    -0.7549750
  C        0.4689560    -0.3659830     0.0000000
  C        2.8766980     0.1124380     0.0000010
  H       -2.6981940     0.2412550     1.2525940
  H       -1.7416620    -1.3380720     1.2694370
  H       -1.7416990    -1.3380720    -1.2694420
  H       -2.6981990     0.2412650    -1.2525680
  H        1.2473010     1.5101930     0.0000000
  H        3.3936150     0.4789380     0.8911940
  H        3.3935940     0.4788830    -0.8912260
  H        2.8865570    -0.9771380     0.0000350
units angstrom
no_reorient  #important for SAPT in psi4, default
symmetry c1  #important for SAPT in psi4, default
}

set PROPERTIES_ORIGIN ["COM"]
properties('MP2/aug-cc-pvtz', properties = ['dipole'])
--------------------------------------------------------------------------

    Molecular point group: c1
  Charge       = 0
  Multiplicity = 1
  Basis Set: AUG-CC-PVTZ
    Blend: AUG-CC-PVTZ
  Basis Set: (AUG-CC-PVTZ AUX)
    Blend: AUG-CC-PVTZ-JKFIT

    Orbital Energies [Eh]
    ---------------------

    Doubly Occupied:

       1A    -26.310262     2A    -20.520993     3A    -15.593411
       4A    -11.361289     5A    -11.334534     6A    -11.262988
       7A    -11.247921     8A    -11.247257     9A     -1.624187
      10A     -1.377803    11A     -1.237028    12A     -1.162559
      13A     -0.980317    14A     -0.876742    15A     -0.850337
      16A     -0.787763    17A     -0.770486    18A     -0.706761
      19A     -0.693301    20A     -0.648687    21A     -0.641862
      22A     -0.627466    23A     -0.626613    24A     -0.583966
      25A     -0.554449    26A     -0.549585    27A     -0.525856
      28A     -0.469645    29A     -0.429035    30A     -0.422998
      31A     -0.397783

  @DF-RHF Final Energy:  -422.88595712812270

   => Energetics <=

    Nuclear Repulsion Energy =            388.5394771001442678
    One-Electron Energy =               -1350.0030971684161614
    Two-Electron Energy =                 538.5776629401491391
    Total Energy =                       -422.8859571281227545
  Basis Set: (AUG-CC-PVTZ AUX)
    Blend: AUG-CC-PVTZ-RI
    Molecular point group: c1

    Geometry (in Angstrom), charge = 0, multiplicity = 1:

       Center              X                  Y                   Z               Mass
    ------------   -----------------  -----------------  -----------------  -----------------
         F           -0.862886133866     1.621741555559    -0.000008658955    18.998403162730
         O            0.621180866134    -1.617233444441    -0.000009658955    15.994914619570
         N            1.512543866134     0.506230555559     0.000008341045    14.003074004430
         C           -0.869857533866     0.249187255559     0.000000241045    12.000000000000
         C           -1.970253133866    -0.440095444441     0.754987341045    12.000000000000
         C           -1.970258133866    -0.440097444441    -0.754974658955    12.000000000000
         C            0.493805866134    -0.388093444441     0.000000341045    12.000000000000
         C            2.901547866134     0.090327555559     0.000001341045    12.000000000000
         H           -2.673344133866     0.219144555559     1.252594341045     1.007825032230
         H           -1.716812133866    -1.360182444441     1.269437341045     1.007825032230
         H           -1.716849133866    -1.360182444441    -1.269441658955     1.007825032230
         H           -2.673349133866     0.219154555559    -1.252567658955     1.007825032230
         H            1.272150866134     1.488082555559     0.000000341045     1.007825032230
         H            3.418464866134     0.456827555559     0.891194341045     1.007825032230
         H            3.418443866134     0.456772555559    -0.891225658955     1.007825032230
         H            2.911406866134    -0.999248444441     0.000035341045     1.007825032230

  Basis Set: AUG-CC-PVTZ
    Blend: AUG-CC-PVTZ
  Basis Set: (AUG-CC-PVTZ AUX)
    Blend: AUG-CC-PVTZ-JKFIT
	 Reference Energy          =    -422.8859571281226977 [Eh]
	 Singles Energy            =      -0.0000000000000000 [Eh]
	 Same-Spin Energy          =      -0.4067796469288658 [Eh]
	 Opposite-Spin Energy      =      -1.2774488598692593 [Eh]
	 Correlation Energy        =      -1.6842285067981251 [Eh]
	 Total Energy              =    -424.5701856349208470 [Eh]

	 ================> DF-SCS-MP2 Energies <==================
	-----------------------------------------------------------
	 SCS Same-Spin Scale       =       0.3333333333333333 [-]
	 SCS Opposite-Spin Scale   =       1.2000000000000000 [-]
	 SCS Same-Spin Energy      =      -0.1355932156429552 [Eh]
	 SCS Opposite-Spin Energy  =      -1.5329386318431111 [Eh]
	 SCS Correlation Energy    =      -1.6685318474860664 [Eh]
	 SCS Total Energy          =    -424.5544889756087628 [Eh]
	-----------------------------------------------------------

  Dipole Moment: [D]
     X:     0.4336      Y:     2.0291      Z:     0.0000     Total:     2.0749

*** Psi4 exiting successfully. Buy a developer a beer!
