                               Psi4 1.3.2 release

  ==> Input File <==

--------------------------------------------------------------------------
#psi4
#
memory 32 gb

molecule  {
0 1
  F       -0.9120405     1.6437633    -0.0000089
  O        0.5963310    -1.5951230    -0.0000100
  N        1.4876940     0.5283410     0.0000080
  C       -0.8948090     0.2512980     0.0000000
  C       -1.9951030    -0.4179850     0.7549870
  C       -1.9951080    -0.4179870    -0.7549750
  C        0.4689560    -0.3659830     0.0000000
  C        2.8766980     0.1124380     0.0000010
  H       -2.6981940     0.2412550     1.2525940
  H       -1.7416620    -1.3380720     1.2694370
  H       -1.7416990    -1.3380720    -1.2694420
  H       -2.6981990     0.2412650    -1.2525680
  H        1.2473010     1.5101930     0.0000000
  H        3.3936150     0.4789380     0.8911940
  H        3.3935940     0.4788830    -0.8912260
  H        2.8865570    -0.9771380     0.0000350
units angstrom
no_reorient  #important for SAPT in psi4, default
symmetry c1  #important for SAPT in psi4, default
}

set PROPERTIES_ORIGIN ["COM"]
properties('MP2/aug-cc-pvtz', properties = ['dipole'])
--------------------------------------------------------------------------

    Molecular point group: c1
  Charge       = 0
  Multiplicity = 1
  Basis Set: AUG-CC-PVTZ
    Blend: AUG-CC-PVTZ
  Basis Set: (AUG-CC-PVTZ AUX)
    Blend: AUG-CC-PVTZ-JKFIT

    Orbital Energies [Eh]
    ---------------------

    Doubly Occupied:

       1A    -26.305054     2A    -20.521905     3A    -15.594508
       4A    -11.362486     5A    -11.334294     6A    -11.263679
       7A    -11.247959     8A    -11.247294     9A     -1.613355
      10A     -1.379313    11A     -1.237857    12A     -1.166650
      13A     -0.981308    14A     -0.876758    15A     -0.851473
      16A     -0.787008    17A     -0.766816    18A     -0.703274
      19A     -0.686319    20A     -0.649617    21A     -0.641225
      22A     -0.627372    23A     -0.625963    24A     -0.585235
      25A     -0.556035    26A     -0.550291    27A     -0.526154
      28A     -0.469640    29A     -0.433142    30A     -0.424954
      31A     -0.398562

  @DF-RHF Final Energy:  -422.88581529371464

   => Energetics <=

    Nuclear Repulsion Energy =            388.3944288889489371
    One-Electron Energy =               -1349.7294932200704807
    Two-Electron Energy =                 538.4492490374068439
    Total Energy =                       -422.8858152937146997
  Basis Set: (AUG-CC-PVTZ AUX)
    Blend: AUG-CC-PVTZ-RI
    Molecular point group: c1

    Geometry (in Angstrom), charge = 0, multiplicity = 1:

       Center              X                  Y                   Z               Mass
    ------------   -----------------  -----------------  -----------------  -----------------
         F           -0.883235654572     1.623717468914    -0.000008585436    18.998403162730
         O            0.625135845428    -1.615168831086    -0.000009685436    15.994914619570
         N            1.516498845428     0.508295168914     0.000008314564    14.003074004430
         C           -0.866004154572     0.231252168914     0.000000314564    12.000000000000
         C           -1.966298154572    -0.438030831086     0.754987314564    12.000000000000
         C           -1.966303154572    -0.438032831086    -0.754974685436    12.000000000000
         C            0.497760845428    -0.386028831086     0.000000314564    12.000000000000
         C            2.905502845428     0.092392168914     0.000001314564    12.000000000000
         H           -2.669389154572     0.221209168914     1.252594314564     1.007825032230
         H           -1.712857154572    -1.358117831086     1.269437314564     1.007825032230
         H           -1.712894154572    -1.358117831086    -1.269441685436     1.007825032230
         H           -2.669394154572     0.221219168914    -1.252567685436     1.007825032230
         H            1.276105845428     1.490147168914     0.000000314564     1.007825032230
         H            3.422419845428     0.458892168914     0.891194314564     1.007825032230
         H            3.422398845428     0.458837168914    -0.891225685436     1.007825032230
         H            2.915361845428    -0.997183831086     0.000035314564     1.007825032230

  Basis Set: AUG-CC-PVTZ
    Blend: AUG-CC-PVTZ
  Basis Set: (AUG-CC-PVTZ AUX)
    Blend: AUG-CC-PVTZ-JKFIT
	 Reference Energy          =    -422.8858152937146428 [Eh]
	 Singles Energy            =      -0.0000000000000000 [Eh]
	 Same-Spin Energy          =      -0.4068681188400856 [Eh]
	 Opposite-Spin Energy      =      -1.2778309213426968 [Eh]
	 Correlation Energy        =      -1.6846990401827824 [Eh]
	 Total Energy              =    -424.5705143338974494 [Eh]

	 ================> DF-SCS-MP2 Energies <==================
	-----------------------------------------------------------
	 SCS Same-Spin Scale       =       0.3333333333333333 [-]
	 SCS Opposite-Spin Scale   =       1.2000000000000000 [-]
	 SCS Same-Spin Energy      =      -0.1356227062800285 [Eh]
	 SCS Opposite-Spin Energy  =      -1.5333971056112361 [Eh]
	 SCS Correlation Energy    =      -1.6690198118912647 [Eh]
	 SCS Total Energy          =    -424.5548351056058891 [Eh]
	-----------------------------------------------------------

  Dipole Moment: [D]
     X:     0.4743      Y:     1.9430      Z:     0.0000     Total:     2.0001

*** Psi4 exiting successfully. Buy a developer a beer!
