                               Psi4 1.4a3.dev225

  ==> Input File <==

--------------------------------------------------------------------------
#psi4
#
memory 32 gb

molecule  {
0 1
  F       -0.8877360     1.6438520    -0.0000090
  O        0.5963310    -1.5951230    -0.0000100
  N        1.4876940     0.5283410     0.0000080
  C       -0.8948090     0.2512980     0.0000000
  C       -1.9951030    -0.4179850     0.7549870
  C       -1.9951080    -0.4179870    -0.7549750
  C        0.5145071    -0.3866008     0.0000000
  C        2.8766980     0.1124380     0.0000010
  H       -2.6981940     0.2412550     1.2525940
  H       -1.7416620    -1.3380720     1.2694370
  H       -1.7416990    -1.3380720    -1.2694420
  H       -2.6981990     0.2412650    -1.2525680
  H        1.2473010     1.5101930     0.0000000
  H        3.3936150     0.4789380     0.8911940
  H        3.3935940     0.4788830    -0.8912260
  H        2.8865570    -0.9771380     0.0000350
units angstrom
no_reorient  #important for SAPT in psi4, default
symmetry c1  #important for SAPT in psi4, default
}

set PROPERTIES_ORIGIN ["COM"]
properties('MP2/aug-cc-pvtz', properties = ['dipole'])
--------------------------------------------------------------------------

    Molecular point group: c1
  Charge       = 0
  Multiplicity = 1
  Basis Set: AUG-CC-PVTZ
    Blend: AUG-CC-PVTZ
  Basis Set: (AUG-CC-PVTZ AUX)
    Blend: AUG-CC-PVTZ-JKFIT

    Orbital Energies [Eh]
    ---------------------

    Doubly Occupied:

       1A    -26.301856     2A    -20.524414     3A    -15.595576
       4A    -11.360100     5A    -11.330678     6A    -11.264714
       7A    -11.243931     8A    -11.243269     9A     -1.609920
      10A     -1.394372    11A     -1.248004    12A     -1.160788
      13A     -0.978910    14A     -0.866029    15A     -0.847432
      16A     -0.795183    17A     -0.761881    18A     -0.699891
      19A     -0.683071    20A     -0.651156    21A     -0.642964
      22A     -0.631881    23A     -0.627523    24A     -0.581921
      25A     -0.558384    26A     -0.554097    27A     -0.525854
      28A     -0.471526    29A     -0.430818    30A     -0.417732
      31A     -0.403583

  @DF-RHF Final Energy:  -422.88539024045338

   => Energetics <=

    Nuclear Repulsion Energy =            388.4694669049437152
    One-Electron Energy =               -1349.8947952651981268
    Two-Electron Energy =                 538.5399381198010360
    Total Energy =                       -422.8853902404533756
  Basis Set: (AUG-CC-PVTZ AUX)
    Blend: AUG-CC-PVTZ-RI
    Molecular point group: c1

    Geometry (in Angstrom), charge = 0, multiplicity = 1:

       Center              X                  Y                   Z               Mass
    ------------   -----------------  -----------------  -----------------  -----------------
         F           -0.867545271882     1.625905353585    -0.000008669206    18.998403162730
         O            0.616521728118    -1.613069646415    -0.000009669206    15.994914619570
         N            1.507884728118     0.510394353585     0.000008330794    14.003074004430
         C           -0.874618271882     0.233351353585     0.000000330794    12.000000000000
         C           -1.974912271882    -0.435931646415     0.754987330794    12.000000000000
         C           -1.974917271882    -0.435933646415    -0.754974669206    12.000000000000
         C            0.534697828118    -0.404547446415     0.000000330794    12.000000000000
         C            2.896888728118     0.094491353585     0.000001330794    12.000000000000
         H           -2.678003271882     0.223308353585     1.252594330794     1.007825032230
         H           -1.721471271882    -1.356018646415     1.269437330794     1.007825032230
         H           -1.721508271882    -1.356018646415    -1.269441669206     1.007825032230
         H           -2.678008271882     0.223318353585    -1.252567669206     1.007825032230
         H            1.267491728118     1.492246353585     0.000000330794     1.007825032230
         H            3.413805728118     0.460991353585     0.891194330794     1.007825032230
         H            3.413784728118     0.460936353585    -0.891225669206     1.007825032230
         H            2.906747728118    -0.995084646415     0.000035330794     1.007825032230

  Basis Set: AUG-CC-PVTZ
    Blend: AUG-CC-PVTZ
  Basis Set: (AUG-CC-PVTZ AUX)
    Blend: AUG-CC-PVTZ-JKFIT
	 Reference Energy          =    -422.8853902404533756 [Eh]
	 Singles Energy            =      -0.0000000000000000 [Eh]
	 Same-Spin Energy          =      -0.4061899614080608 [Eh]
	 Opposite-Spin Energy      =      -1.2764764599725482 [Eh]
	 Correlation Energy        =      -1.6826664213806091 [Eh]
	 Total Energy              =    -424.5680566618339640 [Eh]

	 ================> DF-SCS-MP2 Energies <==================
	-----------------------------------------------------------
	 SCS Same-Spin Scale       =       0.3333333333333333 [-]
	 SCS Opposite-Spin Scale   =       1.2000000000000000 [-]
	 SCS Same-Spin Energy      =      -0.1353966538026869 [Eh]
	 SCS Opposite-Spin Energy  =      -1.5317717519670577 [Eh]
	 SCS Correlation Energy    =      -1.6671684057697447 [Eh]
	 SCS Total Energy          =    -424.5525586462231331 [Eh]
	-----------------------------------------------------------

  Dipole Moment: [D]
     X:     0.7211      Y:     1.8869      Z:     0.0000     Total:     2.0200

*** Psi4 exiting successfully. Buy a developer a beer!
