                               Psi4 1.4a3.dev225

  ==> Input File <==

--------------------------------------------------------------------------
#psi4
#
memory 32 gb

molecule  {
0 1
  F       -0.8877360     1.6438520    -0.0000090
  O        0.5963310    -1.5951230    -0.0000100
  N        1.4876940     0.5283410     0.0000080
  C       -0.8950630     0.2012986     0.0000003
  C       -1.9951030    -0.4179850     0.7549870
  C       -1.9951080    -0.4179870    -0.7549750
  C        0.4689560    -0.3659830     0.0000000
  C        2.8766980     0.1124380     0.0000010
  H       -2.6981940     0.2412550     1.2525940
  H       -1.7416620    -1.3380720     1.2694370
  H       -1.7416990    -1.3380720    -1.2694420
  H       -2.6981990     0.2412650    -1.2525680
  H        1.2473010     1.5101930     0.0000000
  H        3.3936150     0.4789380     0.8911940
  H        3.3935940     0.4788830    -0.8912260
  H        2.8865570    -0.9771380     0.0000350
units angstrom
no_reorient  #important for SAPT in psi4, default
symmetry c1  #important for SAPT in psi4, default
}

set PROPERTIES_ORIGIN ["COM"]
properties('MP2/aug-cc-pvtz', properties = ['dipole'])
--------------------------------------------------------------------------

    Molecular point group: c1
  Charge       = 0
  Multiplicity = 1
  Basis Set: AUG-CC-PVTZ
    Blend: AUG-CC-PVTZ
  Basis Set: (AUG-CC-PVTZ AUX)
    Blend: AUG-CC-PVTZ-JKFIT

    Orbital Energies [Eh]
    ---------------------

    Doubly Occupied:

       1A    -26.292651     2A    -20.522325     3A    -15.595033
       4A    -11.362603     5A    -11.334968     6A    -11.264088
       7A    -11.249740     8A    -11.249076     9A     -1.589161
      10A     -1.381411    11A     -1.237965    12A     -1.178146
      13A     -0.982782    14A     -0.878994    15A     -0.855506
      16A     -0.785122    17A     -0.756327    18A     -0.699108
      19A     -0.671140    20A     -0.649901    21A     -0.639704
      22A     -0.627254    23A     -0.622010    24A     -0.585129
      25A     -0.559456    26A     -0.550370    27A     -0.527637
      28A     -0.470495    29A     -0.443783    30A     -0.428701
      31A     -0.398682

  @DF-RHF Final Energy:  -422.88219267254061

   => Energetics <=

    Nuclear Repulsion Energy =            388.5702725744396275
    One-Electron Energy =               -1350.1263941277477443
    Two-Electron Energy =                 538.6739288807675621
    Total Energy =                       -422.8821926725405547
  Basis Set: (AUG-CC-PVTZ AUX)
    Blend: AUG-CC-PVTZ-RI
    Molecular point group: c1

    Geometry (in Angstrom), charge = 0, multiplicity = 1:

       Center              X                  Y                   Z               Mass
    ------------   -----------------  -----------------  -----------------  -----------------
         F           -0.862849680451     1.628917332364    -0.000008699960    18.998403162730
         O            0.621217319549    -1.610057667636    -0.000009699960    15.994914619570
         N            1.512580319549     0.513406332364     0.000008300040    14.003074004430
         C           -0.870176680451     0.186363932364     0.000000600040    12.000000000000
         C           -1.970216680451    -0.432919667636     0.754987300040    12.000000000000
         C           -1.970221680451    -0.432921667636    -0.754974699960    12.000000000000
         C            0.493842319549    -0.380917667636     0.000000300040    12.000000000000
         C            2.901584319549     0.097503332364     0.000001300040    12.000000000000
         H           -2.673307680451     0.226320332364     1.252594300040     1.007825032230
         H           -1.716775680451    -1.353006667636     1.269437300040     1.007825032230
         H           -1.716812680451    -1.353006667636    -1.269441699960     1.007825032230
         H           -2.673312680451     0.226330332364    -1.252567699960     1.007825032230
         H            1.272187319549     1.495258332364     0.000000300040     1.007825032230
         H            3.418501319549     0.464003332364     0.891194300040     1.007825032230
         H            3.418480319549     0.463948332364    -0.891225699960     1.007825032230
         H            2.911443319549    -0.992072667636     0.000035300040     1.007825032230

  Basis Set: AUG-CC-PVTZ
    Blend: AUG-CC-PVTZ
  Basis Set: (AUG-CC-PVTZ AUX)
    Blend: AUG-CC-PVTZ-JKFIT
	 Reference Energy          =    -422.8821926725406115 [Eh]
	 Singles Energy            =      -0.0000000000000000 [Eh]
	 Same-Spin Energy          =      -0.4071808566343964 [Eh]
	 Opposite-Spin Energy      =      -1.2788277334454097 [Eh]
	 Correlation Energy        =      -1.6860085900798061 [Eh]
	 Total Energy              =    -424.5682012626203914 [Eh]

	 ================> DF-SCS-MP2 Energies <==================
	-----------------------------------------------------------
	 SCS Same-Spin Scale       =       0.3333333333333333 [-]
	 SCS Opposite-Spin Scale   =       1.2000000000000000 [-]
	 SCS Same-Spin Energy      =      -0.1357269522114655 [Eh]
	 SCS Opposite-Spin Energy  =      -1.5345932801344915 [Eh]
	 SCS Correlation Energy    =      -1.6703202323459569 [Eh]
	 SCS Total Energy          =    -424.5525129048865551 [Eh]
	-----------------------------------------------------------

  Dipole Moment: [D]
     X:     0.4101      Y:     1.7430      Z:     0.0000     Total:     1.7906

*** Psi4 exiting successfully. Buy a developer a beer!
