                               Psi4 1.3.2 release

  ==> Input File <==

--------------------------------------------------------------------------
#psi4
#
memory 32 gb

molecule  {
0 1
  F       -0.8877360     1.6438520    -0.0000090
  O        0.5963310    -1.5951230    -0.0000100
  N        1.5031469     0.5104254     0.0000079
  C       -0.8948090     0.2512980     0.0000000
  C       -1.9951030    -0.4179850     0.7549870
  C       -1.9951080    -0.4179870    -0.7549750
  C        0.4689560    -0.3659830     0.0000000
  C        2.8766980     0.1124380     0.0000010
  H       -2.6981940     0.2412550     1.2525940
  H       -1.7416620    -1.3380720     1.2694370
  H       -1.7416990    -1.3380720    -1.2694420
  H       -2.6981990     0.2412650    -1.2525680
  H        1.2473010     1.5101930     0.0000000
  H        3.3936150     0.4789380     0.8911940
  H        3.3935940     0.4788830    -0.8912260
  H        2.8865570    -0.9771380     0.0000350
units angstrom
no_reorient  #important for SAPT in psi4, default
symmetry c1  #important for SAPT in psi4, default
}

set PROPERTIES_ORIGIN ["COM"]
properties('MP2/aug-cc-pvtz', properties = ['dipole'])
--------------------------------------------------------------------------

    Molecular point group: c1
  Charge       = 0
  Multiplicity = 1
  Basis Set: AUG-CC-PVTZ
    Blend: AUG-CC-PVTZ
  Basis Set: (AUG-CC-PVTZ AUX)
    Blend: AUG-CC-PVTZ-JKFIT

    Orbital Energies [Eh]
    ---------------------

    Doubly Occupied:

       1A    -26.306013     2A    -20.520365     3A    -15.594597
       4A    -11.361470     5A    -11.335755     6A    -11.261479
       7A    -11.249076     8A    -11.248412     9A     -1.614348
      10A     -1.378999    11A     -1.238032    12A     -1.167786
      13A     -0.982982    14A     -0.876244    15A     -0.852314
      16A     -0.781542    17A     -0.766984    18A     -0.704767
      19A     -0.687345    20A     -0.649982    21A     -0.644169
      22A     -0.628876    23A     -0.626798    24A     -0.586322
      25A     -0.555637    26A     -0.545732    27A     -0.526461
      28A     -0.469953    29A     -0.434054    30A     -0.425339
      31A     -0.395999

  @DF-RHF Final Energy:  -422.88472038336477

   => Energetics <=

    Nuclear Repulsion Energy =            388.5887177831890540
    One-Electron Energy =               -1350.1112132907433079
    Two-Electron Energy =                 538.6377751241894885
    Total Energy =                       -422.8847203833647654
  Basis Set: (AUG-CC-PVTZ AUX)
    Blend: AUG-CC-PVTZ-RI
    Molecular point group: c1

    Geometry (in Angstrom), charge = 0, multiplicity = 1:

       Center              X                  Y                   Z               Mass
    ------------   -----------------  -----------------  -----------------  -----------------
         F           -0.864724257521     1.625934910243    -0.000008657244    18.998403162730
         O            0.619342742479    -1.613040089757    -0.000009657244    15.994914619570
         N            1.526158642479     0.492508310243     0.000008242756    14.003074004430
         C           -0.871797257521     0.233380910243     0.000000342756    12.000000000000
         C           -1.972091257521    -0.435902089757     0.754987342756    12.000000000000
         C           -1.972096257521    -0.435904089757    -0.754974657244    12.000000000000
         C            0.491967742479    -0.383900089757     0.000000342756    12.000000000000
         C            2.899709742479     0.094520910243     0.000001342756    12.000000000000
         H           -2.675182257521     0.223337910243     1.252594342756     1.007825032230
         H           -1.718650257521    -1.355989089757     1.269437342756     1.007825032230
         H           -1.718687257521    -1.355989089757    -1.269441657244     1.007825032230
         H           -2.675187257521     0.223347910243    -1.252567657244     1.007825032230
         H            1.270312742479     1.492275910243     0.000000342756     1.007825032230
         H            3.416626742479     0.461020910243     0.891194342756     1.007825032230
         H            3.416605742479     0.460965910243    -0.891225657244     1.007825032230
         H            2.909568742479    -0.995055089757     0.000035342756     1.007825032230

  Basis Set: AUG-CC-PVTZ
    Blend: AUG-CC-PVTZ
  Basis Set: (AUG-CC-PVTZ AUX)
    Blend: AUG-CC-PVTZ-JKFIT
	 Reference Energy          =    -422.8847203833647654 [Eh]
	 Singles Energy            =      -0.0000000000000000 [Eh]
	 Same-Spin Energy          =      -0.4070689843102339 [Eh]
	 Opposite-Spin Energy      =      -1.2780172375871817 [Eh]
	 Correlation Energy        =      -1.6850862218974156 [Eh]
	 Total Energy              =    -424.5698066052621584 [Eh]

	 ================> DF-SCS-MP2 Energies <==================
	-----------------------------------------------------------
	 SCS Same-Spin Scale       =       0.3333333333333333 [-]
	 SCS Opposite-Spin Scale   =       1.2000000000000000 [-]
	 SCS Same-Spin Energy      =      -0.1356896614367446 [Eh]
	 SCS Opposite-Spin Energy  =      -1.5336206851046179 [Eh]
	 SCS Correlation Energy    =      -1.6693103465413626 [Eh]
	 SCS Total Energy          =    -424.5540307299061169 [Eh]
	-----------------------------------------------------------

  Dipole Moment: [D]
     X:     0.3674      Y:     1.9696      Z:     0.0000     Total:     2.0036

*** Psi4 exiting successfully. Buy a developer a beer!
