                               Psi4 1.3.2 release

  ==> Input File <==

--------------------------------------------------------------------------
#psi4
#
memory 32 gb

molecule  {
0 1
  O        0.9504380     0.1228240    -0.1741910
  O        0.1670080    -1.9538060     0.3788190
  N       -1.2208799    -0.3682298    -0.6156465
  C       -1.4380940     1.1445880    -0.6015250
  C       -1.5086480     1.9908930     0.6655530
  C       -2.4416600    -1.0731650    -0.0476160
  C       -0.0399700    -0.8055270    -0.0009900
  C        2.2764760    -0.3829840     0.0991100
  C        3.2256880     0.7754290    -0.1091670
  H       -0.6200800     1.4811510    -1.2396720
  H       -2.3650680     1.2369900    -1.1776810
  H       -2.3202370     1.6568460     1.3177610
  H       -0.5663980     1.9180080     1.2126270
  H       -1.6843650     3.0420300     0.4158060
  H       -2.9458070    -0.7386130     0.8669600
  H       -2.1365070    -2.1105210     0.0765900
  H       -3.1412900    -0.9939370    -0.8846800
  H        2.3097600    -0.7656990     1.1223780
  H        2.4881280    -1.2160740    -0.5765640
  H        3.1624490     1.1443740    -1.1352360
  H        2.9853640     1.5953270     0.5713660
  H        4.2535110     0.4542820     0.0824610
units angstrom
no_reorient  #important for SAPT in psi4, default
symmetry c1  #important for SAPT in psi4, default
}

set PROPERTIES_ORIGIN ["COM"]
properties('MP2/aug-cc-pvtz', properties = ['dipole'])
--------------------------------------------------------------------------

    Molecular point group: c1
  Charge       = 0
  Multiplicity = 1
  Basis Set: AUG-CC-PVTZ
    Blend: AUG-CC-PVTZ
  Basis Set: (AUG-CC-PVTZ AUX)
    Blend: AUG-CC-PVTZ-JKFIT

    Orbital Energies [Eh]
    ---------------------

    Doubly Occupied:

       1A    -20.597431     2A    -20.529290     3A    -15.592234
       4A    -11.397277     5A    -11.285528     6A    -11.264934
       7A    -11.253855     8A    -11.227802     9A    -11.223684
      10A     -1.450841    11A     -1.345265    12A     -1.224635
      13A     -1.036449    14A     -1.020832    15A     -0.937345
      16A     -0.873618    17A     -0.842444    18A     -0.764368
      19A     -0.695377    20A     -0.681595    21A     -0.674339
      22A     -0.629934    23A     -0.611542    24A     -0.591547
      25A     -0.584793    26A     -0.564428    27A     -0.553214
      28A     -0.545841    29A     -0.530685    30A     -0.513524
      31A     -0.508359    32A     -0.505838    33A     -0.479615
      34A     -0.458336    35A     -0.447704    36A     -0.398392

  @DF-RHF Final Energy:  -439.10944696881631

   => Energetics <=

    Nuclear Repulsion Energy =            489.2766862611699707
    One-Electron Energy =               -1569.0864723760826109
    Two-Electron Energy =                 640.7003391460963257
    Total Energy =                       -439.1094469688163144
  Basis Set: (AUG-CC-PVTZ AUX)
    Blend: AUG-CC-PVTZ-RI
    Molecular point group: c1

    Geometry (in Angstrom), charge = 0, multiplicity = 1:

       Center              X                  Y                   Z               Mass
    ------------   -----------------  -----------------  -----------------  -----------------
         O            0.942216434871     0.183050095311    -0.138900940218    15.994914619570
         O            0.158786434871    -1.893579904689     0.414109059782    15.994914619570
         N           -1.229101465129    -0.308003704689    -0.580356440218    14.003074004430
         C           -1.446315565129     1.204814095311    -0.566234940218    12.000000000000
         C           -1.516869565129     2.051119095311     0.700843059782    12.000000000000
         C           -2.449881565129    -1.012938904689    -0.012325940218    12.000000000000
         C           -0.048191565129    -0.745300904689     0.034300059782    12.000000000000
         C            2.268254434871    -0.322757904689     0.134400059782    12.000000000000
         C            3.217466434871     0.835655095311    -0.073876940218    12.000000000000
         H           -0.628301565129     1.541377095311    -1.204381940218     1.007825032230
         H           -2.373289565129     1.297216095311    -1.142390940218     1.007825032230
         H           -2.328458565129     1.717072095311     1.353051059782     1.007825032230
         H           -0.574619565129     1.978234095311     1.247917059782     1.007825032230
         H           -1.692586565129     3.102256095311     0.451096059782     1.007825032230
         H           -2.954028565129    -0.678386904689     0.902250059782     1.007825032230
         H           -2.144728565129    -2.050294904689     0.111880059782     1.007825032230
         H           -3.149511565129    -0.933710904689    -0.849389940218     1.007825032230
         H            2.301538434871    -0.705472904689     1.157668059782     1.007825032230
         H            2.479906434871    -1.155847904689    -0.541273940218     1.007825032230
         H            3.154227434871     1.204600095311    -1.099945940218     1.007825032230
         H            2.977142434871     1.655553095311     0.606656059782     1.007825032230
         H            4.245289434871     0.514508095311     0.117751059782     1.007825032230

  Basis Set: AUG-CC-PVTZ
    Blend: AUG-CC-PVTZ
  Basis Set: (AUG-CC-PVTZ AUX)
    Blend: AUG-CC-PVTZ-JKFIT
	 Reference Energy          =    -439.1094469688163144 [Eh]
	 Singles Energy            =      -0.0000000000000000 [Eh]
	 Same-Spin Energy          =      -0.4424173330345839 [Eh]
	 Opposite-Spin Energy      =      -1.4633538080824433 [Eh]
	 Correlation Energy        =      -1.9057711411170271 [Eh]
	 Total Energy              =    -441.0152181099333575 [Eh]

	 ================> DF-SCS-MP2 Energies <==================
	-----------------------------------------------------------
	 SCS Same-Spin Scale       =       0.3333333333333333 [-]
	 SCS Opposite-Spin Scale   =       1.2000000000000000 [-]
	 SCS Same-Spin Energy      =      -0.1474724443448613 [Eh]
	 SCS Opposite-Spin Energy  =      -1.7560245696989318 [Eh]
	 SCS Correlation Energy    =      -1.9034970140437930 [Eh]
	 SCS Total Energy          =    -441.0129439828601221 [Eh]
	-----------------------------------------------------------

  Dipole Moment: [D]
     X:    -0.2559      Y:     2.4287      Z:     0.1068     Total:     2.4445

*** Psi4 exiting successfully. Buy a developer a beer!
