                               Psi4 1.3.2 release

  ==> Input File <==

--------------------------------------------------------------------------
#psi4
#
memory 32 gb

molecule  {
0 1
  O        0.9504380     0.1228240    -0.1741910
  O        0.1670080    -1.9538060     0.3788190
  N       -1.2269662    -0.3533275    -0.5683085
  C       -1.4380940     1.1445880    -0.6015250
  C       -1.5086480     1.9908930     0.6655530
  C       -2.4416600    -1.0731650    -0.0476160
  C       -0.0399700    -0.8055270    -0.0009900
  C        2.2764760    -0.3829840     0.0991100
  C        3.2256880     0.7754290    -0.1091670
  H       -0.6200800     1.4811510    -1.2396720
  H       -2.3650680     1.2369900    -1.1776810
  H       -2.3202370     1.6568460     1.3177610
  H       -0.5663980     1.9180080     1.2126270
  H       -1.6843650     3.0420300     0.4158060
  H       -2.9458070    -0.7386130     0.8669600
  H       -2.1365070    -2.1105210     0.0765900
  H       -3.1412900    -0.9939370    -0.8846800
  H        2.3097600    -0.7656990     1.1223780
  H        2.4881280    -1.2160740    -0.5765640
  H        3.1624490     1.1443740    -1.1352360
  H        2.9853640     1.5953270     0.5713660
  H        4.2535110     0.4542820     0.0824610
units angstrom
no_reorient  #important for SAPT in psi4, default
symmetry c1  #important for SAPT in psi4, default
}

set PROPERTIES_ORIGIN ["COM"]
properties('MP2/aug-cc-pvtz', properties = ['dipole'])
--------------------------------------------------------------------------

    Molecular point group: c1
  Charge       = 0
  Multiplicity = 1
  Basis Set: AUG-CC-PVTZ
    Blend: AUG-CC-PVTZ
  Basis Set: (AUG-CC-PVTZ AUX)
    Blend: AUG-CC-PVTZ-JKFIT

    Orbital Energies [Eh]
    ---------------------

    Doubly Occupied:

       1A    -20.596577     2A    -20.526780     3A    -15.589924
       4A    -11.396375     5A    -11.285061     6A    -11.265052
       7A    -11.253898     8A    -11.226615     9A    -11.223390
      10A     -1.450369    11A     -1.344090    12A     -1.230165
      13A     -1.036417    14A     -1.021628    15A     -0.939649
      16A     -0.875010    17A     -0.842742    18A     -0.763661
      19A     -0.698327    20A     -0.681861    21A     -0.673925
      22A     -0.631611    23A     -0.611832    24A     -0.591889
      25A     -0.584396    26A     -0.563972    27A     -0.554482
      28A     -0.545839    29A     -0.532221    30A     -0.513696
      31A     -0.509127    32A     -0.506344    33A     -0.484794
      34A     -0.457761    35A     -0.446982    36A     -0.393427

  @DF-RHF Final Energy:  -439.11786498823443

   => Energetics <=

    Nuclear Repulsion Energy =            489.9355680095051184
    One-Electron Energy =               -1570.4070786265649531
    Two-Electron Energy =                 641.3536456288253476
    Total Energy =                       -439.1178649882343734
  Basis Set: (AUG-CC-PVTZ AUX)
    Blend: AUG-CC-PVTZ-RI
    Molecular point group: c1

    Geometry (in Angstrom), charge = 0, multiplicity = 1:

       Center              X                  Y                   Z               Mass
    ------------   -----------------  -----------------  -----------------  -----------------
         O            0.942866552349     0.181458283260    -0.143957421357    15.994914619570
         O            0.159436552349    -1.895171716740     0.409052578643    15.994914619570
         N           -1.234537647651    -0.294693216740    -0.538074921357    14.003074004430
         C           -1.445665447651     1.203222283260    -0.571291421357    12.000000000000
         C           -1.516219447651     2.049527283260     0.695786578643    12.000000000000
         C           -2.449231447651    -1.014530716740    -0.017382421357    12.000000000000
         C           -0.047541447651    -0.746892716740     0.029243578643    12.000000000000
         C            2.268904552349    -0.324349716740     0.129343578643    12.000000000000
         C            3.218116552349     0.834063283260    -0.078933421357    12.000000000000
         H           -0.627651447651     1.539785283260    -1.209438421357     1.007825032230
         H           -2.372639447651     1.295624283260    -1.147447421357     1.007825032230
         H           -2.327808447651     1.715480283260     1.347994578643     1.007825032230
         H           -0.573969447651     1.976642283260     1.242860578643     1.007825032230
         H           -1.691936447651     3.100664283260     0.446039578643     1.007825032230
         H           -2.953378447651    -0.679978716740     0.897193578643     1.007825032230
         H           -2.144078447651    -2.051886716740     0.106823578643     1.007825032230
         H           -3.148861447651    -0.935302716740    -0.854446421357     1.007825032230
         H            2.302188552349    -0.707064716740     1.152611578643     1.007825032230
         H            2.480556552349    -1.157439716740    -0.546330421357     1.007825032230
         H            3.154877552349     1.203008283260    -1.105002421357     1.007825032230
         H            2.977792552349     1.653961283260     0.601599578643     1.007825032230
         H            4.245939552349     0.512916283260     0.112694578643     1.007825032230

  Basis Set: AUG-CC-PVTZ
    Blend: AUG-CC-PVTZ
  Basis Set: (AUG-CC-PVTZ AUX)
    Blend: AUG-CC-PVTZ-JKFIT
	 Reference Energy          =    -439.1178649882344303 [Eh]
	 Singles Energy            =      -0.0000000000000000 [Eh]
	 Same-Spin Energy          =      -0.4420990941315114 [Eh]
	 Opposite-Spin Energy      =      -1.4620423019976392 [Eh]
	 Correlation Energy        =      -1.9041413961291505 [Eh]
	 Total Energy              =    -441.0220063843635785 [Eh]

	 ================> DF-SCS-MP2 Energies <==================
	-----------------------------------------------------------
	 SCS Same-Spin Scale       =       0.3333333333333333 [-]
	 SCS Opposite-Spin Scale   =       1.2000000000000000 [-]
	 SCS Same-Spin Energy      =      -0.1473663647105038 [Eh]
	 SCS Opposite-Spin Energy  =      -1.7544507623971670 [Eh]
	 SCS Correlation Energy    =      -1.9018171271076709 [Eh]
	 SCS Total Energy          =    -441.0196821153421070 [Eh]
	-----------------------------------------------------------

  Dipole Moment: [D]
     X:    -0.3330      Y:     2.4371      Z:     0.0002     Total:     2.4597

*** Psi4 exiting successfully. Buy a developer a beer!
