                               Psi4 1.3.2 release

  ==> Input File <==

--------------------------------------------------------------------------
#psi4
#
memory 32 gb

molecule  {
0 1
  O        0.9504380     0.1228240    -0.1741910
  O        0.1670080    -1.9538060     0.3788190
  N       -1.2573980    -0.2788160    -0.3316190
  C       -1.4380940     1.1445880    -0.6015250
  C       -1.5086480     1.9908930     0.6655530
  C       -2.4416600    -1.0731650    -0.0476160
  C       -0.0447653    -0.7792860     0.0953864
  C        2.2764760    -0.3829840     0.0991100
  C        3.2256880     0.7754290    -0.1091670
  H       -0.6200800     1.4811510    -1.2396720
  H       -2.3650680     1.2369900    -1.1776810
  H       -2.3202370     1.6568460     1.3177610
  H       -0.5663980     1.9180080     1.2126270
  H       -1.6843650     3.0420300     0.4158060
  H       -2.9458070    -0.7386130     0.8669600
  H       -2.1365070    -2.1105210     0.0765900
  H       -3.1412900    -0.9939370    -0.8846800
  H        2.3097600    -0.7656990     1.1223780
  H        2.4881280    -1.2160740    -0.5765640
  H        3.1624490     1.1443740    -1.1352360
  H        2.9853640     1.5953270     0.5713660
  H        4.2535110     0.4542820     0.0824610
units angstrom
no_reorient  #important for SAPT in psi4, default
symmetry c1  #important for SAPT in psi4, default
}

set PROPERTIES_ORIGIN ["COM"]
properties('MP2/aug-cc-pvtz', properties = ['dipole'])
--------------------------------------------------------------------------

    Molecular point group: c1
  Charge       = 0
  Multiplicity = 1
  Basis Set: AUG-CC-PVTZ
    Blend: AUG-CC-PVTZ
  Basis Set: (AUG-CC-PVTZ AUX)
    Blend: AUG-CC-PVTZ-JKFIT

    Orbital Energies [Eh]
    ---------------------

    Doubly Occupied:

       1A    -20.594090     2A    -20.520465     3A    -15.582883
       4A    -11.395321     5A    -11.283694     6A    -11.264533
       7A    -11.253347     8A    -11.222484     9A    -11.221078
      10A     -1.448419    11A     -1.341030    12A     -1.245424
      13A     -1.036214    14A     -1.024566    15A     -0.944302
      16A     -0.877643    17A     -0.842155    18A     -0.761955
      19A     -0.710716    20A     -0.682032    21A     -0.673889
      22A     -0.635574    23A     -0.613836    24A     -0.593337
      25A     -0.580582    26A     -0.567545    27A     -0.559736
      28A     -0.540516    29A     -0.535658    30A     -0.520292
      31A     -0.510167    32A     -0.506909    33A     -0.495644
      34A     -0.455681    35A     -0.444161    36A     -0.373918

  @DF-RHF Final Energy:  -439.13147152398756

   => Energetics <=

    Nuclear Repulsion Energy =            492.2287894039278058
    One-Electron Energy =               -1575.0009254263982257
    Two-Electron Energy =                 643.6406644984829200
    Total Energy =                       -439.1314715239875568
  Basis Set: (AUG-CC-PVTZ AUX)
    Blend: AUG-CC-PVTZ-RI
    Molecular point group: c1

    Geometry (in Angstrom), charge = 0, multiplicity = 1:

       Center              X                  Y                   Z               Mass
    ------------   -----------------  -----------------  -----------------  -----------------
         O            0.946556118828     0.171097202394    -0.178061773535    15.994914619570
         O            0.163126118828    -1.905532797606     0.374948226465    15.994914619570
         N           -1.261279881172    -0.230542797606    -0.335489773535    14.003074004430
         C           -1.441975881172     1.192861202394    -0.605395773535    12.000000000000
         C           -1.512529881172     2.039166202394     0.661682226465    12.000000000000
         C           -2.445541881172    -1.024891797606    -0.051486773535    12.000000000000
         C           -0.048647181172    -0.731012797606     0.091515626465    12.000000000000
         C            2.272594118828    -0.334710797606     0.095239226465    12.000000000000
         C            3.221806118828     0.823702202394    -0.113037773535    12.000000000000
         H           -0.623961881172     1.529424202394    -1.243542773535     1.007825032230
         H           -2.368949881172     1.285263202394    -1.181551773535     1.007825032230
         H           -2.324118881172     1.705119202394     1.313890226465     1.007825032230
         H           -0.570279881172     1.966281202394     1.208756226465     1.007825032230
         H           -1.688246881172     3.090303202394     0.411935226465     1.007825032230
         H           -2.949688881172    -0.690339797606     0.863089226465     1.007825032230
         H           -2.140388881172    -2.062247797606     0.072719226465     1.007825032230
         H           -3.145171881172    -0.945663797606    -0.888550773535     1.007825032230
         H            2.305878118828    -0.717425797606     1.118507226465     1.007825032230
         H            2.484246118828    -1.167800797606    -0.580434773535     1.007825032230
         H            3.158567118828     1.192647202394    -1.139106773535     1.007825032230
         H            2.981482118828     1.643600202394     0.567495226465     1.007825032230
         H            4.249629118828     0.502555202394     0.078590226465     1.007825032230

  Basis Set: AUG-CC-PVTZ
    Blend: AUG-CC-PVTZ
  Basis Set: (AUG-CC-PVTZ AUX)
    Blend: AUG-CC-PVTZ-JKFIT
	 Reference Energy          =    -439.1314715239875568 [Eh]
	 Singles Energy            =      -0.0000000000000000 [Eh]
	 Same-Spin Energy          =      -0.4420175679334706 [Eh]
	 Opposite-Spin Energy      =      -1.4599927916680171 [Eh]
	 Correlation Energy        =      -1.9020103596014877 [Eh]
	 Total Energy              =    -441.0334818835890474 [Eh]

	 ================> DF-SCS-MP2 Energies <==================
	-----------------------------------------------------------
	 SCS Same-Spin Scale       =       0.3333333333333333 [-]
	 SCS Opposite-Spin Scale   =       1.2000000000000000 [-]
	 SCS Same-Spin Energy      =      -0.1473391893111569 [Eh]
	 SCS Opposite-Spin Energy  =      -1.7519913500016204 [Eh]
	 SCS Correlation Energy    =      -1.8993305393127773 [Eh]
	 SCS Total Energy          =    -441.0308020633003139 [Eh]
	-----------------------------------------------------------

  Dipole Moment: [D]
     X:    -0.5495      Y:     2.4034      Z:    -0.3749     Total:     2.4937

*** Psi4 exiting successfully. Buy a developer a beer!
