                               Psi4 1.3.2 release

  ==> Input File <==

--------------------------------------------------------------------------
#psi4
#
memory 32 gb

molecule  {
0 1
  O        0.9504380     0.1228240    -0.1741910
  O        0.1670080    -1.9538060     0.3788190
  N       -1.2573980    -0.2788160    -0.3316190
  C       -1.4380940     1.1445880    -0.6015250
  C       -1.5086480     1.9908930     0.6655530
  C       -2.4416600    -1.0731650    -0.0476160
  C       -0.0543558    -0.7268039     0.2881392
  C        2.2764760    -0.3829840     0.0991100
  C        3.2256880     0.7754290    -0.1091670
  H       -0.6200800     1.4811510    -1.2396720
  H       -2.3650680     1.2369900    -1.1776810
  H       -2.3202370     1.6568460     1.3177610
  H       -0.5663980     1.9180080     1.2126270
  H       -1.6843650     3.0420300     0.4158060
  H       -2.9458070    -0.7386130     0.8669600
  H       -2.1365070    -2.1105210     0.0765900
  H       -3.1412900    -0.9939370    -0.8846800
  H        2.3097600    -0.7656990     1.1223780
  H        2.4881280    -1.2160740    -0.5765640
  H        3.1624490     1.1443740    -1.1352360
  H        2.9853640     1.5953270     0.5713660
  H        4.2535110     0.4542820     0.0824610
units angstrom
no_reorient  #important for SAPT in psi4, default
symmetry c1  #important for SAPT in psi4, default
}

set PROPERTIES_ORIGIN ["COM"]
properties('MP2/aug-cc-pvtz', properties = ['dipole'])
--------------------------------------------------------------------------

    Molecular point group: c1
  Charge       = 0
  Multiplicity = 1
  Basis Set: AUG-CC-PVTZ
    Blend: AUG-CC-PVTZ
  Basis Set: (AUG-CC-PVTZ AUX)
    Blend: AUG-CC-PVTZ-JKFIT

    Orbital Energies [Eh]
    ---------------------

    Doubly Occupied:

       1A    -20.593837     2A    -20.530862     3A    -15.585332
       4A    -11.405396     5A    -11.282204     6A    -11.262063
       7A    -11.251425     8A    -11.222205     9A    -11.221462
      10A     -1.438990    11A     -1.331945    12A     -1.236280
      13A     -1.032674    14A     -1.022802    15A     -0.936881
      16A     -0.876104    17A     -0.838071    18A     -0.759152
      19A     -0.702838    20A     -0.676118    21A     -0.672266
      22A     -0.635556    23A     -0.612404    24A     -0.589263
      25A     -0.578307    26A     -0.564950    27A     -0.558906
      28A     -0.539575    29A     -0.533153    30A     -0.518000
      31A     -0.510675    32A     -0.505319    33A     -0.493315
      34A     -0.450888    35A     -0.442896    36A     -0.370967

  @DF-RHF Final Energy:  -439.08799378551407

   => Energetics <=

    Nuclear Repulsion Energy =            491.0408117419555651
    One-Electron Energy =               -1572.6914511397937986
    Two-Electron Energy =                 642.5626456123241041
    Total Energy =                       -439.0879937855140724
  Basis Set: (AUG-CC-PVTZ AUX)
    Blend: AUG-CC-PVTZ-RI
    Molecular point group: c1

    Geometry (in Angstrom), charge = 0, multiplicity = 1:

       Center              X                  Y                   Z               Mass
    ------------   -----------------  -----------------  -----------------  -----------------
         O            0.947434003766     0.166293152019    -0.195705773321    15.994914619570
         O            0.164004003766    -1.910336847981     0.357304226679    15.994914619570
         N           -1.260401996234    -0.235346847981    -0.353133773321    14.003074004430
         C           -1.441097996234     1.188057152019    -0.623039773321    12.000000000000
         C           -1.511651996234     2.034362152019     0.644038226679    12.000000000000
         C           -2.444663996234    -1.029695847981    -0.069130773321    12.000000000000
         C           -0.057359796234    -0.683334747981     0.266624426679    12.000000000000
         C            2.273472003766    -0.339514847981     0.077595226679    12.000000000000
         C            3.222684003766     0.818898152019    -0.130681773321    12.000000000000
         H           -0.623083996234     1.524620152019    -1.261186773321     1.007825032230
         H           -2.368071996234     1.280459152019    -1.199195773321     1.007825032230
         H           -2.323240996234     1.700315152019     1.296246226679     1.007825032230
         H           -0.569401996234     1.961477152019     1.191112226679     1.007825032230
         H           -1.687368996234     3.085499152019     0.394291226679     1.007825032230
         H           -2.948810996234    -0.695143847981     0.845445226679     1.007825032230
         H           -2.139510996234    -2.067051847981     0.055075226679     1.007825032230
         H           -3.144293996234    -0.950467847981    -0.906194773321     1.007825032230
         H            2.306756003766    -0.722229847981     1.100863226679     1.007825032230
         H            2.485124003766    -1.172604847981    -0.598078773321     1.007825032230
         H            3.159445003766     1.187843152019    -1.156750773321     1.007825032230
         H            2.982360003766     1.638796152019     0.549851226679     1.007825032230
         H            4.250507003766     0.497751152019     0.060946226679     1.007825032230

  Basis Set: AUG-CC-PVTZ
    Blend: AUG-CC-PVTZ
  Basis Set: (AUG-CC-PVTZ AUX)
    Blend: AUG-CC-PVTZ-JKFIT
	 Reference Energy          =    -439.0879937855140724 [Eh]
	 Singles Energy            =      -0.0000000000000000 [Eh]
	 Same-Spin Energy          =      -0.4448666218452934 [Eh]
	 Opposite-Spin Energy      =      -1.4676050141051584 [Eh]
	 Correlation Energy        =      -1.9124716359504519 [Eh]
	 Total Energy              =    -441.0004654214645257 [Eh]

	 ================> DF-SCS-MP2 Energies <==================
	-----------------------------------------------------------
	 SCS Same-Spin Scale       =       0.3333333333333333 [-]
	 SCS Opposite-Spin Scale   =       1.2000000000000000 [-]
	 SCS Same-Spin Energy      =      -0.1482888739484311 [Eh]
	 SCS Opposite-Spin Energy  =      -1.7611260169261900 [Eh]
	 SCS Correlation Energy    =      -1.9094148908746211 [Eh]
	 SCS Total Energy          =    -440.9974086763887158 [Eh]
	-----------------------------------------------------------

  Dipole Moment: [D]
     X:    -0.5756      Y:     2.3393      Z:    -0.1438     Total:     2.4133

*** Psi4 exiting successfully. Buy a developer a beer!
