                               Psi4 1.3.2 release

  ==> Input File <==

--------------------------------------------------------------------------
#psi4
#
memory 32 gb

molecule  {
0 1
  O        0.9504380     0.1228240    -0.1741910
  O        0.1670080    -1.9538060     0.3788190
  N       -1.2573980    -0.2788160    -0.3316190
  C       -1.4380940     1.1445880    -0.6015250
  C       -1.5086480     1.9908930     0.6655530
  C       -2.4416600    -1.0731650    -0.0476160
  C       -0.0399700    -0.8055270    -0.0009900
  C        2.2764760    -0.3829840     0.0991100
  C        3.2256880     0.7754290    -0.1091670
  H       -0.6200800     1.4811510    -1.2396720
  H       -2.3650680     1.2369900    -1.1776810
  H       -2.3202370     1.6568460     1.3177610
  H       -0.5663980     1.9180080     1.2126270
  H       -1.6843650     3.0420300     0.4158060
  H       -2.9458070    -0.7386130     0.8669600
  H       -2.1365070    -2.1105210     0.0765900
  H       -3.1412900    -0.9939370    -0.8846800
  H        2.3097600    -0.7656990     1.1223780
  H        2.4881280    -1.2160740    -0.5765640
  H        3.1624490     1.1443740    -1.1352360
  H        2.9853640     1.5953270     0.5713660
  H        4.2535110     0.4542820     0.0824610
units angstrom
no_reorient  #important for SAPT in psi4, default
symmetry c1  #important for SAPT in psi4, default
}

set PROPERTIES_ORIGIN ["COM"]
properties('MP2/aug-cc-pvtz', properties = ['dipole'])
--------------------------------------------------------------------------

    Molecular point group: c1
  Charge       = 0
  Multiplicity = 1
  Basis Set: AUG-CC-PVTZ
    Blend: AUG-CC-PVTZ
  Basis Set: (AUG-CC-PVTZ AUX)
    Blend: AUG-CC-PVTZ-JKFIT

    Orbital Energies [Eh]
    ---------------------

    Doubly Occupied:

       1A    -20.593540     2A    -20.517671     3A    -15.583355
       4A    -11.393898     5A    -11.283500     6A    -11.265702
       7A    -11.254354     8A    -11.222389     9A    -11.220737
      10A     -1.448288    11A     -1.339762    12A     -1.248037
      13A     -1.036443    14A     -1.025281    15A     -0.946897
      16A     -0.877851    17A     -0.842877    18A     -0.761838
      19A     -0.712838    20A     -0.682851    21A     -0.673096
      22A     -0.635154    23A     -0.613536    24A     -0.594751
      25A     -0.580189    26A     -0.567871    27A     -0.560114
      28A     -0.540916    29A     -0.535613    30A     -0.520920
      31A     -0.508773    32A     -0.506891    33A     -0.496283
      34A     -0.455687    35A     -0.443298    36A     -0.374397

  @DF-RHF Final Energy:  -439.13711884893661

   => Energetics <=

    Nuclear Repulsion Energy =            492.2815093286048977
    One-Electron Energy =               -1575.1060573902138913
    Two-Electron Energy =                 643.6874292126723276
    Total Energy =                       -439.1371188489366659
  Basis Set: (AUG-CC-PVTZ AUX)
    Blend: AUG-CC-PVTZ-RI
    Molecular point group: c1

    Geometry (in Angstrom), charge = 0, multiplicity = 1:

       Center              X                  Y                   Z               Mass
    ------------   -----------------  -----------------  -----------------  -----------------
         O            0.946117171782     0.173499223005    -0.169239773642    15.994914619570
         O            0.162687171782    -1.903130776995     0.383770226358    15.994914619570
         N           -1.261718828218    -0.228140776995    -0.326667773642    14.003074004430
         C           -1.442414828218     1.195263223005    -0.596573773642    12.000000000000
         C           -1.512968828218     2.041568223005     0.670504226358    12.000000000000
         C           -2.445980828218    -1.022489776995    -0.042664773642    12.000000000000
         C           -0.044290828218    -0.754851776995     0.003961226358    12.000000000000
         C            2.272155171782    -0.332308776995     0.104061226358    12.000000000000
         C            3.221367171782     0.826104223005    -0.104215773642    12.000000000000
         H           -0.624400828218     1.531826223005    -1.234720773642     1.007825032230
         H           -2.369388828218     1.287665223005    -1.172729773642     1.007825032230
         H           -2.324557828218     1.707521223005     1.322712226358     1.007825032230
         H           -0.570718828218     1.968683223005     1.217578226358     1.007825032230
         H           -1.688685828218     3.092705223005     0.420757226358     1.007825032230
         H           -2.950127828218    -0.687937776995     0.871911226358     1.007825032230
         H           -2.140827828218    -2.059845776995     0.081541226358     1.007825032230
         H           -3.145610828218    -0.943261776995    -0.879728773642     1.007825032230
         H            2.305439171782    -0.715023776995     1.127329226358     1.007825032230
         H            2.483807171782    -1.165398776995    -0.571612773642     1.007825032230
         H            3.158128171782     1.195049223005    -1.130284773642     1.007825032230
         H            2.981043171782     1.646002223005     0.576317226358     1.007825032230
         H            4.249190171782     0.504957223005     0.087412226358     1.007825032230

  Basis Set: AUG-CC-PVTZ
    Blend: AUG-CC-PVTZ
  Basis Set: (AUG-CC-PVTZ AUX)
    Blend: AUG-CC-PVTZ-JKFIT
	 Reference Energy          =    -439.1371188489366091 [Eh]
	 Singles Energy            =      -0.0000000000000000 [Eh]
	 Same-Spin Energy          =      -0.4416418010171123 [Eh]
	 Opposite-Spin Energy      =      -1.4590512611823176 [Eh]
	 Correlation Energy        =      -1.9006930621994300 [Eh]
	 Total Energy              =    -441.0378119111360320 [Eh]

	 ================> DF-SCS-MP2 Energies <==================
	-----------------------------------------------------------
	 SCS Same-Spin Scale       =       0.3333333333333333 [-]
	 SCS Opposite-Spin Scale   =       1.2000000000000000 [-]
	 SCS Same-Spin Energy      =      -0.1472139336723707 [Eh]
	 SCS Opposite-Spin Energy  =      -1.7508615134187810 [Eh]
	 SCS Correlation Energy    =      -1.8980754470911518 [Eh]
	 SCS Total Energy          =    -441.0351942960277825 [Eh]
	-----------------------------------------------------------

  Dipole Moment: [D]
     X:    -0.5861      Y:     2.4136      Z:    -0.5006     Total:     2.5337

*** Psi4 exiting successfully. Buy a developer a beer!
