                               Psi4 1.3.2 release

  ==> Input File <==

--------------------------------------------------------------------------
#psi4
#
memory 32 gb

molecule  {
0 1
  O        0.9504380     0.1228240    -0.1741910
  O        0.1670080    -1.9538060     0.3788190
  N       -1.2452253    -0.3086206    -0.4262948
  C       -1.4380940     1.1445880    -0.6015250
  C       -1.5086480     1.9908930     0.6655530
  C       -2.4416600    -1.0731650    -0.0476160
  C       -0.0399700    -0.8055270    -0.0009900
  C        2.2764760    -0.3829840     0.0991100
  C        3.2256880     0.7754290    -0.1091670
  H       -0.6200800     1.4811510    -1.2396720
  H       -2.3650680     1.2369900    -1.1776810
  H       -2.3202370     1.6568460     1.3177610
  H       -0.5663980     1.9180080     1.2126270
  H       -1.6843650     3.0420300     0.4158060
  H       -2.9458070    -0.7386130     0.8669600
  H       -2.1365070    -2.1105210     0.0765900
  H       -3.1412900    -0.9939370    -0.8846800
  H        2.3097600    -0.7656990     1.1223780
  H        2.4881280    -1.2160740    -0.5765640
  H        3.1624490     1.1443740    -1.1352360
  H        2.9853640     1.5953270     0.5713660
  H        4.2535110     0.4542820     0.0824610
units angstrom
no_reorient  #important for SAPT in psi4, default
symmetry c1  #important for SAPT in psi4, default
}

set PROPERTIES_ORIGIN ["COM"]
properties('MP2/aug-cc-pvtz', properties = ['dipole'])
--------------------------------------------------------------------------

    Molecular point group: c1
  Charge       = 0
  Multiplicity = 1
  Basis Set: AUG-CC-PVTZ
    Blend: AUG-CC-PVTZ
  Basis Set: (AUG-CC-PVTZ AUX)
    Blend: AUG-CC-PVTZ-JKFIT

    Orbital Energies [Eh]
    ---------------------

    Doubly Occupied:

       1A    -20.594361     2A    -20.520282     3A    -15.585140
       4A    -11.394375     5A    -11.283897     6A    -11.265557
       7A    -11.254242     8A    -11.223088     9A    -11.222648
      10A     -1.448953    11A     -1.341004    12A     -1.242867
      13A     -1.036381    14A     -1.024035    15A     -0.945080
      16A     -0.877803    17A     -0.842974    18A     -0.762129
      19A     -0.707358    20A     -0.682589    21A     -0.673149
      22A     -0.634751    23A     -0.612703    24A     -0.593478
      25A     -0.582046    26A     -0.564584    27A     -0.559177
      28A     -0.543609    29A     -0.535182    30A     -0.517669
      31A     -0.509388    32A     -0.506990    33A     -0.494075
      34A     -0.456274    35A     -0.444477    36A     -0.380595

  @DF-RHF Final Energy:  -439.13375051585223

   => Energetics <=

    Nuclear Repulsion Energy =            491.5456060561003255
    One-Electron Energy =               -1573.6328944523199880
    Two-Electron Energy =                 642.9535378803675485
    Total Energy =                       -439.1337505158521708
  Basis Set: (AUG-CC-PVTZ AUX)
    Blend: AUG-CC-PVTZ-RI
    Molecular point group: c1

    Geometry (in Angstrom), charge = 0, multiplicity = 1:

       Center              X                  Y                   Z               Mass
    ------------   -----------------  -----------------  -----------------  -----------------
         O            0.944816926145     0.176682847107    -0.159126832728    15.994914619570
         O            0.161386926145    -1.899947152893     0.393883167272    15.994914619570
         N           -1.250846373855    -0.254761752893    -0.411230632728    14.003074004430
         C           -1.443715073855     1.198446847107    -0.586460832728    12.000000000000
         C           -1.514269073855     2.044751847107     0.680617167272    12.000000000000
         C           -2.447281073855    -1.019306152893    -0.032551832728    12.000000000000
         C           -0.045591073855    -0.751668152893     0.014074167272    12.000000000000
         C            2.270854926145    -0.329125152893     0.114174167272    12.000000000000
         C            3.220066926145     0.829287847107    -0.094102832728    12.000000000000
         H           -0.625701073855     1.535009847107    -1.224607832728     1.007825032230
         H           -2.370689073855     1.290848847107    -1.162616832728     1.007825032230
         H           -2.325858073855     1.710704847107     1.332825167272     1.007825032230
         H           -0.572019073855     1.971866847107     1.227691167272     1.007825032230
         H           -1.689986073855     3.095888847107     0.430870167272     1.007825032230
         H           -2.951428073855    -0.684754152893     0.882024167272     1.007825032230
         H           -2.142128073855    -2.056662152893     0.091654167272     1.007825032230
         H           -3.146911073855    -0.940078152893    -0.869615832728     1.007825032230
         H            2.304138926145    -0.711840152893     1.137442167272     1.007825032230
         H            2.482506926145    -1.162215152893    -0.561499832728     1.007825032230
         H            3.156827926145     1.198232847107    -1.120171832728     1.007825032230
         H            2.979742926145     1.649185847107     0.586430167272     1.007825032230
         H            4.247889926145     0.508140847107     0.097525167272     1.007825032230

  Basis Set: AUG-CC-PVTZ
    Blend: AUG-CC-PVTZ
  Basis Set: (AUG-CC-PVTZ AUX)
    Blend: AUG-CC-PVTZ-JKFIT
	 Reference Energy          =    -439.1337505158522276 [Eh]
	 Singles Energy            =      -0.0000000000000000 [Eh]
	 Same-Spin Energy          =      -0.4416289320414674 [Eh]
	 Opposite-Spin Energy      =      -1.4595917458993168 [Eh]
	 Correlation Energy        =      -1.9012206779407843 [Eh]
	 Total Energy              =    -441.0349711937930124 [Eh]

	 ================> DF-SCS-MP2 Energies <==================
	-----------------------------------------------------------
	 SCS Same-Spin Scale       =       0.3333333333333333 [-]
	 SCS Opposite-Spin Scale   =       1.2000000000000000 [-]
	 SCS Same-Spin Energy      =      -0.1472096440138224 [Eh]
	 SCS Opposite-Spin Energy  =      -1.7515100950791802 [Eh]
	 SCS Correlation Energy    =      -1.8987197390930026 [Eh]
	 SCS Total Energy          =    -441.0324702549452240 [Eh]
	-----------------------------------------------------------

  Dipole Moment: [D]
     X:    -0.5204      Y:     2.4404      Z:    -0.3131     Total:     2.5148

*** Psi4 exiting successfully. Buy a developer a beer!
