                               Psi4 1.3.2 release

  ==> Input File <==

--------------------------------------------------------------------------
#psi4
#
memory 32 gb

molecule  {
0 1
  O        0.9504380     0.1228240    -0.1741910
  O        0.1670080    -1.9538060     0.3788190
  N       -1.2573980    -0.2788160    -0.3316190
  C       -1.4380940     1.1445880    -0.6015250
  C       -1.5086480     1.9908930     0.6655530
  C       -2.4416600    -1.0731650    -0.0476160
  C       -0.0495605    -0.7530449     0.1917628
  C        2.2764760    -0.3829840     0.0991100
  C        3.2256880     0.7754290    -0.1091670
  H       -0.6200800     1.4811510    -1.2396720
  H       -2.3650680     1.2369900    -1.1776810
  H       -2.3202370     1.6568460     1.3177610
  H       -0.5663980     1.9180080     1.2126270
  H       -1.6843650     3.0420300     0.4158060
  H       -2.9458070    -0.7386130     0.8669600
  H       -2.1365070    -2.1105210     0.0765900
  H       -3.1412900    -0.9939370    -0.8846800
  H        2.3097600    -0.7656990     1.1223780
  H        2.4881280    -1.2160740    -0.5765640
  H        3.1624490     1.1443740    -1.1352360
  H        2.9853640     1.5953270     0.5713660
  H        4.2535110     0.4542820     0.0824610
units angstrom
no_reorient  #important for SAPT in psi4, default
symmetry c1  #important for SAPT in psi4, default
}

set PROPERTIES_ORIGIN ["COM"]
properties('MP2/aug-cc-pvtz', properties = ['dipole'])
--------------------------------------------------------------------------

    Molecular point group: c1
  Charge       = 0
  Multiplicity = 1
  Basis Set: AUG-CC-PVTZ
    Blend: AUG-CC-PVTZ
  Basis Set: (AUG-CC-PVTZ AUX)
    Blend: AUG-CC-PVTZ-JKFIT

    Orbital Energies [Eh]
    ---------------------

    Doubly Occupied:

       1A    -20.594242     2A    -20.524854     3A    -15.583553
       4A    -11.399376     5A    -11.283267     6A    -11.263292
       7A    -11.252345     8A    -11.222179     9A    -11.221572
      10A     -1.445318    11A     -1.338314    12A     -1.241365
      13A     -1.034952    14A     -1.023706    15A     -0.940902
      16A     -0.877080    17A     -0.840496    18A     -0.761003
      19A     -0.707395    20A     -0.679750    21A     -0.673619
      22A     -0.635673    23A     -0.613461    24A     -0.591504
      25A     -0.579961    26A     -0.566505    27A     -0.559346
      28A     -0.540020    29A     -0.534864    30A     -0.519359
      31A     -0.510907    32A     -0.506275    33A     -0.494661
      34A     -0.454051    35A     -0.443964    36A     -0.372682

  @DF-RHF Final Energy:  -439.11503359257449

   => Energetics <=

    Nuclear Repulsion Energy =            491.8075690863034879
    One-Electron Energy =               -1574.1815799909165889
    Two-Electron Energy =                 643.2589773120384962
    Total Energy =                       -439.1150335925744912
  Basis Set: (AUG-CC-PVTZ AUX)
    Blend: AUG-CC-PVTZ-RI
    Molecular point group: c1

    Geometry (in Angstrom), charge = 0, multiplicity = 1:

       Center              X                  Y                   Z               Mass
    ------------   -----------------  -----------------  -----------------  -----------------
         O            0.946995056720     0.168695172630    -0.186883773428    15.994914619570
         O            0.163565056720    -1.907934827370     0.366126226572    15.994914619570
         N           -1.260840943280    -0.232944827370    -0.344311773428    14.003074004430
         C           -1.441536943280     1.190459172630    -0.614217773428    12.000000000000
         C           -1.512090943280     2.036764172630     0.652860226572    12.000000000000
         C           -2.445102943280    -1.027293827370    -0.060308773428    12.000000000000
         C           -0.053003443280    -0.707173727370     0.179070026572    12.000000000000
         C            2.273033056720    -0.337112827370     0.086417226572    12.000000000000
         C            3.222245056720     0.821300172630    -0.121859773428    12.000000000000
         H           -0.623522943280     1.527022172630    -1.252364773428     1.007825032230
         H           -2.368510943280     1.282861172630    -1.190373773428     1.007825032230
         H           -2.323679943280     1.702717172630     1.305068226572     1.007825032230
         H           -0.569840943280     1.963879172630     1.199934226572     1.007825032230
         H           -1.687807943280     3.087901172630     0.403113226572     1.007825032230
         H           -2.949249943280    -0.692741827370     0.854267226572     1.007825032230
         H           -2.139949943280    -2.064649827370     0.063897226572     1.007825032230
         H           -3.144732943280    -0.948065827370    -0.897372773428     1.007825032230
         H            2.306317056720    -0.719827827370     1.109685226572     1.007825032230
         H            2.484685056720    -1.170202827370    -0.589256773428     1.007825032230
         H            3.159006056720     1.190245172630    -1.147928773428     1.007825032230
         H            2.981921056720     1.641198172630     0.558673226572     1.007825032230
         H            4.250068056720     0.500153172630     0.069768226572     1.007825032230

  Basis Set: AUG-CC-PVTZ
    Blend: AUG-CC-PVTZ
  Basis Set: (AUG-CC-PVTZ AUX)
    Blend: AUG-CC-PVTZ-JKFIT
	 Reference Energy          =    -439.1150335925744912 [Eh]
	 Singles Energy            =      -0.0000000000000000 [Eh]
	 Same-Spin Energy          =      -0.4431056188565131 [Eh]
	 Opposite-Spin Energy      =      -1.4628104569404266 [Eh]
	 Correlation Energy        =      -1.9059160757969398 [Eh]
	 Total Energy              =    -441.0209496683714292 [Eh]

	 ================> DF-SCS-MP2 Energies <==================
	-----------------------------------------------------------
	 SCS Same-Spin Scale       =       0.3333333333333333 [-]
	 SCS Opposite-Spin Scale   =       1.2000000000000000 [-]
	 SCS Same-Spin Energy      =      -0.1477018729521710 [Eh]
	 SCS Opposite-Spin Energy  =      -1.7553725483285119 [Eh]
	 SCS Correlation Energy    =      -1.9030744212806829 [Eh]
	 SCS Total Energy          =    -441.0181080138551692 [Eh]
	-----------------------------------------------------------

  Dipole Moment: [D]
     X:    -0.5455      Y:     2.3795      Z:    -0.2534     Total:     2.4543

*** Psi4 exiting successfully. Buy a developer a beer!
