                               Psi4 1.3.2 release

  ==> Input File <==

--------------------------------------------------------------------------
#psi4
#
memory 32 gb

molecule  {
0 1
  O        0.9504380     0.1228240    -0.1741910
  O        0.1670080    -1.9538060     0.3788190
  N       -1.2573980    -0.2788160    -0.3316190
  C       -1.4380940     1.1445880    -0.6015250
  C       -1.5086480     1.9908930     0.6655530
  C       -2.4416600    -1.0731650    -0.0476160
  C       -0.0471629    -0.7661654     0.1435746
  C        2.2764760    -0.3829840     0.0991100
  C        3.2256880     0.7754290    -0.1091670
  H       -0.6200800     1.4811510    -1.2396720
  H       -2.3650680     1.2369900    -1.1776810
  H       -2.3202370     1.6568460     1.3177610
  H       -0.5663980     1.9180080     1.2126270
  H       -1.6843650     3.0420300     0.4158060
  H       -2.9458070    -0.7386130     0.8669600
  H       -2.1365070    -2.1105210     0.0765900
  H       -3.1412900    -0.9939370    -0.8846800
  H        2.3097600    -0.7656990     1.1223780
  H        2.4881280    -1.2160740    -0.5765640
  H        3.1624490     1.1443740    -1.1352360
  H        2.9853640     1.5953270     0.5713660
  H        4.2535110     0.4542820     0.0824610
units angstrom
no_reorient  #important for SAPT in psi4, default
symmetry c1  #important for SAPT in psi4, default
}

set PROPERTIES_ORIGIN ["COM"]
properties('MP2/aug-cc-pvtz', properties = ['dipole'])
--------------------------------------------------------------------------

    Molecular point group: c1
  Charge       = 0
  Multiplicity = 1
  Basis Set: AUG-CC-PVTZ
    Blend: AUG-CC-PVTZ
  Basis Set: (AUG-CC-PVTZ AUX)
    Blend: AUG-CC-PVTZ-JKFIT

    Orbital Energies [Eh]
    ---------------------

    Doubly Occupied:

       1A    -20.594224     2A    -20.522459     3A    -15.583076
       4A    -11.397053     5A    -11.283559     6A    -11.263916
       7A    -11.252841     8A    -11.222382     9A    -11.221306
      10A     -1.447275    11A     -1.340159    12A     -1.243551
      13A     -1.035712    14A     -1.024148    15A     -0.942693
      16A     -0.877409    17A     -0.841434    18A     -0.761608
      19A     -0.709207    20A     -0.681070    21A     -0.673888
      22A     -0.635658    23A     -0.613733    24A     -0.592474
      25A     -0.580402    26A     -0.567101    27A     -0.559544
      28A     -0.540266    29A     -0.535378    30A     -0.519869
      31A     -0.510650    32A     -0.506644    33A     -0.495196
      34A     -0.455067    35A     -0.444187    36A     -0.373378

  @DF-RHF Final Energy:  -439.12459295168560

   => Energetics <=

    Nuclear Repulsion Energy =            492.0631563669678030
    One-Electron Energy =               -1574.6784670267363708
    Two-Electron Energy =                 643.4907177080829115
    Total Energy =                       -439.1245929516855995
  Basis Set: (AUG-CC-PVTZ AUX)
    Blend: AUG-CC-PVTZ-RI
    Molecular point group: c1

    Geometry (in Angstrom), charge = 0, multiplicity = 1:

       Center              X                  Y                   Z               Mass
    ------------   -----------------  -----------------  -----------------  -----------------
         O            0.946775587774     0.169896182935    -0.182472773481    15.994914619570
         O            0.163345587774    -1.906733817065     0.370537226519    15.994914619570
         N           -1.261060412226    -0.231743817065    -0.339900773481    14.003074004430
         C           -1.441756412226     1.191660182935    -0.609806773481    12.000000000000
         C           -1.512310412226     2.037965182935     0.657271226519    12.000000000000
         C           -2.445322412226    -1.026092817065    -0.055897773481    12.000000000000
         C           -0.050825312226    -0.719093217065     0.135292826519    12.000000000000
         C            2.272813587774    -0.335911817065     0.090828226519    12.000000000000
         C            3.222025587774     0.822501182935    -0.117448773481    12.000000000000
         H           -0.623742412226     1.528223182935    -1.247953773481     1.007825032230
         H           -2.368730412226     1.284062182935    -1.185962773481     1.007825032230
         H           -2.323899412226     1.703918182935     1.309479226519     1.007825032230
         H           -0.570060412226     1.965080182935     1.204345226519     1.007825032230
         H           -1.688027412226     3.089102182935     0.407524226519     1.007825032230
         H           -2.949469412226    -0.691540817065     0.858678226519     1.007825032230
         H           -2.140169412226    -2.063448817065     0.068308226519     1.007825032230
         H           -3.144952412226    -0.946864817065    -0.892961773481     1.007825032230
         H            2.306097587774    -0.718626817065     1.114096226519     1.007825032230
         H            2.484465587774    -1.169001817065    -0.584845773481     1.007825032230
         H            3.158786587774     1.191446182935    -1.143517773481     1.007825032230
         H            2.981701587774     1.642399182935     0.563084226519     1.007825032230
         H            4.249848587774     0.501354182935     0.074179226519     1.007825032230

  Basis Set: AUG-CC-PVTZ
    Blend: AUG-CC-PVTZ
  Basis Set: (AUG-CC-PVTZ AUX)
    Blend: AUG-CC-PVTZ-JKFIT
	 Reference Energy          =    -439.1245929516855995 [Eh]
	 Singles Energy            =      -0.0000000000000000 [Eh]
	 Same-Spin Energy          =      -0.4424742194387093 [Eh]
	 Opposite-Spin Energy      =      -1.4611573070148856 [Eh]
	 Correlation Energy        =      -1.9036315264535948 [Eh]
	 Total Energy              =    -441.0282244781391796 [Eh]

	 ================> DF-SCS-MP2 Energies <==================
	-----------------------------------------------------------
	 SCS Same-Spin Scale       =       0.3333333333333333 [-]
	 SCS Opposite-Spin Scale   =       1.2000000000000000 [-]
	 SCS Same-Spin Energy      =      -0.1474914064795698 [Eh]
	 SCS Opposite-Spin Energy  =      -1.7533887684178626 [Eh]
	 SCS Correlation Energy    =      -1.9008801748974324 [Eh]
	 SCS Total Energy          =    -441.0254731265830515 [Eh]
	-----------------------------------------------------------

  Dipole Moment: [D]
     X:    -0.5433      Y:     2.3933      Z:    -0.3131     Total:     2.4741

*** Psi4 exiting successfully. Buy a developer a beer!
