                               Psi4 1.3.2 release

  ==> Input File <==

--------------------------------------------------------------------------
#psi4
#
memory 32 gb

molecule  {
0 1
  O        0.9504380     0.1228240    -0.1741910
  O        0.1670080    -1.9538060     0.3788190
  N       -1.2513116    -0.2937183    -0.3789569
  C       -1.4380940     1.1445880    -0.6015250
  C       -1.5086480     1.9908930     0.6655530
  C       -2.4416600    -1.0731650    -0.0476160
  C       -0.0399700    -0.8055270    -0.0009900
  C        2.2764760    -0.3829840     0.0991100
  C        3.2256880     0.7754290    -0.1091670
  H       -0.6200800     1.4811510    -1.2396720
  H       -2.3650680     1.2369900    -1.1776810
  H       -2.3202370     1.6568460     1.3177610
  H       -0.5663980     1.9180080     1.2126270
  H       -1.6843650     3.0420300     0.4158060
  H       -2.9458070    -0.7386130     0.8669600
  H       -2.1365070    -2.1105210     0.0765900
  H       -3.1412900    -0.9939370    -0.8846800
  H        2.3097600    -0.7656990     1.1223780
  H        2.4881280    -1.2160740    -0.5765640
  H        3.1624490     1.1443740    -1.1352360
  H        2.9853640     1.5953270     0.5713660
  H        4.2535110     0.4542820     0.0824610
units angstrom
no_reorient  #important for SAPT in psi4, default
symmetry c1  #important for SAPT in psi4, default
}

set PROPERTIES_ORIGIN ["COM"]
properties('MP2/aug-cc-pvtz', properties = ['dipole'])
--------------------------------------------------------------------------

    Molecular point group: c1
  Charge       = 0
  Multiplicity = 1
  Basis Set: AUG-CC-PVTZ
    Blend: AUG-CC-PVTZ
  Basis Set: (AUG-CC-PVTZ AUX)
    Blend: AUG-CC-PVTZ-JKFIT

    Orbital Energies [Eh]
    ---------------------

    Doubly Occupied:

       1A    -20.593862     2A    -20.518752     3A    -15.584137
       4A    -11.394034     5A    -11.283650     6A    -11.265669
       7A    -11.254328     8A    -11.222488     9A    -11.221915
      10A     -1.448575    11A     -1.340275    12A     -1.245783
      13A     -1.036402    14A     -1.024722    15A     -0.946202
      16A     -0.878039    17A     -0.842935    18A     -0.761895
      19A     -0.710201    20A     -0.682753    21A     -0.673078
      22A     -0.635117    23A     -0.613075    24A     -0.594114
      25A     -0.581092    26A     -0.566069    27A     -0.559869
      28A     -0.542316    29A     -0.535576    30A     -0.519424
      31A     -0.509076    32A     -0.506998    33A     -0.495453
      34A     -0.455928    35A     -0.443795    36A     -0.377230

  @DF-RHF Final Energy:  -439.13611975369622

   => Energetics <=

    Nuclear Repulsion Energy =            491.9490418333689377
    One-Electron Energy =               -1574.4406710212406324
    Two-Electron Energy =                 643.3555094341754739
    Total Energy =                       -439.1361197536962209
  Basis Set: (AUG-CC-PVTZ AUX)
    Blend: AUG-CC-PVTZ-RI
    Molecular point group: c1

    Geometry (in Angstrom), charge = 0, multiplicity = 1:

       Center              X                  Y                   Z               Mass
    ------------   -----------------  -----------------  -----------------  -----------------
         O            0.945467043623     0.175091035056    -0.164183303185    15.994914619570
         O            0.162037043623    -1.901538964944     0.388826696815    15.994914619570
         N           -1.256282556377    -0.241451264944    -0.368949203185    14.003074004430
         C           -1.443064956377     1.196855035056    -0.591517303185    12.000000000000
         C           -1.513618956377     2.043160035056     0.675560696815    12.000000000000
         C           -2.446630956377    -1.020897964944    -0.037608303185    12.000000000000
         C           -0.044940956377    -0.753259964944     0.009017696815    12.000000000000
         C            2.271505043623    -0.330716964944     0.109117696815    12.000000000000
         C            3.220717043623     0.827696035056    -0.099159303185    12.000000000000
         H           -0.625050956377     1.533418035056    -1.229664303185     1.007825032230
         H           -2.370038956377     1.289257035056    -1.167673303185     1.007825032230
         H           -2.325207956377     1.709113035056     1.327768696815     1.007825032230
         H           -0.571368956377     1.970275035056     1.222634696815     1.007825032230
         H           -1.689335956377     3.094297035056     0.425813696815     1.007825032230
         H           -2.950777956377    -0.686345964944     0.876967696815     1.007825032230
         H           -2.141477956377    -2.058253964944     0.086597696815     1.007825032230
         H           -3.146260956377    -0.941669964944    -0.874672303185     1.007825032230
         H            2.304789043623    -0.713431964944     1.132385696815     1.007825032230
         H            2.483157043623    -1.163806964944    -0.566556303185     1.007825032230
         H            3.157478043623     1.196641035056    -1.125228303185     1.007825032230
         H            2.980393043623     1.647594035056     0.581373696815     1.007825032230
         H            4.248540043623     0.506549035056     0.092468696815     1.007825032230

  Basis Set: AUG-CC-PVTZ
    Blend: AUG-CC-PVTZ
  Basis Set: (AUG-CC-PVTZ AUX)
    Blend: AUG-CC-PVTZ-JKFIT
	 Reference Energy          =    -439.1361197536962209 [Eh]
	 Singles Energy            =      -0.0000000000000000 [Eh]
	 Same-Spin Energy          =      -0.4416067831357138 [Eh]
	 Opposite-Spin Energy      =      -1.4592219880274020 [Eh]
	 Correlation Energy        =      -1.9008287711631158 [Eh]
	 Total Energy              =    -441.0369485248593264 [Eh]

	 ================> DF-SCS-MP2 Energies <==================
	-----------------------------------------------------------
	 SCS Same-Spin Scale       =       0.3333333333333333 [-]
	 SCS Opposite-Spin Scale   =       1.2000000000000000 [-]
	 SCS Same-Spin Energy      =      -0.1472022610452379 [Eh]
	 SCS Opposite-Spin Energy  =      -1.7510663856328823 [Eh]
	 SCS Correlation Energy    =      -1.8982686466781202 [Eh]
	 SCS Total Energy          =    -441.0343884003743256 [Eh]
	-----------------------------------------------------------

  Dipole Moment: [D]
     X:    -0.5605      Y:     2.4306      Z:    -0.4097     Total:     2.5279

*** Psi4 exiting successfully. Buy a developer a beer!
