                               Psi4 1.3.2 release

  ==> Input File <==

--------------------------------------------------------------------------
#psi4
#
memory 32 gb

molecule  {
0 1
  O        0.9504380     0.1228240    -0.1741910
  O        0.1670080    -1.9538060     0.3788190
  N       -1.2391389    -0.3235229    -0.4736327
  C       -1.4380940     1.1445880    -0.6015250
  C       -1.5086480     1.9908930     0.6655530
  C       -2.4416600    -1.0731650    -0.0476160
  C       -0.0399700    -0.8055270    -0.0009900
  C        2.2764760    -0.3829840     0.0991100
  C        3.2256880     0.7754290    -0.1091670
  H       -0.6200800     1.4811510    -1.2396720
  H       -2.3650680     1.2369900    -1.1776810
  H       -2.3202370     1.6568460     1.3177610
  H       -0.5663980     1.9180080     1.2126270
  H       -1.6843650     3.0420300     0.4158060
  H       -2.9458070    -0.7386130     0.8669600
  H       -2.1365070    -2.1105210     0.0765900
  H       -3.1412900    -0.9939370    -0.8846800
  H        2.3097600    -0.7656990     1.1223780
  H        2.4881280    -1.2160740    -0.5765640
  H        3.1624490     1.1443740    -1.1352360
  H        2.9853640     1.5953270     0.5713660
  H        4.2535110     0.4542820     0.0824610
units angstrom
no_reorient  #important for SAPT in psi4, default
symmetry c1  #important for SAPT in psi4, default
}

set PROPERTIES_ORIGIN ["COM"]
properties('MP2/aug-cc-pvtz', properties = ['dipole'])
--------------------------------------------------------------------------

    Molecular point group: c1
  Charge       = 0
  Multiplicity = 1
  Basis Set: AUG-CC-PVTZ
    Blend: AUG-CC-PVTZ
  Basis Set: (AUG-CC-PVTZ AUX)
    Blend: AUG-CC-PVTZ-JKFIT

    Orbital Energies [Eh]
    ---------------------

    Doubly Occupied:

       1A    -20.595005     2A    -20.522187     3A    -15.586409
       4A    -11.394897     5A    -11.284227     6A    -11.265396
       7A    -11.254121     8A    -11.224259     9A    -11.222860
      10A     -1.449397    11A     -1.341913    12A     -1.239290
      13A     -1.036378    14A     -1.023263    15A     -0.943577
      16A     -0.877179    17A     -0.842974    18A     -0.762517
      19A     -0.704382    20A     -0.682373    21A     -0.673315
      22A     -0.634045    23A     -0.612390    24A     -0.592878
      25A     -0.582960    26A     -0.563820    27A     -0.557842
      28A     -0.544671    29A     -0.534489    30A     -0.515906
      31A     -0.509608    32A     -0.506883    33A     -0.491962
      34A     -0.456708    35A     -0.445286    36A     -0.384452

  @DF-RHF Final Energy:  -439.12995747455051

   => Energetics <=

    Nuclear Repulsion Energy =            491.0735539049076124
    One-Electron Energy =               -1572.6873848606389856
    Two-Electron Energy =                 642.4838734811808081
    Total Energy =                       -439.1299574745505652
  Basis Set: (AUG-CC-PVTZ AUX)
    Blend: AUG-CC-PVTZ-RI
    Molecular point group: c1

    Geometry (in Angstrom), charge = 0, multiplicity = 1:

       Center              X                  Y                   Z               Mass
    ------------   -----------------  -----------------  -----------------  -----------------
         O            0.944166797986     0.178274659158    -0.154070362271    15.994914619570
         O            0.160736797986    -1.898355340842     0.398939637729    15.994914619570
         N           -1.245410102014    -0.268072240842    -0.453512062271    14.003074004430
         C           -1.444365202014     1.200038659158    -0.581404362271    12.000000000000
         C           -1.514919202014     2.046343659158     0.685673637729    12.000000000000
         C           -2.447931202014    -1.017714340842    -0.027495362271    12.000000000000
         C           -0.046241202014    -0.750076340842     0.019130637729    12.000000000000
         C            2.270204797986    -0.327533340842     0.119230637729    12.000000000000
         C            3.219416797986     0.830879659158    -0.089046362271    12.000000000000
         H           -0.626351202014     1.536601659158    -1.219551362271     1.007825032230
         H           -2.371339202014     1.292440659158    -1.157560362271     1.007825032230
         H           -2.326508202014     1.712296659158     1.337881637729     1.007825032230
         H           -0.572669202014     1.973458659158     1.232747637729     1.007825032230
         H           -1.690636202014     3.097480659158     0.435926637729     1.007825032230
         H           -2.952078202014    -0.683162340842     0.887080637729     1.007825032230
         H           -2.142778202014    -2.055070340842     0.096710637729     1.007825032230
         H           -3.147561202014    -0.938486340842    -0.864559362271     1.007825032230
         H            2.303488797986    -0.710248340842     1.142498637729     1.007825032230
         H            2.481856797986    -1.160623340842    -0.556443362271     1.007825032230
         H            3.156177797986     1.199824659158    -1.115115362271     1.007825032230
         H            2.979092797986     1.650777659158     0.591486637729     1.007825032230
         H            4.247239797986     0.509732659158     0.102581637729     1.007825032230

  Basis Set: AUG-CC-PVTZ
    Blend: AUG-CC-PVTZ
  Basis Set: (AUG-CC-PVTZ AUX)
    Blend: AUG-CC-PVTZ-JKFIT
	 Reference Energy          =    -439.1299574745505083 [Eh]
	 Singles Energy            =      -0.0000000000000000 [Eh]
	 Same-Spin Energy          =      -0.4417137108006616 [Eh]
	 Opposite-Spin Energy      =      -1.4601754601786880 [Eh]
	 Correlation Energy        =      -1.9018891709793495 [Eh]
	 Total Energy              =    -441.0318466455298676 [Eh]

	 ================> DF-SCS-MP2 Energies <==================
	-----------------------------------------------------------
	 SCS Same-Spin Scale       =       0.3333333333333333 [-]
	 SCS Opposite-Spin Scale   =       1.2000000000000000 [-]
	 SCS Same-Spin Energy      =      -0.1472379036002205 [Eh]
	 SCS Opposite-Spin Energy  =      -1.7522105522144256 [Eh]
	 SCS Correlation Energy    =      -1.8994484558146461 [Eh]
	 SCS Total Energy          =    -441.0294059303651579 [Eh]
	-----------------------------------------------------------

  Dipole Moment: [D]
     X:    -0.4677      Y:     2.4440      Z:    -0.2116     Total:     2.4973

*** Psi4 exiting successfully. Buy a developer a beer!
