                               Psi4 1.3.2 release

  ==> Input File <==

--------------------------------------------------------------------------
#psi4
#
memory 32 gb

molecule  {
0 1
  O        0.9504380     0.1228240    -0.1741910
  O        0.1670080    -1.9538060     0.3788190
  N       -1.2573980    -0.2788160    -0.3316190
  C       -1.4380940     1.1445880    -0.6015250
  C       -1.5086480     1.9908930     0.6655530
  C       -2.4416600    -1.0731650    -0.0476160
  C       -0.0519582    -0.7399244     0.2399510
  C        2.2764760    -0.3829840     0.0991100
  C        3.2256880     0.7754290    -0.1091670
  H       -0.6200800     1.4811510    -1.2396720
  H       -2.3650680     1.2369900    -1.1776810
  H       -2.3202370     1.6568460     1.3177610
  H       -0.5663980     1.9180080     1.2126270
  H       -1.6843650     3.0420300     0.4158060
  H       -2.9458070    -0.7386130     0.8669600
  H       -2.1365070    -2.1105210     0.0765900
  H       -3.1412900    -0.9939370    -0.8846800
  H        2.3097600    -0.7656990     1.1223780
  H        2.4881280    -1.2160740    -0.5765640
  H        3.1624490     1.1443740    -1.1352360
  H        2.9853640     1.5953270     0.5713660
  H        4.2535110     0.4542820     0.0824610
units angstrom
no_reorient  #important for SAPT in psi4, default
symmetry c1  #important for SAPT in psi4, default
}

set PROPERTIES_ORIGIN ["COM"]
properties('MP2/aug-cc-pvtz', properties = ['dipole'])
--------------------------------------------------------------------------

    Molecular point group: c1
  Charge       = 0
  Multiplicity = 1
  Basis Set: AUG-CC-PVTZ
    Blend: AUG-CC-PVTZ
  Basis Set: (AUG-CC-PVTZ AUX)
    Blend: AUG-CC-PVTZ-JKFIT

    Orbital Energies [Eh]
    ---------------------

    Doubly Occupied:

       1A    -20.594121     2A    -20.527652     3A    -15.584307
       4A    -11.402196     5A    -11.282815     6A    -11.262670
       7A    -11.251869     8A    -11.221873     9A    -11.221873
      10A     -1.442552    11A     -1.335550    12A     -1.238921
      13A     -1.033937    14A     -1.023254    15A     -0.938955
      16A     -0.876649    17A     -0.839366    18A     -0.760171
      19A     -0.705275    20A     -0.678089    21A     -0.673079
      22A     -0.635634    23A     -0.613020    24A     -0.590431
      25A     -0.579260    26A     -0.565781    27A     -0.559137
      28A     -0.539791    29A     -0.534115    30A     -0.518744
      31A     -0.510919    32A     -0.505827    33A     -0.494035
      34A     -0.452650    35A     -0.443521    36A     -0.371865

  @DF-RHF Final Energy:  -439.10281984892646

   => Energetics <=

    Nuclear Repulsion Energy =            491.4653907218033169
    One-Electron Energy =               -1573.5166114958085473
    Two-Electron Energy =                 642.9484009250787722
    Total Energy =                       -439.1028198489265151
  Basis Set: (AUG-CC-PVTZ AUX)
    Blend: AUG-CC-PVTZ-RI
    Molecular point group: c1

    Geometry (in Angstrom), charge = 0, multiplicity = 1:

       Center              X                  Y                   Z               Mass
    ------------   -----------------  -----------------  -----------------  -----------------
         O            0.947214534820     0.167494162324    -0.191294773374    15.994914619570
         O            0.163784534820    -1.909135837676     0.361715226626    15.994914619570
         N           -1.260621465180    -0.234145837676    -0.348722773374    14.003074004430
         C           -1.441317465180     1.189258162324    -0.618628773374    12.000000000000
         C           -1.511871465180     2.035563162324     0.648449226626    12.000000000000
         C           -2.444883465180    -1.028494837676    -0.064719773374    12.000000000000
         C           -0.055181665180    -0.695254237676     0.222847226626    12.000000000000
         C            2.273252534820    -0.338313837676     0.082006226626    12.000000000000
         C            3.222464534820     0.820099162324    -0.126270773374    12.000000000000
         H           -0.623303465180     1.525821162324    -1.256775773374     1.007825032230
         H           -2.368291465180     1.281660162324    -1.194784773374     1.007825032230
         H           -2.323460465180     1.701516162324     1.300657226626     1.007825032230
         H           -0.569621465180     1.962678162324     1.195523226626     1.007825032230
         H           -1.687588465180     3.086700162324     0.398702226626     1.007825032230
         H           -2.949030465180    -0.693942837676     0.849856226626     1.007825032230
         H           -2.139730465180    -2.065850837676     0.059486226626     1.007825032230
         H           -3.144513465180    -0.949266837676    -0.901783773374     1.007825032230
         H            2.306536534820    -0.721028837676     1.105274226626     1.007825032230
         H            2.484904534820    -1.171403837676    -0.593667773374     1.007825032230
         H            3.159225534820     1.189044162324    -1.152339773374     1.007825032230
         H            2.982140534820     1.639997162324     0.554262226626     1.007825032230
         H            4.250287534820     0.498952162324     0.065357226626     1.007825032230

  Basis Set: AUG-CC-PVTZ
    Blend: AUG-CC-PVTZ
  Basis Set: (AUG-CC-PVTZ AUX)
    Blend: AUG-CC-PVTZ-JKFIT
	 Reference Energy          =    -439.1028198489264582 [Eh]
	 Singles Energy            =      -0.0000000000000000 [Eh]
	 Same-Spin Energy          =      -0.4439059221827371 [Eh]
	 Opposite-Spin Energy      =      -1.4649612300109593 [Eh]
	 Correlation Energy        =      -1.9088671521936964 [Eh]
	 Total Energy              =    -441.0116870011201513 [Eh]

	 ================> DF-SCS-MP2 Energies <==================
	-----------------------------------------------------------
	 SCS Same-Spin Scale       =       0.3333333333333333 [-]
	 SCS Opposite-Spin Scale   =       1.2000000000000000 [-]
	 SCS Same-Spin Energy      =      -0.1479686407275790 [Eh]
	 SCS Opposite-Spin Energy  =      -1.7579534760131512 [Eh]
	 SCS Correlation Energy    =      -1.9059221167407303 [Eh]
	 SCS Total Energy          =    -441.0087419656671841 [Eh]
	-----------------------------------------------------------

  Dipole Moment: [D]
     X:    -0.5562      Y:     2.3616      Z:    -0.1967     Total:     2.4342

*** Psi4 exiting successfully. Buy a developer a beer!
