                               Psi4 1.3.2 release

  ==> Input File <==

--------------------------------------------------------------------------
#psi4
#
memory 32 gb

molecule  {
0 1
  O        0.9504380     0.1228240    -0.1741910
  O        0.1670080    -1.9538060     0.3788190
  N       -1.2330526    -0.3384252    -0.5209706
  C       -1.4380940     1.1445880    -0.6015250
  C       -1.5086480     1.9908930     0.6655530
  C       -2.4416600    -1.0731650    -0.0476160
  C       -0.0399700    -0.8055270    -0.0009900
  C        2.2764760    -0.3829840     0.0991100
  C        3.2256880     0.7754290    -0.1091670
  H       -0.6200800     1.4811510    -1.2396720
  H       -2.3650680     1.2369900    -1.1776810
  H       -2.3202370     1.6568460     1.3177610
  H       -0.5663980     1.9180080     1.2126270
  H       -1.6843650     3.0420300     0.4158060
  H       -2.9458070    -0.7386130     0.8669600
  H       -2.1365070    -2.1105210     0.0765900
  H       -3.1412900    -0.9939370    -0.8846800
  H        2.3097600    -0.7656990     1.1223780
  H        2.4881280    -1.2160740    -0.5765640
  H        3.1624490     1.1443740    -1.1352360
  H        2.9853640     1.5953270     0.5713660
  H        4.2535110     0.4542820     0.0824610
units angstrom
no_reorient  #important for SAPT in psi4, default
symmetry c1  #important for SAPT in psi4, default
}

set PROPERTIES_ORIGIN ["COM"]
properties('MP2/aug-cc-pvtz', properties = ['dipole'])
--------------------------------------------------------------------------

    Molecular point group: c1
  Charge       = 0
  Multiplicity = 1
  Basis Set: AUG-CC-PVTZ
    Blend: AUG-CC-PVTZ
  Basis Set: (AUG-CC-PVTZ AUX)
    Blend: AUG-CC-PVTZ-JKFIT

    Orbital Energies [Eh]
    ---------------------

    Doubly Occupied:

       1A    -20.595756     2A    -20.524383     3A    -15.587991
       4A    -11.395573     5A    -11.284621     6A    -11.265217
       7A    -11.253997     8A    -11.225434     9A    -11.223111
      10A     -1.449879    11A     -1.342957    12A     -1.235054
      13A     -1.036392    14A     -1.022449    15A     -0.941747
      16A     -0.876225    17A     -0.842907    18A     -0.763036
      19A     -0.701349    20A     -0.682124    21A     -0.673577
      22A     -0.632994    23A     -0.612107    24A     -0.592341
      25A     -0.583765    26A     -0.563711    27A     -0.556125
      28A     -0.545433    29A     -0.533501    30A     -0.514479
      31A     -0.509576    32A     -0.506673    33A     -0.488911
      34A     -0.457212    35A     -0.446147    36A     -0.388751

  @DF-RHF Final Energy:  -439.12468236593941

   => Energetics <=

    Nuclear Repulsion Energy =            490.5357615999869836
    One-Electron Energy =               -1571.6098791066901867
    Two-Electron Energy =                 641.9494351407638533
    Total Energy =                       -439.1246823659394067
  Basis Set: (AUG-CC-PVTZ AUX)
    Blend: AUG-CC-PVTZ-RI
    Molecular point group: c1

    Geometry (in Angstrom), charge = 0, multiplicity = 1:

       Center              X                  Y                   Z               Mass
    ------------   -----------------  -----------------  -----------------  -----------------
         O            0.943516680508     0.179866471209    -0.149013891814    15.994914619570
         O            0.160086680508    -1.896763528791     0.403996108186    15.994914619570
         N           -1.239973919492    -0.281382728791    -0.495793491814    14.003074004430
         C           -1.445015319492     1.201630471209    -0.576347891814    12.000000000000
         C           -1.515569319492     2.047935471209     0.690730108186    12.000000000000
         C           -2.448581319492    -1.016122528791    -0.022438891814    12.000000000000
         C           -0.046891319492    -0.748484528791     0.024187108186    12.000000000000
         C            2.269554680508    -0.325941528791     0.124287108186    12.000000000000
         C            3.218766680508     0.832471471209    -0.083989891814    12.000000000000
         H           -0.627001319492     1.538193471209    -1.214494891814     1.007825032230
         H           -2.371989319492     1.294032471209    -1.152503891814     1.007825032230
         H           -2.327158319492     1.713888471209     1.342938108186     1.007825032230
         H           -0.573319319492     1.975050471209     1.237804108186     1.007825032230
         H           -1.691286319492     3.099072471209     0.440983108186     1.007825032230
         H           -2.952728319492    -0.681570528791     0.892137108186     1.007825032230
         H           -2.143428319492    -2.053478528791     0.101767108186     1.007825032230
         H           -3.148211319492    -0.936894528791    -0.859502891814     1.007825032230
         H            2.302838680508    -0.708656528791     1.147555108186     1.007825032230
         H            2.481206680508    -1.159031528791    -0.551386891814     1.007825032230
         H            3.155527680508     1.201416471209    -1.110058891814     1.007825032230
         H            2.978442680508     1.652369471209     0.596543108186     1.007825032230
         H            4.246589680508     0.511324471209     0.107638108186     1.007825032230

  Basis Set: AUG-CC-PVTZ
    Blend: AUG-CC-PVTZ
  Basis Set: (AUG-CC-PVTZ AUX)
    Blend: AUG-CC-PVTZ-JKFIT
	 Reference Energy          =    -439.1246823659394067 [Eh]
	 Singles Energy            =      -0.0000000000000000 [Eh]
	 Same-Spin Energy          =      -0.4418677445520403 [Eh]
	 Opposite-Spin Energy      =      -1.4609875933585159 [Eh]
	 Correlation Energy        =      -1.9028553379105562 [Eh]
	 Total Energy              =    -441.0275377038499869 [Eh]

	 ================> DF-SCS-MP2 Energies <==================
	-----------------------------------------------------------
	 SCS Same-Spin Scale       =       0.3333333333333333 [-]
	 SCS Opposite-Spin Scale   =       1.2000000000000000 [-]
	 SCS Same-Spin Energy      =      -0.1472892481840134 [Eh]
	 SCS Opposite-Spin Energy  =      -1.7531851120302191 [Eh]
	 SCS Correlation Energy    =      -1.9004743602142324 [Eh]
	 SCS Total Energy          =    -441.0251567261536252 [Eh]
	-----------------------------------------------------------

  Dipole Moment: [D]
     X:    -0.4044      Y:     2.4425      Z:    -0.1066     Total:     2.4780

*** Psi4 exiting successfully. Buy a developer a beer!
