                               Psi4 1.3.2 release

  ==> Input File <==

--------------------------------------------------------------------------
#psi4
#
memory 32 gb

molecule  {
0 1
  O        0.9504380     0.1228240    -0.1741910
  O        0.1670080    -1.9538060     0.3788190
  N       -1.2573980    -0.2788160    -0.3316190
  C       -1.4380940     1.1445880    -0.6015250
  C       -1.5086480     1.9908930     0.6655530
  C       -2.4416600    -1.0731650    -0.0476160
  C       -0.0423676    -0.7924065     0.0471982
  C        2.2764760    -0.3829840     0.0991100
  C        3.2256880     0.7754290    -0.1091670
  H       -0.6200800     1.4811510    -1.2396720
  H       -2.3650680     1.2369900    -1.1776810
  H       -2.3202370     1.6568460     1.3177610
  H       -0.5663980     1.9180080     1.2126270
  H       -1.6843650     3.0420300     0.4158060
  H       -2.9458070    -0.7386130     0.8669600
  H       -2.1365070    -2.1105210     0.0765900
  H       -3.1412900    -0.9939370    -0.8846800
  H        2.3097600    -0.7656990     1.1223780
  H        2.4881280    -1.2160740    -0.5765640
  H        3.1624490     1.1443740    -1.1352360
  H        2.9853640     1.5953270     0.5713660
  H        4.2535110     0.4542820     0.0824610
units angstrom
no_reorient  #important for SAPT in psi4, default
symmetry c1  #important for SAPT in psi4, default
}

set PROPERTIES_ORIGIN ["COM"]
properties('MP2/aug-cc-pvtz', properties = ['dipole'])
--------------------------------------------------------------------------

    Molecular point group: c1
  Charge       = 0
  Multiplicity = 1
  Basis Set: AUG-CC-PVTZ
    Blend: AUG-CC-PVTZ
  Basis Set: (AUG-CC-PVTZ AUX)
    Blend: AUG-CC-PVTZ-JKFIT

    Orbital Energies [Eh]
    ---------------------

    Doubly Occupied:

       1A    -20.593858     2A    -20.518869     3A    -15.582977
       4A    -11.394253     5A    -11.283673     6A    -11.265131
       7A    -11.253853     8A    -11.222485     9A    -11.220888
      10A     -1.448754    11A     -1.340899    12A     -1.246934
      13A     -1.036457    14A     -1.024947    15A     -0.945709
      16A     -0.877789    17A     -0.842641    18A     -0.762032
      19A     -0.711928    20A     -0.682625    21A     -0.673624
      22A     -0.635410    23A     -0.613771    24A     -0.594094
      25A     -0.580508    26A     -0.567810    27A     -0.559926
      28A     -0.540743    29A     -0.535727    30A     -0.520640
      31A     -0.509506    32A     -0.507026    33A     -0.496006
      34A     -0.455887    35A     -0.443868    36A     -0.374267

  @DF-RHF Final Energy:  -439.13565160756445

   => Energetics <=

    Nuclear Repulsion Energy =            492.3020429871537544
    One-Electron Energy =               -1575.1443567335747957
    Two-Electron Energy =                 643.7066621388565864
    Total Energy =                       -439.1356516075644549
  Basis Set: (AUG-CC-PVTZ AUX)
    Blend: AUG-CC-PVTZ-RI
    Molecular point group: c1

    Geometry (in Angstrom), charge = 0, multiplicity = 1:

       Center              X                  Y                   Z               Mass
    ------------   -----------------  -----------------  -----------------  -----------------
         O            0.946336640728     0.172298212699    -0.173650773589    15.994914619570
         O            0.162906640728    -1.904331787300     0.379359226411    15.994914619570
         N           -1.261499359272    -0.229341787301    -0.331078773589    14.003074004430
         C           -1.442195359272     1.194062212699    -0.600984773589    12.000000000000
         C           -1.512749359272     2.040367212700     0.666093226411    12.000000000000
         C           -2.445761359272    -1.023690787300    -0.047075773589    12.000000000000
         C           -0.046468959272    -0.742932287300     0.047738426411    12.000000000000
         C            2.272374640728    -0.333509787301     0.099650226411    12.000000000000
         C            3.221586640728     0.824903212700    -0.108626773589    12.000000000000
         H           -0.624181359272     1.530625212700    -1.239131773589     1.007825032230
         H           -2.369169359272     1.286464212700    -1.177140773589     1.007825032230
         H           -2.324338359272     1.706320212700     1.318301226411     1.007825032230
         H           -0.570499359272     1.967482212699     1.213167226411     1.007825032230
         H           -1.688466359272     3.091504212700     0.416346226411     1.007825032230
         H           -2.949908359272    -0.689138787300     0.867500226411     1.007825032230
         H           -2.140608359272    -2.061046787300     0.077130226411     1.007825032230
         H           -3.145391359272    -0.944462787300    -0.884139773589     1.007825032230
         H            2.305658640728    -0.716224787300     1.122918226411     1.007825032230
         H            2.484026640728    -1.166599787301    -0.576023773589     1.007825032230
         H            3.158347640728     1.193848212700    -1.134695773589     1.007825032230
         H            2.981262640728     1.644801212699     0.571906226411     1.007825032230
         H            4.249409640728     0.503756212699     0.083001226411     1.007825032230

  Basis Set: AUG-CC-PVTZ
    Blend: AUG-CC-PVTZ
  Basis Set: (AUG-CC-PVTZ AUX)
    Blend: AUG-CC-PVTZ-JKFIT
	 Reference Energy          =    -439.1356516075644549 [Eh]
	 Singles Energy            =      -0.0000000000000000 [Eh]
	 Same-Spin Energy          =      -0.4417393812871299 [Eh]
	 Opposite-Spin Energy      =      -1.4592976560984543 [Eh]
	 Correlation Energy        =      -1.9010370373855840 [Eh]
	 Total Energy              =    -441.0366886449500612 [Eh]

	 ================> DF-SCS-MP2 Energies <==================
	-----------------------------------------------------------
	 SCS Same-Spin Scale       =       0.3333333333333333 [-]
	 SCS Opposite-Spin Scale   =       1.2000000000000000 [-]
	 SCS Same-Spin Energy      =      -0.1472464604290433 [Eh]
	 SCS Opposite-Spin Energy  =      -1.7511571873181451 [Eh]
	 SCS Correlation Energy    =      -1.8984036477471884 [Eh]
	 SCS Total Energy          =    -441.0340552553116709 [Eh]
	-----------------------------------------------------------

  Dipole Moment: [D]
     X:    -0.5638      Y:     2.4101      Z:    -0.4377     Total:     2.5135

*** Psi4 exiting successfully. Buy a developer a beer!
