                               Psi4 1.4a3.dev225

  ==> Input File <==

--------------------------------------------------------------------------
#psi4
#
memory 32 gb

molecule  {
-2 1
  P        0.1336040    -0.0000010     0.0669700
  O       -1.2602320     0.0000140    -0.9491030
  O       -0.5109990    -0.0000200     1.4686910
  O        0.8843750     1.2916960    -0.3037030
  O        0.8843730    -1.2916890    -0.3037370
  H       -1.9469330     0.0000036    -0.3350566
units angstrom
no_reorient  #important for SAPT in psi4, default
symmetry c1  #important for SAPT in psi4, default
}

set PROPERTIES_ORIGIN ["COM"]
properties('MP2/aug-cc-pvtz', properties = ['dipole'])
--------------------------------------------------------------------------

    Molecular point group: c1
  Charge       = -2
  Multiplicity = 1
  Basis Set: AUG-CC-PVTZ
    Blend: AUG-CC-PVTZ
  Basis Set: (AUG-CC-PVTZ AUX)
    Blend: AUG-CC-PVTZ-JKFIT

    Orbital Energies [Eh]
    ---------------------

    Doubly Occupied:

       1A    -79.650713     2A    -20.189829     3A    -20.099878
       4A    -20.092014     5A    -20.091996     6A     -7.165675
       7A     -5.065053     8A     -5.062955     9A     -5.062707
      10A     -0.997991    11A     -0.901178    12A     -0.839373
      13A     -0.832638    14A     -0.361651    15A     -0.276689
      16A     -0.213030    17A     -0.194251    18A     -0.162101
      19A     -0.132574    20A     -0.072574    21A     -0.071961
      22A     -0.071469    23A     -0.036189    24A     -0.024964
      25A     -0.002204

  @DF-RHF Final Energy:  -640.92187748391359

   => Energetics <=

    Nuclear Repulsion Energy =            252.1232092068496513
    One-Electron Energy =               -1410.7468603048653222
    Two-Electron Energy =                 517.7017736141020805
    Total Energy =                       -640.9218774839135904
  Basis Set: (AUG-CC-PVTZ AUX)
    Blend: AUG-CC-PVTZ-RI
    Molecular point group: c1

    Geometry (in Angstrom), charge = -2, multiplicity = 1:

       Center              X                  Y                   Z               Mass
    ------------   -----------------  -----------------  -----------------  -----------------
         P            0.111341519972    -0.000000881716     0.063516010096    30.973761998420
         O           -1.282494480028     0.000014118284    -0.952556989904    15.994914619570
         O           -0.533261480028    -0.000019881716     1.465237010096    15.994914619570
         O            0.862112519972     1.291696118284    -0.307156989904    15.994914619570
         O            0.862110519972    -1.291688881716    -0.307190989904    15.994914619570
         H           -1.969195480028     0.000003718284    -0.338510589904     1.007825032230

  Basis Set: AUG-CC-PVTZ
    Blend: AUG-CC-PVTZ
  Basis Set: (AUG-CC-PVTZ AUX)
    Blend: AUG-CC-PVTZ-JKFIT
	 Reference Energy          =    -640.9218774839135904 [Eh]
	 Singles Energy            =      -0.0000000000000000 [Eh]
	 Same-Spin Energy          =      -0.3397563564506370 [Eh]
	 Opposite-Spin Energy      =      -0.9346994473546247 [Eh]
	 Correlation Energy        =      -1.2744558038052618 [Eh]
	 Total Energy              =    -642.1963332877188577 [Eh]

	 ================> DF-SCS-MP2 Energies <==================
	-----------------------------------------------------------
	 SCS Same-Spin Scale       =       0.3333333333333333 [-]
	 SCS Opposite-Spin Scale   =       1.2000000000000000 [-]
	 SCS Same-Spin Energy      =      -0.1132521188168790 [Eh]
	 SCS Opposite-Spin Energy  =      -1.1216393368255497 [Eh]
	 SCS Correlation Energy    =      -1.2348914556424286 [Eh]
	 SCS Total Energy          =    -642.1567689395560592 [Eh]
	-----------------------------------------------------------

  Dipole Moment: [D]
     X:    -2.8162      Y:     0.0000      Z:    -0.6488     Total:     2.8900

*** Psi4 exiting successfully. Buy a developer a beer!
