                               Psi4 1.3.2 release

  ==> Input File <==

--------------------------------------------------------------------------
#psi4
#
memory 32 gb

molecule  {
-2 1
  P        0.1641090    -0.0635590     0.0002810
  O       -1.3208779     0.9067330     0.1566353
  O        0.0623980    -0.8993590    -1.2961490
  O        0.0584720    -0.8952640     1.2990450
  O        1.1967260     1.0757810    -0.0000020
  H       -1.9875120     0.0728630    -0.0016460
units angstrom
no_reorient  #important for SAPT in psi4, default
symmetry c1  #important for SAPT in psi4, default
}

set PROPERTIES_ORIGIN ["COM"]
properties('MP2/aug-cc-pvtz', properties = ['dipole'])
--------------------------------------------------------------------------

    Molecular point group: c1
  Charge       = -2
  Multiplicity = 1
  Basis Set: AUG-CC-PVTZ
    Blend: AUG-CC-PVTZ
  Basis Set: (AUG-CC-PVTZ AUX)
    Blend: AUG-CC-PVTZ-JKFIT

    Orbital Energies [Eh]
    ---------------------

    Doubly Occupied:

       1A    -79.657917     2A    -20.203059     3A    -20.110000
       4A    -20.097301     5A    -20.096205     6A     -7.172236
       7A     -5.071701     8A     -5.069313     9A     -5.069195
      10A     -0.961192    11A     -0.891147    12A     -0.843582
      13A     -0.837696    14A     -0.322333    15A     -0.256055
      16A     -0.209458    17A     -0.189088    18A     -0.162188
      19A     -0.132473    20A     -0.078456    21A     -0.075262
      22A     -0.069428    23A     -0.038830    24A     -0.029803
      25A     -0.008536

  @DF-RHF Final Energy:  -640.89895175982758

   => Energetics <=

    Nuclear Repulsion Energy =            249.3981407214085095
    One-Electron Energy =               -1405.2892768444307876
    Two-Electron Energy =                 514.9921843631947240
    Total Energy =                       -640.8989517598275825
  Basis Set: (AUG-CC-PVTZ AUX)
    Blend: AUG-CC-PVTZ-RI
    Molecular point group: c1

    Geometry (in Angstrom), charge = -2, multiplicity = 1:

       Center              X                  Y                   Z               Mass
    ------------   -----------------  -----------------  -----------------  -----------------
         P            0.132559648634    -0.075126923211    -0.026382912774    30.973761998420
         O           -1.352427251366     0.895165076789     0.129971387226    15.994914619570
         O            0.030848648634    -0.910926923211    -1.322812912774    15.994914619570
         O            0.026922648634    -0.906831923211     1.272381087226    15.994914619570
         O            1.165176648634     1.064213076789    -0.026665912774    15.994914619570
         H           -2.019061351366     0.061295076789    -0.028309912774     1.007825032230

  Basis Set: AUG-CC-PVTZ
    Blend: AUG-CC-PVTZ
  Basis Set: (AUG-CC-PVTZ AUX)
    Blend: AUG-CC-PVTZ-JKFIT
	 Reference Energy          =    -640.8989517598275825 [Eh]
	 Singles Energy            =      -0.0000000000000000 [Eh]
	 Same-Spin Energy          =      -0.3425485518969020 [Eh]
	 Opposite-Spin Energy      =      -0.9425873758448091 [Eh]
	 Correlation Energy        =      -1.2851359277417111 [Eh]
	 Total Energy              =    -642.1840876875693311 [Eh]

	 ================> DF-SCS-MP2 Energies <==================
	-----------------------------------------------------------
	 SCS Same-Spin Scale       =       0.3333333333333333 [-]
	 SCS Opposite-Spin Scale   =       1.2000000000000000 [-]
	 SCS Same-Spin Energy      =      -0.1141828506323007 [Eh]
	 SCS Opposite-Spin Energy  =      -1.1311048510137709 [Eh]
	 SCS Correlation Energy    =      -1.2452877016460715 [Eh]
	 SCS Total Energy          =    -642.1442394614736031 [Eh]
	-----------------------------------------------------------

  Dipole Moment: [D]
     X:    -2.3400      Y:     0.1470      Z:    -0.2485     Total:     2.3577

*** Psi4 exiting successfully. Buy a developer a beer!
