                               Psi4 1.3.2 release

  ==> Input File <==

--------------------------------------------------------------------------
#psi4
#
memory 32 gb

molecule  {
-2 1
  P        0.1641090    -0.0635590     0.0002810
  O       -1.3768620     0.8289070    -0.0032150
  O        0.0689776    -0.8452915    -1.2122836
  O        0.0584720    -0.8952640     1.2990450
  O        1.1967260     1.0757810    -0.0000020
  H       -1.9875120     0.0728630    -0.0016460
units angstrom
no_reorient  #important for SAPT in psi4, default
symmetry c1  #important for SAPT in psi4, default
}

set PROPERTIES_ORIGIN ["COM"]
properties('MP2/aug-cc-pvtz', properties = ['dipole'])
--------------------------------------------------------------------------

    Molecular point group: c1
  Charge       = -2
  Multiplicity = 1
  Basis Set: AUG-CC-PVTZ
    Blend: AUG-CC-PVTZ
  Basis Set: (AUG-CC-PVTZ AUX)
    Blend: AUG-CC-PVTZ-JKFIT

    Orbital Energies [Eh]
    ---------------------

    Doubly Occupied:

       1A    -79.637058     2A    -20.181906     3A    -20.094904
       4A    -20.091667     5A    -20.091133     6A     -7.155445
       7A     -5.054462     8A     -5.053218     9A     -5.051987
      10A     -0.976042    11A     -0.910000    12A     -0.851483
      13A     -0.832810    14A     -0.329183    15A     -0.263629
      16A     -0.211391    17A     -0.189488    18A     -0.167964
      19A     -0.132092    20A     -0.080663    21A     -0.078662
      22A     -0.067313    23A     -0.038013    24A     -0.027933
      25A     -0.003854

  @DF-RHF Final Energy:  -640.91531079965796

   => Energetics <=

    Nuclear Repulsion Energy =            253.8880420512483909
    One-Electron Energy =               -1414.4621070957859956
    Two-Electron Energy =                 519.6587542448795602
    Total Energy =                       -640.9153107996579593
  Basis Set: (AUG-CC-PVTZ AUX)
    Blend: AUG-CC-PVTZ-RI
    Molecular point group: c1

    Geometry (in Angstrom), charge = -2, multiplicity = 1:

       Center              X                  Y                   Z               Mass
    ------------   -----------------  -----------------  -----------------  -----------------
         P            0.140794439201    -0.071166833104    -0.013717675037    30.973761998420
         O           -1.400176560799     0.821299166896    -0.017213675037    15.994914619570
         O            0.045663039201    -0.852899333104    -1.226282275037    15.994914619570
         O            0.035157439201    -0.902871833104     1.285046324963    15.994914619570
         O            1.173411439201     1.068173166896    -0.014000675037    15.994914619570
         H           -2.010826560799     0.065255166896    -0.015644675037     1.007825032230

  Basis Set: AUG-CC-PVTZ
    Blend: AUG-CC-PVTZ
  Basis Set: (AUG-CC-PVTZ AUX)
    Blend: AUG-CC-PVTZ-JKFIT
	 Reference Energy          =    -640.9153107996579593 [Eh]
	 Singles Energy            =      -0.0000000000000000 [Eh]
	 Same-Spin Energy          =      -0.3391401413765993 [Eh]
	 Opposite-Spin Energy      =      -0.9336659977189798 [Eh]
	 Correlation Energy        =      -1.2728061390955792 [Eh]
	 Total Energy              =    -642.1881169387535238 [Eh]

	 ================> DF-SCS-MP2 Energies <==================
	-----------------------------------------------------------
	 SCS Same-Spin Scale       =       0.3333333333333333 [-]
	 SCS Opposite-Spin Scale   =       1.2000000000000000 [-]
	 SCS Same-Spin Energy      =      -0.1130467137921997 [Eh]
	 SCS Opposite-Spin Energy  =      -1.1203991972627758 [Eh]
	 SCS Correlation Energy    =      -1.2334459110549756 [Eh]
	 SCS Total Energy          =    -642.1487567107129735 [Eh]
	-----------------------------------------------------------

  Dipole Moment: [D]
     X:    -2.3464      Y:    -0.2057      Z:    -0.6034     Total:     2.4315

*** Psi4 exiting successfully. Buy a developer a beer!
