                               Psi4 1.3.2 release

  ==> Input File <==

--------------------------------------------------------------------------
#psi4
#
memory 32 gb

molecule  {
-2 1
  P        0.1641090    -0.0635590     0.0002810
  O       -1.3768620     0.8289070    -0.0032150
  O        0.0623980    -0.8993590    -1.2961490
  O        0.0584720    -0.8952640     1.2990450
  O        1.1967260     1.0757810    -0.0000020
  H       -1.9875120     0.0728630    -0.0016460
units angstrom
no_reorient  #important for SAPT in psi4, default
symmetry c1  #important for SAPT in psi4, default
}

set PROPERTIES_ORIGIN ["COM"]
properties('MP2/aug-cc-pvtz', properties = ['dipole'])
--------------------------------------------------------------------------

    Molecular point group: c1
  Charge       = -2
  Multiplicity = 1
  Basis Set: AUG-CC-PVTZ
    Blend: AUG-CC-PVTZ
  Basis Set: (AUG-CC-PVTZ AUX)
    Blend: AUG-CC-PVTZ-JKFIT

    Orbital Energies [Eh]
    ---------------------

    Doubly Occupied:

       1A    -79.657777     2A    -20.189975     3A    -20.101323
       4A    -20.100934     5A    -20.100914     6A     -7.171994
       7A     -5.071414     8A     -5.069095     9A     -5.069021
      10A     -0.973289    11A     -0.899068    12A     -0.842088
      13A     -0.839287    14A     -0.336773    15A     -0.268980
      16A     -0.208899    17A     -0.189029    18A     -0.163797
      19A     -0.132759    20A     -0.077662    21A     -0.073954
      22A     -0.070655    23A     -0.039750    24A     -0.031107
      25A     -0.008588

  @DF-RHF Final Energy:  -640.91732300411650

   => Energetics <=

    Nuclear Repulsion Energy =            249.7686664873820348
    One-Electron Energy =               -1405.9957096488933530
    Two-Electron Energy =                 515.3097201573948496
    Total Energy =                       -640.9173230041164970
  Basis Set: (AUG-CC-PVTZ AUX)
    Blend: AUG-CC-PVTZ-RI
    Molecular point group: c1

    Geometry (in Angstrom), charge = -2, multiplicity = 1:

       Center              X                  Y                   Z               Mass
    ------------   -----------------  -----------------  -----------------  -----------------
         P            0.141891133389    -0.062154809118     0.000261092177    30.973761998420
         O           -1.399079866611     0.830311190882    -0.003234907823    15.994914619570
         O            0.040180133389    -0.897954809118    -1.296168907823    15.994914619570
         O            0.036254133389    -0.893859809118     1.299025092177    15.994914619570
         O            1.174508133389     1.077185190882    -0.000021907823    15.994914619570
         H           -2.009729866611     0.074267190882    -0.001665907823     1.007825032230

  Basis Set: AUG-CC-PVTZ
    Blend: AUG-CC-PVTZ
  Basis Set: (AUG-CC-PVTZ AUX)
    Blend: AUG-CC-PVTZ-JKFIT
	 Reference Energy          =    -640.9173230041164970 [Eh]
	 Singles Energy            =      -0.0000000000000000 [Eh]
	 Same-Spin Energy          =      -0.3409340490031317 [Eh]
	 Opposite-Spin Energy      =      -0.9383050468296239 [Eh]
	 Correlation Energy        =      -1.2792390958327555 [Eh]
	 Total Energy              =    -642.1965620999492330 [Eh]

	 ================> DF-SCS-MP2 Energies <==================
	-----------------------------------------------------------
	 SCS Same-Spin Scale       =       0.3333333333333333 [-]
	 SCS Opposite-Spin Scale   =       1.2000000000000000 [-]
	 SCS Same-Spin Energy      =      -0.1136446830010439 [Eh]
	 SCS Opposite-Spin Energy  =      -1.1259660561955487 [Eh]
	 SCS Correlation Energy    =      -1.2396107391965927 [Eh]
	 SCS Total Energy          =    -642.1569337433130613 [Eh]
	-----------------------------------------------------------

  Dipole Moment: [D]
     X:    -2.3361      Y:     0.1869      Z:    -0.0022     Total:     2.3435

*** Psi4 exiting successfully. Buy a developer a beer!
