                               Psi4 1.3.2 release

  ==> Input File <==

--------------------------------------------------------------------------
#psi4
#
memory 32 gb

molecule  {
-2 1
  P        0.1641090    -0.0635590     0.0002810
  O       -1.2037929     0.7286726    -0.0028224
  O        0.0623980    -0.8993590    -1.2961490
  O        0.0584720    -0.8952640     1.2990450
  O        1.1967260     1.0757810    -0.0000020
  H       -1.9875120     0.0728630    -0.0016460
units angstrom
no_reorient  #important for SAPT in psi4, default
symmetry c1  #important for SAPT in psi4, default
}

set PROPERTIES_ORIGIN ["COM"]
properties('MP2/aug-cc-pvtz', properties = ['dipole'])
--------------------------------------------------------------------------

    Molecular point group: c1
  Charge       = -2
  Multiplicity = 1
  Basis Set: AUG-CC-PVTZ
    Blend: AUG-CC-PVTZ
  Basis Set: (AUG-CC-PVTZ AUX)
    Blend: AUG-CC-PVTZ-JKFIT

    Orbital Energies [Eh]
    ---------------------

    Doubly Occupied:

       1A    -79.634288     2A    -20.199737     3A    -20.087301
       4A    -20.083348     5A    -20.083330     6A     -7.151533
       7A     -5.051458     8A     -5.048658     9A     -5.048478
      10A     -1.012795    11A     -0.883860    12A     -0.829921
      13A     -0.825435    14A     -0.380133    15A     -0.267958
      16A     -0.213781    17A     -0.210867    18A     -0.146066
      19A     -0.128486    20A     -0.068821    21A     -0.063896
      22A     -0.062244    23A     -0.024044    24A     -0.014780
      25A      0.005427

  @DF-RHF Final Energy:  -640.90774489801959

   => Energetics <=

    Nuclear Repulsion Energy =            256.6447592626001892
    One-Electron Energy =               -1420.0734238441766593
    Two-Electron Energy =                 522.5209196835568264
    Total Energy =                       -640.9077448980195868
  Basis Set: (AUG-CC-PVTZ AUX)
    Blend: AUG-CC-PVTZ-RI
    Molecular point group: c1

    Geometry (in Angstrom), charge = -2, multiplicity = 1:

       Center              X                  Y                   Z               Mass
    ------------   -----------------  -----------------  -----------------  -----------------
         P            0.113043805876    -0.045447640913     0.000195653223    30.973761998420
         O           -1.254858094124     0.746783959087    -0.002907746777    15.994914619570
         O            0.011332805876    -0.881247640913    -1.296234346777    15.994914619570
         O            0.007406805876    -0.877152640913     1.298959653223    15.994914619570
         O            1.145660805876     1.093892359087    -0.000087346777    15.994914619570
         H           -2.038577194124     0.090974359087    -0.001731346777     1.007825032230

  Basis Set: AUG-CC-PVTZ
    Blend: AUG-CC-PVTZ
  Basis Set: (AUG-CC-PVTZ AUX)
    Blend: AUG-CC-PVTZ-JKFIT
	 Reference Energy          =    -640.9077448980195868 [Eh]
	 Singles Energy            =      -0.0000000000000000 [Eh]
	 Same-Spin Energy          =      -0.3399469575439186 [Eh]
	 Opposite-Spin Energy      =      -0.9343429726775434 [Eh]
	 Correlation Energy        =      -1.2742899302214621 [Eh]
	 Total Energy              =    -642.1820348282410578 [Eh]

	 ================> DF-SCS-MP2 Energies <==================
	-----------------------------------------------------------
	 SCS Same-Spin Scale       =       0.3333333333333333 [-]
	 SCS Opposite-Spin Scale   =       1.2000000000000000 [-]
	 SCS Same-Spin Energy      =      -0.1133156525146395 [Eh]
	 SCS Opposite-Spin Energy  =      -1.1212115672130520 [Eh]
	 SCS Correlation Energy    =      -1.2345272197276915 [Eh]
	 SCS Total Energy          =    -642.1422721177473250 [Eh]
	-----------------------------------------------------------

  Dipole Moment: [D]
     X:    -3.4565      Y:     0.8255      Z:    -0.0047     Total:     3.5537

*** Psi4 exiting successfully. Buy a developer a beer!
