                               Psi4 1.3.2 release

  ==> Input File <==

--------------------------------------------------------------------------
#psi4
#
memory 32 gb

molecule  {
-2 1
  P        0.1641090    -0.0635590     0.0002810
  O       -1.3768620     0.8289070    -0.0032150
  O        0.0460855    -1.0292404    -1.2010380
  O        0.0584720    -0.8952640     1.2990450
  O        1.1967260     1.0757810    -0.0000020
  H       -1.9875120     0.0728630    -0.0016460
units angstrom
no_reorient  #important for SAPT in psi4, default
symmetry c1  #important for SAPT in psi4, default
}

set PROPERTIES_ORIGIN ["COM"]
properties('MP2/aug-cc-pvtz', properties = ['dipole'])
--------------------------------------------------------------------------

    Molecular point group: c1
  Charge       = -2
  Multiplicity = 1
  Basis Set: AUG-CC-PVTZ
    Blend: AUG-CC-PVTZ
  Basis Set: (AUG-CC-PVTZ AUX)
    Blend: AUG-CC-PVTZ-JKFIT

    Orbital Energies [Eh]
    ---------------------

    Doubly Occupied:

       1A    -79.657792     2A    -20.193166     3A    -20.108157
       4A    -20.100875     5A    -20.090350     6A     -7.172032
       7A     -5.071411     8A     -5.069243     9A     -5.068941
      10A     -0.974800    11A     -0.900373    12A     -0.847897
      13A     -0.830080    14A     -0.338700    15A     -0.269754
      16A     -0.210127    17A     -0.187244    18A     -0.166843
      19A     -0.131092    20A     -0.080360    21A     -0.073231
      22A     -0.069155    23A     -0.043979    24A     -0.025165
      25A     -0.004455

  @DF-RHF Final Energy:  -640.91442011535992

   => Energetics <=

    Nuclear Repulsion Energy =            249.7770056146427464
    One-Electron Energy =               -1406.0124086144603552
    Two-Electron Energy =                 515.3209828844576350
    Total Energy =                       -640.9144201153599170
  Basis Set: (AUG-CC-PVTZ AUX)
    Blend: AUG-CC-PVTZ-RI
    Molecular point group: c1

    Geometry (in Angstrom), charge = -2, multiplicity = 1:

       Center              X                  Y                   Z               Mass
    ------------   -----------------  -----------------  -----------------  -----------------
         P            0.144610116906    -0.040506049844    -0.015592102687    30.973761998420
         O           -1.396360883094     0.851959950156    -0.019088102687    15.994914619570
         O            0.026586616906    -1.006187449844    -1.216911102687    15.994914619570
         O            0.038973116906    -0.872211049844     1.283171897313    15.994914619570
         O            1.177227116906     1.098833950156    -0.015875102687    15.994914619570
         H           -2.007010883094     0.095915950156    -0.017519102687     1.007825032230

  Basis Set: AUG-CC-PVTZ
    Blend: AUG-CC-PVTZ
  Basis Set: (AUG-CC-PVTZ AUX)
    Blend: AUG-CC-PVTZ-JKFIT
	 Reference Energy          =    -640.9144201153599170 [Eh]
	 Singles Energy            =      -0.0000000000000000 [Eh]
	 Same-Spin Energy          =      -0.3410441344409990 [Eh]
	 Opposite-Spin Energy      =      -0.9384855902852074 [Eh]
	 Correlation Energy        =      -1.2795297247262063 [Eh]
	 Total Energy              =    -642.1939498400861339 [Eh]

	 ================> DF-SCS-MP2 Energies <==================
	-----------------------------------------------------------
	 SCS Same-Spin Scale       =       0.3333333333333333 [-]
	 SCS Opposite-Spin Scale   =       1.2000000000000000 [-]
	 SCS Same-Spin Energy      =      -0.1136813781469997 [Eh]
	 SCS Opposite-Spin Energy  =      -1.1261827083422489 [Eh]
	 SCS Correlation Energy    =      -1.2398640864892485 [Eh]
	 SCS Total Energy          =    -642.1542842018491228 [Eh]
	-----------------------------------------------------------

  Dipole Moment: [D]
     X:    -2.2884      Y:     0.4913      Z:    -0.2383     Total:     2.3526

*** Psi4 exiting successfully. Buy a developer a beer!
