                               Psi4 1.4a3.dev225

  ==> Input File <==

--------------------------------------------------------------------------
#psi4
#
memory 32 gb

molecule  {
-2 1
  P        0.1336040    -0.0000010     0.0669700
  O       -1.2602320     0.0000140    -0.9491030
  O       -0.5318892    -0.0000206     1.5141178
  O        0.8843750     1.2916960    -0.3037030
  O        0.8843730    -1.2916890    -0.3037370
  H       -1.9842050     0.0000030    -0.3017280
units angstrom
no_reorient  #important for SAPT in psi4, default
symmetry c1  #important for SAPT in psi4, default
}

set PROPERTIES_ORIGIN ["COM"]
properties('MP2/aug-cc-pvtz', properties = ['dipole'])
--------------------------------------------------------------------------

    Molecular point group: c1
  Charge       = -2
  Multiplicity = 1
  Basis Set: AUG-CC-PVTZ
    Blend: AUG-CC-PVTZ
  Basis Set: (AUG-CC-PVTZ AUX)
    Blend: AUG-CC-PVTZ-JKFIT

    Orbital Energies [Eh]
    ---------------------

    Doubly Occupied:

       1A    -79.659298     2A    -20.198990     3A    -20.102293
       4A    -20.096709     5A    -20.096690     6A     -7.172947
       7A     -5.072398     8A     -5.070092     9A     -5.070006
      10A     -0.988431    11A     -0.895943    12A     -0.836714
      13A     -0.829672    14A     -0.355926    15A     -0.274694
      16A     -0.212362    17A     -0.194836    18A     -0.159106
      19A     -0.133107    20A     -0.075307    21A     -0.070172
      22A     -0.067907    23A     -0.033269    24A     -0.028218
      25A     -0.004520

  @DF-RHF Final Energy:  -640.91670539759343

   => Energetics <=

    Nuclear Repulsion Energy =            249.8840456738324178
    One-Electron Energy =               -1406.2022881411908202
    Two-Electron Energy =                 515.4015370697650269
    Total Energy =                       -640.9167053975934323
  Basis Set: (AUG-CC-PVTZ AUX)
    Blend: AUG-CC-PVTZ-RI
    Molecular point group: c1

    Geometry (in Angstrom), charge = -2, multiplicity = 1:

       Center              X                  Y                   Z               Mass
    ------------   -----------------  -----------------  -----------------  -----------------
         P            0.115214965112    -0.000000775406     0.055594195609    30.973761998420
         O           -1.278621034888     0.000014224594    -0.960478804391    15.994914619570
         O           -0.550278234888    -0.000020375406     1.502741995609    15.994914619570
         O            0.865985965112     1.291696224594    -0.315078804391    15.994914619570
         O            0.865983965112    -1.291688775406    -0.315112804391    15.994914619570
         H           -2.002594034888     0.000003224594    -0.313103804391     1.007825032230

  Basis Set: AUG-CC-PVTZ
    Blend: AUG-CC-PVTZ
  Basis Set: (AUG-CC-PVTZ AUX)
    Blend: AUG-CC-PVTZ-JKFIT
	 Reference Energy          =    -640.9167053975934323 [Eh]
	 Singles Energy            =      -0.0000000000000000 [Eh]
	 Same-Spin Energy          =      -0.3412365594074541 [Eh]
	 Opposite-Spin Energy      =      -0.9384919425815679 [Eh]
	 Correlation Energy        =      -1.2797285019890219 [Eh]
	 Total Energy              =    -642.1964338995824164 [Eh]

	 ================> DF-SCS-MP2 Energies <==================
	-----------------------------------------------------------
	 SCS Same-Spin Scale       =       0.3333333333333333 [-]
	 SCS Opposite-Spin Scale   =       1.2000000000000000 [-]
	 SCS Same-Spin Energy      =      -0.1137455198024847 [Eh]
	 SCS Opposite-Spin Energy  =      -1.1261903310978814 [Eh]
	 SCS Correlation Energy    =      -1.2399358509003660 [Eh]
	 SCS Total Energy          =    -642.1566412484937700 [Eh]
	-----------------------------------------------------------

  Dipole Moment: [D]
     X:    -2.6769      Y:     0.0000      Z:    -0.9573     Total:     2.8430

*** Psi4 exiting successfully. Buy a developer a beer!
