                               Psi4 1.4a3.dev225

  ==> Input File <==

--------------------------------------------------------------------------
#psi4
#
memory 32 gb

molecule  {
-2 1
  P        0.1336040    -0.0000010     0.0669700
  O       -1.2763936     0.0000142    -0.9608844
  O       -0.5109990    -0.0000200     1.4686910
  O        0.8843750     1.2916960    -0.3037030
  O        0.8843730    -1.2916890    -0.3037370
  H       -1.9842050     0.0000030    -0.3017280
units angstrom
no_reorient  #important for SAPT in psi4, default
symmetry c1  #important for SAPT in psi4, default
}

set PROPERTIES_ORIGIN ["COM"]
properties('MP2/aug-cc-pvtz', properties = ['dipole'])
--------------------------------------------------------------------------

    Molecular point group: c1
  Charge       = -2
  Multiplicity = 1
  Basis Set: AUG-CC-PVTZ
    Blend: AUG-CC-PVTZ
  Basis Set: (AUG-CC-PVTZ AUX)
    Blend: AUG-CC-PVTZ-JKFIT

    Orbital Energies [Eh]
    ---------------------

    Doubly Occupied:

       1A    -79.652637     2A    -20.193977     3A    -20.101261
       4A    -20.093555     5A    -20.093536     6A     -7.167404
       7A     -5.066747     8A     -5.064663     9A     -5.064425
      10A     -0.983666    11A     -0.899381    12A     -0.840568
      13A     -0.833853    14A     -0.347801    15A     -0.271921
      16A     -0.211965    17A     -0.191805    18A     -0.163221
      19A     -0.131864    20A     -0.073024    21A     -0.072525
      22A     -0.072485    23A     -0.037195    24A     -0.026210
      25A     -0.003525

  @DF-RHF Final Energy:  -640.92077401899678

   => Energetics <=

    Nuclear Repulsion Energy =            251.1526381269557362
    One-Electron Energy =               -1408.8283967240629408
    Two-Electron Energy =                 516.7549845781104523
    Total Energy =                       -640.9207740189967808
  Basis Set: (AUG-CC-PVTZ AUX)
    Blend: AUG-CC-PVTZ-RI
    Molecular point group: c1

    Geometry (in Angstrom), charge = -2, multiplicity = 1:

       Center              X                  Y                   Z               Mass
    ------------   -----------------  -----------------  -----------------  -----------------
         P            0.114426797421    -0.000000908751     0.065129714554    30.973761998420
         O           -1.295570802579     0.000014291249    -0.962724685446    15.994914619570
         O           -0.530176202579    -0.000019908751     1.466850714554    15.994914619570
         O            0.865197797421     1.291696091249    -0.305543285446    15.994914619570
         O            0.865195797421    -1.291688908751    -0.305577285446    15.994914619570
         H           -2.003382202579     0.000003091249    -0.303568285446     1.007825032230

  Basis Set: AUG-CC-PVTZ
    Blend: AUG-CC-PVTZ
  Basis Set: (AUG-CC-PVTZ AUX)
    Blend: AUG-CC-PVTZ-JKFIT
	 Reference Energy          =    -640.9207740189967808 [Eh]
	 Singles Energy            =      -0.0000000000000000 [Eh]
	 Same-Spin Energy          =      -0.3404955294303404 [Eh]
	 Opposite-Spin Energy      =      -0.9366339238683383 [Eh]
	 Correlation Energy        =      -1.2771294532986788 [Eh]
	 Total Energy              =    -642.1979034722954793 [Eh]

	 ================> DF-SCS-MP2 Energies <==================
	-----------------------------------------------------------
	 SCS Same-Spin Scale       =       0.3333333333333333 [-]
	 SCS Opposite-Spin Scale   =       1.2000000000000000 [-]
	 SCS Same-Spin Energy      =      -0.1134985098101135 [Eh]
	 SCS Opposite-Spin Energy  =      -1.1239607086420060 [Eh]
	 SCS Correlation Energy    =      -1.2374592184521196 [Eh]
	 SCS Total Energy          =    -642.1582332374489397 [Eh]
	-----------------------------------------------------------

  Dipole Moment: [D]
     X:    -2.7198      Y:     0.0000      Z:    -0.5539     Total:     2.7756

*** Psi4 exiting successfully. Buy a developer a beer!
