                               Psi4 1.3.2 release

  ==> Input File <==

--------------------------------------------------------------------------
#psi4
#
memory 32 gb

molecule  {
-2 1
  P        0.0623787    -0.2197450     0.0006229
  O       -1.3768620     0.8289070    -0.0032150
  O        0.0623980    -0.8993590    -1.2961490
  O        0.0584720    -0.8952640     1.2990450
  O        1.1967260     1.0757810    -0.0000020
  H       -1.9875120     0.0728630    -0.0016460
units angstrom
no_reorient  #important for SAPT in psi4, default
symmetry c1  #important for SAPT in psi4, default
}

set PROPERTIES_ORIGIN ["COM"]
properties('MP2/aug-cc-pvtz', properties = ['dipole'])
--------------------------------------------------------------------------

    Molecular point group: c1
  Charge       = -2
  Multiplicity = 1
  Basis Set: AUG-CC-PVTZ
    Blend: AUG-CC-PVTZ
  Basis Set: (AUG-CC-PVTZ AUX)
    Blend: AUG-CC-PVTZ-JKFIT

    Orbital Energies [Eh]
    ---------------------

    Doubly Occupied:

       1A    -79.655940     2A    -20.197620     3A    -20.120586
       4A    -20.120500     5A    -20.066551     6A     -7.173392
       7A     -5.072298     8A     -5.071133     9A     -5.069715
      10A     -0.989592    11A     -0.927315    12A     -0.892617
      13A     -0.763451    14A     -0.333348    15A     -0.281128
      16A     -0.224077    17A     -0.207655    18A     -0.166596
      19A     -0.150160    20A     -0.100783    21A     -0.089471
      22A     -0.062204    23A     -0.039277    24A      0.009551
      25A      0.017497

  @DF-RHF Final Energy:  -640.87633350396356

   => Energetics <=

    Nuclear Repulsion Energy =            250.1023923704628373
    One-Electron Energy =               -1406.4607303114105434
    Two-Electron Energy =                 515.4820044369840844
    Total Energy =                       -640.8763335039635649
  Basis Set: (AUG-CC-PVTZ AUX)
    Blend: AUG-CC-PVTZ-RI
    Molecular point group: c1

    Geometry (in Angstrom), charge = -2, multiplicity = 1:

       Center              X                  Y                   Z               Mass
    ------------   -----------------  -----------------  -----------------  -----------------
         P            0.072996694195    -0.167928082962     0.000492635864    30.973761998420
         O           -1.366244005805     0.880723917038    -0.003345264136    15.994914619570
         O            0.073015994195    -0.847542082962    -1.296279264136    15.994914619570
         O            0.069089994195    -0.843447082962     1.298914735864    15.994914619570
         O            1.207343994195     1.127597917038    -0.000132264136    15.994914619570
         H           -1.976894005805     0.124679917038    -0.001776264136     1.007825032230

  Basis Set: AUG-CC-PVTZ
    Blend: AUG-CC-PVTZ
  Basis Set: (AUG-CC-PVTZ AUX)
    Blend: AUG-CC-PVTZ-JKFIT
	 Reference Energy          =    -640.8763335039635649 [Eh]
	 Singles Energy            =      -0.0000000000000000 [Eh]
	 Same-Spin Energy          =      -0.3421111929590012 [Eh]
	 Opposite-Spin Energy      =      -0.9412283501252695 [Eh]
	 Correlation Energy        =      -1.2833395430842707 [Eh]
	 Total Energy              =    -642.1596730470478178 [Eh]

	 ================> DF-SCS-MP2 Energies <==================
	-----------------------------------------------------------
	 SCS Same-Spin Scale       =       0.3333333333333333 [-]
	 SCS Opposite-Spin Scale   =       1.2000000000000000 [-]
	 SCS Same-Spin Energy      =      -0.1140370643196671 [Eh]
	 SCS Opposite-Spin Energy  =      -1.1294740201503233 [Eh]
	 SCS Correlation Energy    =      -1.2435110844699904 [Eh]
	 SCS Total Energy          =    -642.1198445884335797 [Eh]
	-----------------------------------------------------------

  Dipole Moment: [D]
     X:    -3.8716      Y:    -2.1075      Z:     0.0025     Total:     4.4080

*** Psi4 exiting successfully. Buy a developer a beer!
