                               Psi4 1.3.2 release

  ==> Input File <==

--------------------------------------------------------------------------
#psi4
#
memory 32 gb

molecule  {
-2 1
  P        0.1641090    -0.0635590     0.0002810
  O       -1.5499311     0.9291414    -0.0036076
  O        0.0623980    -0.8993590    -1.2961490
  O        0.0584720    -0.8952640     1.2990450
  O        1.1967260     1.0757810    -0.0000020
  H       -1.9875120     0.0728630    -0.0016460
units angstrom
no_reorient  #important for SAPT in psi4, default
symmetry c1  #important for SAPT in psi4, default
}

set PROPERTIES_ORIGIN ["COM"]
properties('MP2/aug-cc-pvtz', properties = ['dipole'])
--------------------------------------------------------------------------

    Molecular point group: c1
  Charge       = -2
  Multiplicity = 1
  Basis Set: AUG-CC-PVTZ
    Blend: AUG-CC-PVTZ
  Basis Set: (AUG-CC-PVTZ AUX)
    Blend: AUG-CC-PVTZ-JKFIT

    Orbital Energies [Eh]
    ---------------------

    Doubly Occupied:

       1A    -79.677543     2A    -20.177366     3A    -20.119126
       4A    -20.119103     5A    -20.116532     6A     -7.191178
       7A     -5.090597     8A     -5.087831     9A     -5.087830
      10A     -0.951168    11A     -0.903053    12A     -0.855597
      13A     -0.854350    14A     -0.316059    15A     -0.256594
      16A     -0.202815    17A     -0.189144    18A     -0.179511
      19A     -0.121589    20A     -0.090771    21A     -0.086491
      22A     -0.069058    23A     -0.054395    24A     -0.046277
      25A     -0.023712

  @DF-RHF Final Energy:  -640.89892130502346

   => Energetics <=

    Nuclear Repulsion Energy =            243.8659348690449917
    One-Electron Energy =               -1393.7943311942731270
    Two-Electron Energy =                 509.0294750202045861
    Total Energy =                       -640.8989213050234639
  Basis Set: (AUG-CC-PVTZ AUX)
    Blend: AUG-CC-PVTZ-RI
    Molecular point group: c1

    Geometry (in Angstrom), charge = -2, multiplicity = 1:

       Center              X                  Y                   Z               Mass
    ------------   -----------------  -----------------  -----------------  -----------------
         P            0.170738460903    -0.078861977324     0.000326531130    30.973761998420
         O           -1.543301639097     0.913838422676    -0.003562068870    15.994914619570
         O            0.069027460903    -0.914661977324    -1.296103468870    15.994914619570
         O            0.065101460903    -0.910566977324     1.299090531130    15.994914619570
         O            1.203355460903     1.060478022676     0.000043531130    15.994914619570
         H           -1.980882539097     0.057560022676    -0.001600468870     1.007825032230

  Basis Set: AUG-CC-PVTZ
    Blend: AUG-CC-PVTZ
  Basis Set: (AUG-CC-PVTZ AUX)
    Blend: AUG-CC-PVTZ-JKFIT
	 Reference Energy          =    -640.8989213050234639 [Eh]
	 Singles Energy            =      -0.0000000000000000 [Eh]
	 Same-Spin Energy          =      -0.3429436670492139 [Eh]
	 Opposite-Spin Energy      =      -0.9439331744678180 [Eh]
	 Correlation Energy        =      -1.2868768415170320 [Eh]
	 Total Energy              =    -642.1857981465404919 [Eh]

	 ================> DF-SCS-MP2 Energies <==================
	-----------------------------------------------------------
	 SCS Same-Spin Scale       =       0.3333333333333333 [-]
	 SCS Opposite-Spin Scale   =       1.2000000000000000 [-]
	 SCS Same-Spin Energy      =      -0.1143145556830713 [Eh]
	 SCS Opposite-Spin Energy  =      -1.1327198093613815 [Eh]
	 SCS Correlation Energy    =      -1.2470343650444529 [Eh]
	 SCS Total Energy          =    -642.1459556700679059 [Eh]
	-----------------------------------------------------------

  Dipole Moment: [D]
     X:    -1.1176      Y:    -0.4421      Z:     0.0004     Total:     1.2019

*** Psi4 exiting successfully. Buy a developer a beer!
