                               Psi4 1.3.2 release

  ==> Input File <==

--------------------------------------------------------------------------
#psi4
#
memory 32 gb

molecule  {
-2 1
  P        0.1641090    -0.0635590     0.0002810
  O       -1.3768620     0.8289070    -0.0032150
  O        0.0623980    -0.8993590    -1.2961490
  O        0.0584720    -0.8952640     1.2990450
  O        1.1967260     1.0757810    -0.0000020
  H       -2.0503456    -0.0049311    -0.0014846
units angstrom
no_reorient  #important for SAPT in psi4, default
symmetry c1  #important for SAPT in psi4, default
}

set PROPERTIES_ORIGIN ["COM"]
properties('MP2/aug-cc-pvtz', properties = ['dipole'])
--------------------------------------------------------------------------

    Molecular point group: c1
  Charge       = -2
  Multiplicity = 1
  Basis Set: AUG-CC-PVTZ
    Blend: AUG-CC-PVTZ
  Basis Set: (AUG-CC-PVTZ AUX)
    Blend: AUG-CC-PVTZ-JKFIT

    Orbital Energies [Eh]
    ---------------------

    Doubly Occupied:

       1A    -79.657581     2A    -20.200874     3A    -20.102072
       4A    -20.100298     5A    -20.100279     6A     -7.171791
       7A     -5.071209     8A     -5.068903     9A     -5.068810
      10A     -0.959911    11A     -0.890635    12A     -0.842281
      13A     -0.838737    14A     -0.326294    15A     -0.253989
      16A     -0.208420    17A     -0.188503    18A     -0.161912
      19A     -0.131986    20A     -0.077434    21A     -0.074023
      22A     -0.070357    23A     -0.038951    24A     -0.030659
      25A     -0.008469

  @DF-RHF Final Energy:  -640.90412636267797

   => Energetics <=

    Nuclear Repulsion Energy =            249.2053667814655284
    One-Electron Energy =               -1404.9302300152025964
    Two-Electron Energy =                 514.8207368710591254
    Total Energy =                       -640.9041263626779710
  Basis Set: (AUG-CC-PVTZ AUX)
    Blend: AUG-CC-PVTZ-RI
    Molecular point group: c1

    Geometry (in Angstrom), charge = -2, multiplicity = 1:

       Center              X                  Y                   Z               Mass
    ------------   -----------------  -----------------  -----------------  -----------------
         P            0.142551038069    -0.061337783027     0.000259397087    30.973761998420
         O           -1.398419961931     0.831128216973    -0.003236602913    15.994914619570
         O            0.040840038069    -0.897137783027    -1.296170602913    15.994914619570
         O            0.036914038069    -0.893042783027     1.299023397087    15.994914619570
         O            1.175168038069     1.078002216973    -0.000023602913    15.994914619570
         H           -2.071903561931    -0.002709883027    -0.001506202913     1.007825032230

  Basis Set: AUG-CC-PVTZ
    Blend: AUG-CC-PVTZ
  Basis Set: (AUG-CC-PVTZ AUX)
    Blend: AUG-CC-PVTZ-JKFIT
	 Reference Energy          =    -640.9041263626779710 [Eh]
	 Singles Energy            =      -0.0000000000000000 [Eh]
	 Same-Spin Energy          =      -0.3419840678017503 [Eh]
	 Opposite-Spin Energy      =      -0.9414676958476319 [Eh]
	 Correlation Energy        =      -1.2834517636493823 [Eh]
	 Total Energy              =    -642.1875781263273666 [Eh]

	 ================> DF-SCS-MP2 Energies <==================
	-----------------------------------------------------------
	 SCS Same-Spin Scale       =       0.3333333333333333 [-]
	 SCS Opposite-Spin Scale   =       1.2000000000000000 [-]
	 SCS Same-Spin Energy      =      -0.1139946892672501 [Eh]
	 SCS Opposite-Spin Energy  =      -1.1297612350171582 [Eh]
	 SCS Correlation Energy    =      -1.2437559242844083 [Eh]
	 SCS Total Energy          =    -642.1478822869623855 [Eh]
	-----------------------------------------------------------

  Dipole Moment: [D]
     X:    -2.3317      Y:     0.1681      Z:    -0.0021     Total:     2.3378

*** Psi4 exiting successfully. Buy a developer a beer!
