                               Psi4 1.3.2 release

  ==> Input File <==

--------------------------------------------------------------------------
#psi4
#
memory 32 gb

molecule  {
-2 1
  P        0.1641090    -0.0635590     0.0002810
  O       -1.3768620     0.8289070    -0.0032150
  O        0.0492387    -1.0074940    -1.4638799
  O        0.0584720    -0.8952640     1.2990450
  O        1.1967260     1.0757810    -0.0000020
  H       -1.9875120     0.0728630    -0.0016460
units angstrom
no_reorient  #important for SAPT in psi4, default
symmetry c1  #important for SAPT in psi4, default
}

set PROPERTIES_ORIGIN ["COM"]
properties('MP2/aug-cc-pvtz', properties = ['dipole'])
--------------------------------------------------------------------------

    Molecular point group: c1
  Charge       = -2
  Multiplicity = 1
  Basis Set: AUG-CC-PVTZ
    Blend: AUG-CC-PVTZ
  Basis Set: (AUG-CC-PVTZ AUX)
    Blend: AUG-CC-PVTZ-JKFIT

    Orbital Energies [Eh]
    ---------------------

    Doubly Occupied:

       1A    -79.686986     2A    -20.205037     3A    -20.118948
       4A    -20.118895     5A    -20.110982     6A     -7.197972
       7A     -5.097348     8A     -5.095103     9A     -5.094417
      10A     -0.981367    11A     -0.903170    12A     -0.857031
      13A     -0.795315    14A     -0.351520    15A     -0.280849
      16A     -0.213461    17A     -0.193933    18A     -0.165180
      19A     -0.134111    20A     -0.084609    21A     -0.074009
      22A     -0.056070    23A     -0.050445    24A     -0.023088
      25A     -0.012589

  @DF-RHF Final Energy:  -640.88241924814065

   => Energetics <=

    Nuclear Repulsion Energy =            242.6730105789121126
    One-Electron Energy =               -1391.3059930094384526
    Two-Electron Energy =                 507.7505631823855197
    Total Energy =                       -640.8824192481406499
  Basis Set: (AUG-CC-PVTZ AUX)
    Blend: AUG-CC-PVTZ-RI
    Molecular point group: c1

    Geometry (in Angstrom), charge = -2, multiplicity = 1:

       Center              X                  Y                   Z               Mass
    ------------   -----------------  -----------------  -----------------  -----------------
         P            0.144084538434    -0.044130761148     0.028218643273    30.973761998420
         O           -1.396886461566     0.848335238852     0.024722643273    15.994914619570
         O            0.029214238434    -0.988065761148    -1.435942256727    15.994914619570
         O            0.038447538434    -0.875835761148     1.326982643273    15.994914619570
         O            1.176701538434     1.095209238852     0.027935643273    15.994914619570
         H           -2.007536461566     0.092291238852     0.026291643273     1.007825032230

  Basis Set: AUG-CC-PVTZ
    Blend: AUG-CC-PVTZ
  Basis Set: (AUG-CC-PVTZ AUX)
    Blend: AUG-CC-PVTZ-JKFIT
	 Reference Energy          =    -640.8824192481406499 [Eh]
	 Singles Energy            =      -0.0000000000000000 [Eh]
	 Same-Spin Energy          =      -0.3442983352523667 [Eh]
	 Opposite-Spin Energy      =      -0.9476873617488593 [Eh]
	 Correlation Energy        =      -1.2919856970012260 [Eh]
	 Total Energy              =    -642.1744049451418732 [Eh]

	 ================> DF-SCS-MP2 Energies <==================
	-----------------------------------------------------------
	 SCS Same-Spin Scale       =       0.3333333333333333 [-]
	 SCS Opposite-Spin Scale   =       1.2000000000000000 [-]
	 SCS Same-Spin Energy      =      -0.1147661117507889 [Eh]
	 SCS Opposite-Spin Energy  =      -1.1372248340986311 [Eh]
	 SCS Correlation Energy    =      -1.2519909458494201 [Eh]
	 SCS Total Energy          =    -642.1344101939901066 [Eh]
	-----------------------------------------------------------

  Dipole Moment: [D]
     X:    -2.2984      Y:     0.9732      Z:     1.2025     Total:     2.7705

*** Psi4 exiting successfully. Buy a developer a beer!
