                               Psi4 1.4a3.dev225

  ==> Input File <==

--------------------------------------------------------------------------
#psi4
#
memory 32 gb

molecule  {
-2 1
  P        0.1336040    -0.0000010     0.0669700
  O       -1.2602320     0.0000140    -0.9491030
  O       -0.5026429    -0.0000198     1.4505203
  O        0.8843750     1.2916960    -0.3037030
  O        0.8843730    -1.2916890    -0.3037370
  H       -1.9842050     0.0000030    -0.3017280
units angstrom
no_reorient  #important for SAPT in psi4, default
symmetry c1  #important for SAPT in psi4, default
}

set PROPERTIES_ORIGIN ["COM"]
properties('MP2/aug-cc-pvtz', properties = ['dipole'])
--------------------------------------------------------------------------

    Molecular point group: c1
  Charge       = -2
  Multiplicity = 1
  Basis Set: AUG-CC-PVTZ
    Blend: AUG-CC-PVTZ
  Basis Set: (AUG-CC-PVTZ AUX)
    Blend: AUG-CC-PVTZ-JKFIT

    Orbital Energies [Eh]
    ---------------------

    Doubly Occupied:

       1A    -79.646613     2A    -20.193481     3A    -20.098207
       4A    -20.090048     5A    -20.090030     6A     -7.162243
       7A     -5.061567     8A     -5.059630     9A     -5.059208
      10A     -0.986879    11A     -0.899605    12A     -0.842193
      13A     -0.830878    14A     -0.350719    15A     -0.270513
      16A     -0.212764    17A     -0.193171    18A     -0.162473
      19A     -0.131394    20A     -0.073198    21A     -0.072357
      22A     -0.070477    23A     -0.036251    24A     -0.023267
      25A     -0.001004

  @DF-RHF Final Energy:  -640.92195207801217

   => Energetics <=

    Nuclear Repulsion Energy =            252.6022501711727841
    One-Electron Energy =               -1411.8120621391833538
    Two-Electron Energy =                 518.2878598899984581
    Total Energy =                       -640.9219520780121684
  Basis Set: (AUG-CC-PVTZ AUX)
    Blend: AUG-CC-PVTZ-RI
    Molecular point group: c1

    Geometry (in Angstrom), charge = -2, multiplicity = 1:

       Center              X                  Y                   Z               Mass
    ------------   -----------------  -----------------  -----------------  -----------------
         P            0.110340163113    -0.000000908751     0.066194689352    30.973761998420
         O           -1.283495836887     0.000014091249    -0.949878310648    15.994914619570
         O           -0.525906736887    -0.000019708751     1.449744989352    15.994914619570
         O            0.861111163113     1.291696091249    -0.304478310648    15.994914619570
         O            0.861109163113    -1.291688908751    -0.304512310648    15.994914619570
         H           -2.007468836887     0.000003091249    -0.302503310648     1.007825032230

  Basis Set: AUG-CC-PVTZ
    Blend: AUG-CC-PVTZ
  Basis Set: (AUG-CC-PVTZ AUX)
    Blend: AUG-CC-PVTZ-JKFIT
	 Reference Energy          =    -640.9219520780121684 [Eh]
	 Singles Energy            =      -0.0000000000000000 [Eh]
	 Same-Spin Energy          =      -0.3400085905050362 [Eh]
	 Opposite-Spin Energy      =      -0.9352453467197148 [Eh]
	 Correlation Energy        =      -1.2752539372247511 [Eh]
	 Total Energy              =    -642.1972060152369295 [Eh]

	 ================> DF-SCS-MP2 Energies <==================
	-----------------------------------------------------------
	 SCS Same-Spin Scale       =       0.3333333333333333 [-]
	 SCS Opposite-Spin Scale   =       1.2000000000000000 [-]
	 SCS Same-Spin Energy      =      -0.1133361968350121 [Eh]
	 SCS Opposite-Spin Energy  =      -1.1222944160636577 [Eh]
	 SCS Correlation Energy    =      -1.2356306128986698 [Eh]
	 SCS Total Energy          =    -642.1575826909108855 [Eh]
	-----------------------------------------------------------

  Dipole Moment: [D]
     X:    -2.8912      Y:     0.0000      Z:    -0.4947     Total:     2.9332

*** Psi4 exiting successfully. Buy a developer a beer!
