                               Psi4 1.3.2 release

  ==> Input File <==

--------------------------------------------------------------------------
#psi4
#
memory 32 gb

molecule  {
-2 1
  P        0.1641090    -0.0635590     0.0002810
  O       -1.2903275     0.7787898    -0.0030187
  O        0.0623980    -0.8993590    -1.2961490
  O        0.0584720    -0.8952640     1.2990450
  O        1.1967260     1.0757810    -0.0000020
  H       -1.9875120     0.0728630    -0.0016460
units angstrom
no_reorient  #important for SAPT in psi4, default
symmetry c1  #important for SAPT in psi4, default
}

set PROPERTIES_ORIGIN ["COM"]
properties('MP2/aug-cc-pvtz', properties = ['dipole'])
--------------------------------------------------------------------------

    Molecular point group: c1
  Charge       = -2
  Multiplicity = 1
  Basis Set: AUG-CC-PVTZ
    Blend: AUG-CC-PVTZ
  Basis Set: (AUG-CC-PVTZ AUX)
    Blend: AUG-CC-PVTZ-JKFIT

    Orbital Energies [Eh]
    ---------------------

    Doubly Occupied:

       1A    -79.646715     2A    -20.195451     3A    -20.094241
       4A    -20.092089     5A    -20.092070     6A     -7.162000
       7A     -5.061565     8A     -5.059205     9A     -5.059082
      10A     -0.990807    11A     -0.892065    12A     -0.835876
      13A     -0.832216    14A     -0.357693    15A     -0.268337
      16A     -0.211682    17A     -0.197173    18A     -0.155241
      19A     -0.132435    20A     -0.072273    21A     -0.068743
      22A     -0.068032    23A     -0.032076    24A     -0.023061
      25A     -0.001473

  @DF-RHF Final Energy:  -640.91830596131990

   => Energetics <=

    Nuclear Repulsion Energy =            253.0605613645400354
    One-Electron Energy =               -1412.7545341606605689
    Two-Electron Energy =                 518.7756668348006315
    Total Energy =                       -640.9183059613199021
  Basis Set: (AUG-CC-PVTZ AUX)
    Blend: AUG-CC-PVTZ-RI
    Molecular point group: c1

    Geometry (in Angstrom), charge = -2, multiplicity = 1:

       Center              X                  Y                   Z               Mass
    ------------   -----------------  -----------------  -----------------  -----------------
         P            0.127467477967    -0.053801225016     0.000228372700    30.973761998420
         O           -1.326969022033     0.788547574984    -0.003071327300    15.994914619570
         O            0.025756477967    -0.889601225016    -1.296201627300    15.994914619570
         O            0.021830477967    -0.885506225016     1.298992372700    15.994914619570
         O            1.160084477967     1.085538774984    -0.000054627300    15.994914619570
         H           -2.024153522033     0.082620774984    -0.001698627300     1.007825032230

  Basis Set: AUG-CC-PVTZ
    Blend: AUG-CC-PVTZ
  Basis Set: (AUG-CC-PVTZ AUX)
    Blend: AUG-CC-PVTZ-JKFIT
	 Reference Energy          =    -640.9183059613199021 [Eh]
	 Singles Energy            =      -0.0000000000000000 [Eh]
	 Same-Spin Energy          =      -0.3402752614512523 [Eh]
	 Opposite-Spin Energy      =      -0.9360392810062932 [Eh]
	 Correlation Energy        =      -1.2763145424575455 [Eh]
	 Total Energy              =    -642.1946205037774007 [Eh]

	 ================> DF-SCS-MP2 Energies <==================
	-----------------------------------------------------------
	 SCS Same-Spin Scale       =       0.3333333333333333 [-]
	 SCS Opposite-Spin Scale   =       1.2000000000000000 [-]
	 SCS Same-Spin Energy      =      -0.1134250871504174 [Eh]
	 SCS Opposite-Spin Energy  =      -1.1232471372075519 [Eh]
	 SCS Correlation Energy    =      -1.2366722243579693 [Eh]
	 SCS Total Energy          =    -642.1549781856779191 [Eh]
	-----------------------------------------------------------

  Dipole Moment: [D]
     X:    -2.9078      Y:     0.5045      Z:    -0.0034     Total:     2.9513

*** Psi4 exiting successfully. Buy a developer a beer!
