                               Psi4 1.3.2 release

  ==> Input File <==

--------------------------------------------------------------------------
#psi4
#
memory 32 gb

molecule  {
-2 1
  P        0.2226110     0.0461075     0.0000316
  O       -1.3768620     0.8289070    -0.0032150
  O        0.0623980    -0.8993590    -1.2961490
  O        0.0584720    -0.8952640     1.2990450
  O        1.1967260     1.0757810    -0.0000020
  H       -1.9875120     0.0728630    -0.0016460
units angstrom
no_reorient  #important for SAPT in psi4, default
symmetry c1  #important for SAPT in psi4, default
}

set PROPERTIES_ORIGIN ["COM"]
properties('MP2/aug-cc-pvtz', properties = ['dipole'])
--------------------------------------------------------------------------

    Molecular point group: c1
  Charge       = -2
  Multiplicity = 1
  Basis Set: AUG-CC-PVTZ
    Blend: AUG-CC-PVTZ
  Basis Set: (AUG-CC-PVTZ AUX)
    Blend: AUG-CC-PVTZ-JKFIT

    Orbital Energies [Eh]
    ---------------------

    Doubly Occupied:

       1A    -79.656046     2A    -20.187499     3A    -20.125097
       4A    -20.089643     5A    -20.089592     6A     -7.172477
       7A     -5.071666     8A     -5.070276     9A     -5.068652
      10A     -0.981839    11A     -0.931494    12A     -0.838112
      13A     -0.803643    14A     -0.344336    15A     -0.267669
      16A     -0.218196    17A     -0.192841    18A     -0.170150
      19A     -0.135879    20A     -0.101987    21A     -0.070623
      22A     -0.058608    23A     -0.036857    24A     -0.012893
      25A      0.003614

  @DF-RHF Final Energy:  -640.89414652846006

   => Energetics <=

    Nuclear Repulsion Energy =            249.7858412009381937
    One-Electron Energy =               -1405.9750533904195890
    Two-Electron Energy =                 515.2950656610213400
    Total Energy =                       -640.8941465284600554
  Basis Set: (AUG-CC-PVTZ AUX)
    Blend: AUG-CC-PVTZ-RI
    Molecular point group: c1

    Geometry (in Angstrom), charge = -2, multiplicity = 1:

       Center              X                  Y                   Z               Mass
    ------------   -----------------  -----------------  -----------------  -----------------
         P            0.181510228996     0.012114233792     0.000092191926    30.973761998420
         O           -1.417962771004     0.794913733792    -0.003154408074    15.994914619570
         O            0.021297228996    -0.933352266208    -1.296088408074    15.994914619570
         O            0.017371228996    -0.929257266208     1.299105591926    15.994914619570
         O            1.155625228996     1.041787733792     0.000058591926    15.994914619570
         H           -2.028612771004     0.038869733792    -0.001585408074     1.007825032230

  Basis Set: AUG-CC-PVTZ
    Blend: AUG-CC-PVTZ
  Basis Set: (AUG-CC-PVTZ AUX)
    Blend: AUG-CC-PVTZ-JKFIT
	 Reference Energy          =    -640.8941465284600554 [Eh]
	 Singles Energy            =      -0.0000000000000000 [Eh]
	 Same-Spin Energy          =      -0.3409697457268545 [Eh]
	 Opposite-Spin Energy      =      -0.9386719226607751 [Eh]
	 Correlation Energy        =      -1.2796416683876297 [Eh]
	 Total Energy              =    -642.1737881968476813 [Eh]

	 ================> DF-SCS-MP2 Energies <==================
	-----------------------------------------------------------
	 SCS Same-Spin Scale       =       0.3333333333333333 [-]
	 SCS Opposite-Spin Scale   =       1.2000000000000000 [-]
	 SCS Same-Spin Energy      =      -0.1136565819089515 [Eh]
	 SCS Opposite-Spin Energy  =      -1.1264063071929302 [Eh]
	 SCS Correlation Energy    =      -1.2400628891018817 [Eh]
	 SCS Total Energy          =    -642.1342094175619195 [Eh]
	-----------------------------------------------------------

  Dipole Moment: [D]
     X:    -1.5037      Y:     1.7260      Z:    -0.0059     Total:     2.2891

*** Psi4 exiting successfully. Buy a developer a beer!
