                               Psi4 1.4a3.dev225

  ==> Input File <==

--------------------------------------------------------------------------
#psi4
#
memory 32 gb

molecule  {
-2 1
  P        0.1336040    -0.0000010     0.0669700
  O       -1.2602320     0.0000140    -0.9491030
  O       -0.5193551    -0.0000202     1.4868617
  O        0.8843750     1.2916960    -0.3037030
  O        0.8843730    -1.2916890    -0.3037370
  H       -1.9842050     0.0000030    -0.3017280
units angstrom
no_reorient  #important for SAPT in psi4, default
symmetry c1  #important for SAPT in psi4, default
}

set PROPERTIES_ORIGIN ["COM"]
properties('MP2/aug-cc-pvtz', properties = ['dipole'])
--------------------------------------------------------------------------

    Molecular point group: c1
  Charge       = -2
  Multiplicity = 1
  Basis Set: AUG-CC-PVTZ
    Blend: AUG-CC-PVTZ
  Basis Set: (AUG-CC-PVTZ AUX)
    Blend: AUG-CC-PVTZ-JKFIT

    Orbital Energies [Eh]
    ---------------------

    Doubly Occupied:

       1A    -79.654103     2A    -20.196643     3A    -20.100596
       4A    -20.093880     5A    -20.093862     6A     -7.168495
       7A     -5.067908     8A     -5.065677     9A     -5.065584
      10A     -0.987535    11A     -0.896761    12A     -0.835660
      13A     -0.834232    14A     -0.353702    15A     -0.272876
      16A     -0.212297    17A     -0.193949    18A     -0.160549
      19A     -0.132242    20A     -0.073314    21A     -0.071092
      22A     -0.070096    23A     -0.034692    24A     -0.026122
      25A     -0.003111

  @DF-RHF Final Energy:  -640.91980470197245

   => Energetics <=

    Nuclear Repulsion Energy =            251.0255382521033880
    One-Electron Energy =               -1408.5607326149013261
    Two-Electron Energy =                 516.6153896608254854
    Total Energy =                       -640.9198047019724527
  Basis Set: (AUG-CC-PVTZ AUX)
    Blend: AUG-CC-PVTZ-RI
    Molecular point group: c1

    Geometry (in Angstrom), charge = -2, multiplicity = 1:

       Center              X                  Y                   Z               Mass
    ------------   -----------------  -----------------  -----------------  -----------------
         P            0.113125769017    -0.000000842078     0.060137269118    30.973761998420
         O           -1.280710230983     0.000014157922    -0.955935730882    15.994914619570
         O           -0.539833330983    -0.000020042078     1.480028969118    15.994914619570
         O            0.863896769017     1.291696157922    -0.310535730882    15.994914619570
         O            0.863894769017    -1.291688842078    -0.310569730882    15.994914619570
         H           -2.004683230983     0.000003157922    -0.308560730882     1.007825032230

  Basis Set: AUG-CC-PVTZ
    Blend: AUG-CC-PVTZ
  Basis Set: (AUG-CC-PVTZ AUX)
    Blend: AUG-CC-PVTZ-JKFIT
	 Reference Energy          =    -640.9198047019724527 [Eh]
	 Singles Energy            =      -0.0000000000000000 [Eh]
	 Same-Spin Energy          =      -0.3407108785213046 [Eh]
	 Opposite-Spin Energy      =      -0.9370919171345610 [Eh]
	 Correlation Energy        =      -1.2778027956558655 [Eh]
	 Total Energy              =    -642.1976074976282689 [Eh]

	 ================> DF-SCS-MP2 Energies <==================
	-----------------------------------------------------------
	 SCS Same-Spin Scale       =       0.3333333333333333 [-]
	 SCS Opposite-Spin Scale   =       1.2000000000000000 [-]
	 SCS Same-Spin Energy      =      -0.1135702928404349 [Eh]
	 SCS Opposite-Spin Energy  =      -1.1245103005614732 [Eh]
	 SCS Correlation Energy    =      -1.2380805934019081 [Eh]
	 SCS Total Energy          =    -642.1578852953743990 [Eh]
	-----------------------------------------------------------

  Dipole Moment: [D]
     X:    -2.7691      Y:     0.0000      Z:    -0.7592     Total:     2.8713

*** Psi4 exiting successfully. Buy a developer a beer!
