                               Psi4 1.3.2 release

  ==> Input File <==

--------------------------------------------------------------------------
#psi4
#
memory 32 gb

molecule  {
-2 1
  P        0.1641090    -0.0635590     0.0002810
  O       -1.4159629     0.7413029    -0.1630270
  O        0.0623980    -0.8993590    -1.2961490
  O        0.0584720    -0.8952640     1.2990450
  O        1.1967260     1.0757810    -0.0000020
  H       -1.9875120     0.0728630    -0.0016460
units angstrom
no_reorient  #important for SAPT in psi4, default
symmetry c1  #important for SAPT in psi4, default
}

set PROPERTIES_ORIGIN ["COM"]
properties('MP2/aug-cc-pvtz', properties = ['dipole'])
--------------------------------------------------------------------------

    Molecular point group: c1
  Charge       = -2
  Multiplicity = 1
  Basis Set: AUG-CC-PVTZ
    Blend: AUG-CC-PVTZ
  Basis Set: (AUG-CC-PVTZ AUX)
    Blend: AUG-CC-PVTZ-JKFIT

    Orbital Energies [Eh]
    ---------------------

    Doubly Occupied:

       1A    -79.658194     2A    -20.177803     3A    -20.105947
       4A    -20.105682     5A    -20.091058     6A     -7.172336
       7A     -5.071769     8A     -5.069507     9A     -5.069284
      10A     -0.987413    11A     -0.905048    12A     -0.845054
      13A     -0.835324    14A     -0.353334    15A     -0.273425
      16A     -0.209230    17A     -0.187112    18A     -0.164764
      19A     -0.134259    20A     -0.078308    21A     -0.074427
      22A     -0.069654    23A     -0.042913    24A     -0.025374
      25A     -0.007830

  @DF-RHF Final Energy:  -640.91283058652050

   => Energetics <=

    Nuclear Repulsion Energy =            250.2239252816102351
    One-Electron Energy =               -1406.8434145224841814
    Two-Electron Energy =                 515.7066586543534186
    Total Energy =                       -640.9128305865204993
  Basis Set: (AUG-CC-PVTZ AUX)
    Blend: AUG-CC-PVTZ-RI
    Molecular point group: c1

    Geometry (in Angstrom), charge = -2, multiplicity = 1:

       Center              X                  Y                   Z               Mass
    ------------   -----------------  -----------------  -----------------  -----------------
         P            0.148408509792    -0.047552871718     0.026898713246    30.973761998420
         O           -1.431663390208     0.757309028282    -0.136409286754    15.994914619570
         O            0.046697509792    -0.883352871718    -1.269531286754    15.994914619570
         O            0.042771509792    -0.879257871718     1.325662713246    15.994914619570
         O            1.181025509792     1.091787128282     0.026615713246    15.994914619570
         H           -2.003212490208     0.088869128282     0.024971713246     1.007825032230

  Basis Set: AUG-CC-PVTZ
    Blend: AUG-CC-PVTZ
  Basis Set: (AUG-CC-PVTZ AUX)
    Blend: AUG-CC-PVTZ-JKFIT
	 Reference Energy          =    -640.9128305865204993 [Eh]
	 Singles Energy            =      -0.0000000000000000 [Eh]
	 Same-Spin Energy          =      -0.3400129915315067 [Eh]
	 Opposite-Spin Energy      =      -0.9359787197591607 [Eh]
	 Correlation Energy        =      -1.2759917112906674 [Eh]
	 Total Energy              =    -642.1888222978111571 [Eh]

	 ================> DF-SCS-MP2 Energies <==================
	-----------------------------------------------------------
	 SCS Same-Spin Scale       =       0.3333333333333333 [-]
	 SCS Opposite-Spin Scale   =       1.2000000000000000 [-]
	 SCS Same-Spin Energy      =      -0.1133376638438356 [Eh]
	 SCS Opposite-Spin Energy  =      -1.1231744637109928 [Eh]
	 SCS Correlation Energy    =      -1.2365121275548283 [Eh]
	 SCS Total Energy          =    -642.1493427140753738 [Eh]
	-----------------------------------------------------------

  Dipole Moment: [D]
     X:    -2.3007      Y:     0.2656      Z:     0.2844     Total:     2.3334

*** Psi4 exiting successfully. Buy a developer a beer!
