                               Psi4 1.3.2 release

  ==> Input File <==

--------------------------------------------------------------------------
#psi4
#
memory 32 gb

molecule  {
-2 1
  P        0.1641090    -0.0635590     0.0002810
  O       -1.3768620     0.8289070    -0.0032150
  O        0.0513879    -0.9870541    -1.2342587
  O        0.0584720    -0.8952640     1.2990450
  O        1.1967260     1.0757810    -0.0000020
  H       -1.9875120     0.0728630    -0.0016460
units angstrom
no_reorient  #important for SAPT in psi4, default
symmetry c1  #important for SAPT in psi4, default
}

set PROPERTIES_ORIGIN ["COM"]
properties('MP2/aug-cc-pvtz', properties = ['dipole'])
--------------------------------------------------------------------------

    Molecular point group: c1
  Charge       = -2
  Multiplicity = 1
  Basis Set: AUG-CC-PVTZ
    Blend: AUG-CC-PVTZ
  Basis Set: (AUG-CC-PVTZ AUX)
    Blend: AUG-CC-PVTZ-JKFIT

    Orbital Energies [Eh]
    ---------------------

    Doubly Occupied:

       1A    -79.657783     2A    -20.192101     3A    -20.105920
       4A    -20.100989     5A    -20.093961     6A     -7.172007
       7A     -5.071402     8A     -5.069160     9A     -5.068981
      10A     -0.974275    11A     -0.899899    12A     -0.846001
      13A     -0.833369    14A     -0.338046    15A     -0.269490
      16A     -0.209718    17A     -0.187841    18A     -0.165863
      19A     -0.131689    20A     -0.079359    21A     -0.073144
      22A     -0.070077    23A     -0.042550    24A     -0.027381
      25A     -0.006380

  @DF-RHF Final Energy:  -640.91610701273316

   => Energetics <=

    Nuclear Repulsion Energy =            249.7592719932723355
    One-Electron Energy =               -1405.9759898263748710
    Two-Electron Energy =                 515.3006108203694566
    Total Energy =                       -640.9161070127331641
  Basis Set: (AUG-CC-PVTZ AUX)
    Blend: AUG-CC-PVTZ-RI
    Molecular point group: c1

    Geometry (in Angstrom), charge = -2, multiplicity = 1:

       Center              X                  Y                   Z               Mass
    ------------   -----------------  -----------------  -----------------  -----------------
         P            0.143726307668    -0.047537703748    -0.010054843793    30.973761998420
         O           -1.397244692332     0.844928296252    -0.013550843793    15.994914619570
         O            0.031005207668    -0.971032803748    -1.244594543793    15.994914619570
         O            0.038089307668    -0.879242703748     1.288709156207    15.994914619570
         O            1.176343307668     1.091802296252    -0.010337843793    15.994914619570
         H           -2.007894692332     0.088884296252    -0.011981843793     1.007825032230

  Basis Set: AUG-CC-PVTZ
    Blend: AUG-CC-PVTZ
  Basis Set: (AUG-CC-PVTZ AUX)
    Blend: AUG-CC-PVTZ-JKFIT
	 Reference Energy          =    -640.9161070127331641 [Eh]
	 Singles Energy            =      -0.0000000000000000 [Eh]
	 Same-Spin Energy          =      -0.3409684813996263 [Eh]
	 Opposite-Spin Energy      =      -0.9383502931875635 [Eh]
	 Correlation Energy        =      -1.2793187745871897 [Eh]
	 Total Energy              =    -642.1954257873203460 [Eh]

	 ================> DF-SCS-MP2 Energies <==================
	-----------------------------------------------------------
	 SCS Same-Spin Scale       =       0.3333333333333333 [-]
	 SCS Opposite-Spin Scale   =       1.2000000000000000 [-]
	 SCS Same-Spin Energy      =      -0.1136561604665421 [Eh]
	 SCS Opposite-Spin Energy  =      -1.1260203518250762 [Eh]
	 SCS Correlation Energy    =      -1.2396765122916182 [Eh]
	 SCS Total Energy          =    -642.1557835250247308 [Eh]
	-----------------------------------------------------------

  Dipole Moment: [D]
     X:    -2.3038      Y:     0.3917      Z:    -0.1567     Total:     2.3421

*** Psi4 exiting successfully. Buy a developer a beer!
