                               Psi4 1.3.2 release

  ==> Input File <==

--------------------------------------------------------------------------
#psi4
#
memory 32 gb

molecule  {
-2 1
  P        0.1641090    -0.0635590     0.0002810
  O       -1.3917966     0.8007468    -0.0565766
  O        0.0623980    -0.8993590    -1.2961490
  O        0.0584720    -0.8952640     1.2990450
  O        1.1967260     1.0757810    -0.0000020
  H       -1.9875120     0.0728630    -0.0016460
units angstrom
no_reorient  #important for SAPT in psi4, default
symmetry c1  #important for SAPT in psi4, default
}

set PROPERTIES_ORIGIN ["COM"]
properties('MP2/aug-cc-pvtz', properties = ['dipole'])
--------------------------------------------------------------------------

    Molecular point group: c1
  Charge       = -2
  Multiplicity = 1
  Basis Set: AUG-CC-PVTZ
    Blend: AUG-CC-PVTZ
  Basis Set: (AUG-CC-PVTZ AUX)
    Blend: AUG-CC-PVTZ-JKFIT

    Orbital Energies [Eh]
    ---------------------

    Doubly Occupied:

       1A    -79.657884     2A    -20.185700     3A    -20.102775
       4A    -20.102578     5A    -20.097716     6A     -7.172070
       7A     -5.071489     8A     -5.069192     9A     -5.069082
      10A     -0.978099    11A     -0.901358    12A     -0.842842
      13A     -0.838311    14A     -0.342641    15A     -0.271109
      16A     -0.208960    17A     -0.188640    18A     -0.164122
      19A     -0.133170    20A     -0.077604    21A     -0.074152
      22A     -0.070517    23A     -0.040572    24A     -0.029962
      25A     -0.008451

  @DF-RHF Final Energy:  -640.91814665455183

   => Energetics <=

    Nuclear Repulsion Energy =            249.9153507543294666
    One-Electron Energy =               -1406.2690033102526286
    Two-Electron Energy =                 515.4355059013713571
    Total Energy =                       -640.9181466545518333
  Basis Set: (AUG-CC-PVTZ AUX)
    Blend: AUG-CC-PVTZ-RI
    Molecular point group: c1

    Geometry (in Angstrom), charge = -2, multiplicity = 1:

       Center              X                  Y                   Z               Mass
    ------------   -----------------  -----------------  -----------------  -----------------
         P            0.144380447181    -0.057461039334     0.009155456057    30.973761998420
         O           -1.411525152819     0.806844760666    -0.047702143943    15.994914619570
         O            0.042669447181    -0.893261039334    -1.287274543943    15.994914619570
         O            0.038743447181    -0.889166039334     1.307919456057    15.994914619570
         O            1.176997447181     1.081878960666     0.008872456057    15.994914619570
         H           -2.007240552819     0.078960960666     0.007228456057     1.007825032230

  Basis Set: AUG-CC-PVTZ
    Blend: AUG-CC-PVTZ
  Basis Set: (AUG-CC-PVTZ AUX)
    Blend: AUG-CC-PVTZ-JKFIT
	 Reference Energy          =    -640.9181466545518333 [Eh]
	 Singles Energy            =      -0.0000000000000000 [Eh]
	 Same-Spin Energy          =      -0.3405344101640755 [Eh]
	 Opposite-Spin Energy      =      -0.9373020152604290 [Eh]
	 Correlation Energy        =      -1.2778364254245045 [Eh]
	 Total Energy              =    -642.1959830799763722 [Eh]

	 ================> DF-SCS-MP2 Energies <==================
	-----------------------------------------------------------
	 SCS Same-Spin Scale       =       0.3333333333333333 [-]
	 SCS Opposite-Spin Scale   =       1.2000000000000000 [-]
	 SCS Same-Spin Energy      =      -0.1135114700546918 [Eh]
	 SCS Opposite-Spin Energy  =      -1.1247624183125147 [Eh]
	 SCS Correlation Energy    =      -1.2382738883672064 [Eh]
	 SCS Total Energy          =    -642.1564205429190224 [Eh]
	-----------------------------------------------------------

  Dipole Moment: [D]
     X:    -2.3261      Y:     0.2083      Z:     0.0894     Total:     2.3371

*** Psi4 exiting successfully. Buy a developer a beer!
