                               Psi4 1.4a3.dev225

  ==> Input File <==

--------------------------------------------------------------------------
#psi4
#
memory 32 gb

molecule  {
-2 1
  P        0.1336040    -0.0000010     0.0669700
  O       -1.2602320     0.0000140    -0.9491030
  O       -0.5109990    -0.0000200     1.4686910
  O        0.8843750     1.2916960    -0.3037030
  O        0.8843730    -1.2916890    -0.3037370
  H       -1.9991138     0.0000028    -0.2883966
units angstrom
no_reorient  #important for SAPT in psi4, default
symmetry c1  #important for SAPT in psi4, default
}

set PROPERTIES_ORIGIN ["COM"]
properties('MP2/aug-cc-pvtz', properties = ['dipole'])
--------------------------------------------------------------------------

    Molecular point group: c1
  Charge       = -2
  Multiplicity = 1
  Basis Set: AUG-CC-PVTZ
    Blend: AUG-CC-PVTZ
  Basis Set: (AUG-CC-PVTZ AUX)
    Blend: AUG-CC-PVTZ-JKFIT

    Orbital Energies [Eh]
    ---------------------

    Doubly Occupied:

       1A    -79.650345     2A    -20.197033     3A    -20.099247
       4A    -20.091969     5A    -20.091950     6A     -7.165322
       7A     -5.064696     8A     -5.062599     9A     -5.062358
      10A     -0.983404    11A     -0.896557    12A     -0.839104
      13A     -0.832542    14A     -0.348796    15A     -0.269411
      16A     -0.212235    17A     -0.193230    18A     -0.161280
      19A     -0.131490    20A     -0.072135    21A     -0.071642
      22A     -0.071226    23A     -0.035255    24A     -0.024615
      25A     -0.002053

  @DF-RHF Final Energy:  -640.91956227007643

   => Energetics <=

    Nuclear Repulsion Energy =            251.6855089262206775
    One-Electron Energy =               -1409.9491561569204805
    Two-Electron Energy =                 517.3440849606234906
    Total Energy =                       -640.9195622700764261
  Basis Set: (AUG-CC-PVTZ AUX)
    Blend: AUG-CC-PVTZ-RI
    Molecular point group: c1

    Geometry (in Angstrom), charge = -2, multiplicity = 1:

       Center              X                  Y                   Z               Mass
    ------------   -----------------  -----------------  -----------------  -----------------
         P            0.111889544502    -0.000000873314     0.063025967311    30.973761998420
         O           -1.281946455498     0.000014126686    -0.953047032689    15.994914619570
         O           -0.532713455498    -0.000019873314     1.464746967311    15.994914619570
         O            0.862660544502     1.291696126686    -0.307647032689    15.994914619570
         O            0.862658544502    -1.291688873314    -0.307681032689    15.994914619570
         H           -2.020828255498     0.000002926686    -0.292340632689     1.007825032230

  Basis Set: AUG-CC-PVTZ
    Blend: AUG-CC-PVTZ
  Basis Set: (AUG-CC-PVTZ AUX)
    Blend: AUG-CC-PVTZ-JKFIT
	 Reference Energy          =    -640.9195622700764261 [Eh]
	 Singles Energy            =      -0.0000000000000000 [Eh]
	 Same-Spin Energy          =      -0.3405969956830933 [Eh]
	 Opposite-Spin Energy      =      -0.9367730799984746 [Eh]
	 Correlation Energy        =      -1.2773700756815678 [Eh]
	 Total Energy              =    -642.1969323457580003 [Eh]

	 ================> DF-SCS-MP2 Energies <==================
	-----------------------------------------------------------
	 SCS Same-Spin Scale       =       0.3333333333333333 [-]
	 SCS Opposite-Spin Scale   =       1.2000000000000000 [-]
	 SCS Same-Spin Energy      =      -0.1135323318943644 [Eh]
	 SCS Opposite-Spin Energy  =      -1.1241276959981694 [Eh]
	 SCS Correlation Energy    =      -1.2376600278925338 [Eh]
	 SCS Total Energy          =    -642.1572222979689286 [Eh]
	-----------------------------------------------------------

  Dipole Moment: [D]
     X:    -2.8348      Y:     0.0000      Z:    -0.6178     Total:     2.9013

*** Psi4 exiting successfully. Buy a developer a beer!
