                               Psi4 1.3.2 release

  ==> Input File <==

--------------------------------------------------------------------------
#psi4
#
memory 32 gb

molecule  {
-2 1
  P        0.1641090    -0.0635590     0.0002810
  O       -1.4048355     0.7715336    -0.1098689
  O        0.0623980    -0.8993590    -1.2961490
  O        0.0584720    -0.8952640     1.2990450
  O        1.1967260     1.0757810    -0.0000020
  H       -1.9875120     0.0728630    -0.0016460
units angstrom
no_reorient  #important for SAPT in psi4, default
symmetry c1  #important for SAPT in psi4, default
}

set PROPERTIES_ORIGIN ["COM"]
properties('MP2/aug-cc-pvtz', properties = ['dipole'])
--------------------------------------------------------------------------

    Molecular point group: c1
  Charge       = -2
  Multiplicity = 1
  Basis Set: AUG-CC-PVTZ
    Blend: AUG-CC-PVTZ
  Basis Set: (AUG-CC-PVTZ AUX)
    Blend: AUG-CC-PVTZ-JKFIT

    Orbital Energies [Eh]
    ---------------------

    Doubly Occupied:

       1A    -79.658031     2A    -20.181607     3A    -20.104257
       4A    -20.104233     5A    -20.094427     6A     -7.172190
       7A     -5.071614     8A     -5.069338     9A     -5.069175
      10A     -0.982910    11A     -0.903359    12A     -0.843903
      13A     -0.836917    14A     -0.348302    15A     -0.272512
      16A     -0.209083    17A     -0.188008    18A     -0.164431
      19A     -0.133682    20A     -0.077805    21A     -0.074375
      22A     -0.070154    23A     -0.041671    24A     -0.028002
      25A     -0.008204

  @DF-RHF Final Energy:  -640.91651374509320

   => Energetics <=

    Nuclear Repulsion Energy =            250.0683712115580022
    One-Electron Energy =               -1406.5533885480961089
    Two-Electron Energy =                 515.5685035914448235
    Total Energy =                       -640.9165137450931979
  Basis Set: (AUG-CC-PVTZ AUX)
    Blend: AUG-CC-PVTZ-RI
    Molecular point group: c1

    Geometry (in Angstrom), charge = -2, multiplicity = 1:

       Center              X                  Y                   Z               Mass
    ------------   -----------------  -----------------  -----------------  -----------------
         P            0.146553783835    -0.052591754475     0.018038268945    30.973761998420
         O           -1.422390716165     0.782500845525    -0.092111631055    15.994914619570
         O            0.044842783835    -0.888391754475    -1.278391731055    15.994914619570
         O            0.040916783835    -0.884296754475     1.316802268945    15.994914619570
         O            1.179170783835     1.086748245525     0.017755268945    15.994914619570
         H           -2.005067216165     0.083830245525     0.016111268945     1.007825032230

  Basis Set: AUG-CC-PVTZ
    Blend: AUG-CC-PVTZ
  Basis Set: (AUG-CC-PVTZ AUX)
    Blend: AUG-CC-PVTZ-JKFIT
	 Reference Energy          =    -640.9165137450931979 [Eh]
	 Singles Energy            =      -0.0000000000000000 [Eh]
	 Same-Spin Energy          =      -0.3402244314555941 [Eh]
	 Opposite-Spin Energy      =      -0.9365250731342278 [Eh]
	 Correlation Energy        =      -1.2767495045898221 [Eh]
	 Total Energy              =    -642.1932632496830138 [Eh]

	 ================> DF-SCS-MP2 Energies <==================
	-----------------------------------------------------------
	 SCS Same-Spin Scale       =       0.3333333333333333 [-]
	 SCS Opposite-Spin Scale   =       1.2000000000000000 [-]
	 SCS Same-Spin Energy      =      -0.1134081438185314 [Eh]
	 SCS Opposite-Spin Energy  =      -1.1238300877610734 [Eh]
	 SCS Correlation Energy    =      -1.2372382315796049 [Eh]
	 SCS Total Energy          =    -642.1537519766727655 [Eh]
	-----------------------------------------------------------

  Dipole Moment: [D]
     X:    -2.3138      Y:     0.2344      Z:     0.1852     Total:     2.3330

*** Psi4 exiting successfully. Buy a developer a beer!
