                               Psi4 1.3.2 release

  ==> Input File <==

--------------------------------------------------------------------------
#psi4
#
memory 32 gb

molecule  {
-2 1
  P        0.2489561     0.1024050    -0.0000992
  O       -1.3768620     0.8289070    -0.0032150
  O        0.0623980    -0.8993590    -1.2961490
  O        0.0584720    -0.8952640     1.2990450
  O        1.1967260     1.0757810    -0.0000020
  H       -1.9875120     0.0728630    -0.0016460
units angstrom
no_reorient  #important for SAPT in psi4, default
symmetry c1  #important for SAPT in psi4, default
}

set PROPERTIES_ORIGIN ["COM"]
properties('MP2/aug-cc-pvtz', properties = ['dipole'])
--------------------------------------------------------------------------

    Molecular point group: c1
  Charge       = -2
  Multiplicity = 1
  Basis Set: AUG-CC-PVTZ
    Blend: AUG-CC-PVTZ
  Basis Set: (AUG-CC-PVTZ AUX)
    Blend: AUG-CC-PVTZ-JKFIT

    Orbital Energies [Eh]
    ---------------------

    Doubly Occupied:

       1A    -79.653397     2A    -20.187031     3A    -20.136488
       4A    -20.084625     5A    -20.084547     6A     -7.172991
       7A     -5.072506     8A     -5.070618     9A     -5.068421
      10A     -1.006188    11A     -0.943695    12A     -0.823689
      13A     -0.786641    14A     -0.349587    15A     -0.273412
      16A     -0.223936    17A     -0.205542    18A     -0.179240
      19A     -0.141532    20A     -0.112463    21A     -0.062250
      22A     -0.049885    23A     -0.028187    24A     -0.003850
      25A      0.013402

  @DF-RHF Final Energy:  -640.86058988170907

   => Energetics <=

    Nuclear Repulsion Energy =            249.9469062524385379
    One-Electron Energy =               -1406.2003587080000671
    Two-Electron Energy =                 515.3928625738524261
    Total Energy =                       -640.8605898817090747
  Basis Set: (AUG-CC-PVTZ AUX)
    Blend: AUG-CC-PVTZ-RI
    Molecular point group: c1

    Geometry (in Angstrom), charge = -2, multiplicity = 1:

       Center              X                  Y                   Z               Mass
    ------------   -----------------  -----------------  -----------------  -----------------
         P            0.199351824765     0.050240383922     0.000003610720    30.973761998420
         O           -1.426466275235     0.776742383922    -0.003112189280    15.994914619570
         O            0.012793724765    -0.951523616078    -1.296046189280    15.994914619570
         O            0.008867724765    -0.947428616078     1.299147810720    15.994914619570
         O            1.147121724765     1.023616383922     0.000100810720    15.994914619570
         H           -2.037116275235     0.020698383922    -0.001543189280     1.007825032230

  Basis Set: AUG-CC-PVTZ
    Blend: AUG-CC-PVTZ
  Basis Set: (AUG-CC-PVTZ AUX)
    Blend: AUG-CC-PVTZ-JKFIT
	 Reference Energy          =    -640.8605898817090747 [Eh]
	 Singles Energy            =      -0.0000000000000000 [Eh]
	 Same-Spin Energy          =      -0.3411851722242384 [Eh]
	 Opposite-Spin Energy      =      -0.9394579611167798 [Eh]
	 Correlation Energy        =      -1.2806431333410182 [Eh]
	 Total Energy              =    -642.1412330150501475 [Eh]

	 ================> DF-SCS-MP2 Energies <==================
	-----------------------------------------------------------
	 SCS Same-Spin Scale       =       0.3333333333333333 [-]
	 SCS Opposite-Spin Scale   =       1.2000000000000000 [-]
	 SCS Same-Spin Energy      =      -0.1137283907414128 [Eh]
	 SCS Opposite-Spin Energy  =      -1.1273495533401356 [Eh]
	 SCS Correlation Energy    =      -1.2410779440815485 [Eh]
	 SCS Total Energy          =    -642.1016678257906278 [Eh]
	-----------------------------------------------------------

  Dipole Moment: [D]
     X:    -1.1524      Y:     2.4824      Z:    -0.0079     Total:     2.7368

*** Psi4 exiting successfully. Buy a developer a beer!
