                               Psi4 1.3.2 release

  ==> Input File <==

--------------------------------------------------------------------------
#psi4
#
memory 32 gb

molecule  {
-2 1
  P        0.1641090    -0.0635590     0.0002810
  O       -1.3768620     0.8289070    -0.0032150
  O        0.0623980    -0.8993590    -1.2961490
  O        0.0584720    -0.8952640     1.2990450
  O        1.1967260     1.0757810    -0.0000020
  H       -2.1131791    -0.0827251    -0.0013231
units angstrom
no_reorient  #important for SAPT in psi4, default
symmetry c1  #important for SAPT in psi4, default
}

set PROPERTIES_ORIGIN ["COM"]
properties('MP2/aug-cc-pvtz', properties = ['dipole'])
--------------------------------------------------------------------------

    Molecular point group: c1
  Charge       = -2
  Multiplicity = 1
  Basis Set: AUG-CC-PVTZ
    Blend: AUG-CC-PVTZ
  Basis Set: (AUG-CC-PVTZ AUX)
    Blend: AUG-CC-PVTZ-JKFIT

    Orbital Energies [Eh]
    ---------------------

    Doubly Occupied:

       1A    -79.657699     2A    -20.210681     3A    -20.103225
       4A    -20.099816     5A    -20.099797     6A     -7.171904
       7A     -5.071327     8A     -5.069021     9A     -5.068907
      10A     -0.952696    11A     -0.883141    12A     -0.842739
      13A     -0.838318    14A     -0.320603    15A     -0.236943
      16A     -0.208437    17A     -0.188524    18A     -0.159392
      19A     -0.132081    20A     -0.077402    21A     -0.074337
      22A     -0.070546    23A     -0.038221    24A     -0.030506
      25A     -0.008541

  @DF-RHF Final Energy:  -640.88204668021717

   => Energetics <=

    Nuclear Repulsion Energy =            248.7095563707592305
    One-Electron Energy =               -1403.9536006504124543
    Two-Electron Energy =                 514.3619975994361084
    Total Energy =                       -640.8820466802171723
  Basis Set: (AUG-CC-PVTZ AUX)
    Blend: AUG-CC-PVTZ-RI
    Molecular point group: c1

    Geometry (in Angstrom), charge = -2, multiplicity = 1:

       Center              X                  Y                   Z               Mass
    ------------   -----------------  -----------------  -----------------  -----------------
         P            0.143210941698    -0.060520757986     0.000257700946    30.973761998420
         O           -1.397760058302     0.831945242014    -0.003238299054    15.994914619570
         O            0.041499941698    -0.896320757986    -1.296172299054    15.994914619570
         O            0.037573941698    -0.892225757986     1.299021700946    15.994914619570
         O            1.175827941698     1.078819242014    -0.000025299054    15.994914619570
         H           -2.134077158302    -0.079686857986    -0.001346399054     1.007825032230

  Basis Set: AUG-CC-PVTZ
    Blend: AUG-CC-PVTZ
  Basis Set: (AUG-CC-PVTZ AUX)
    Blend: AUG-CC-PVTZ-JKFIT
	 Reference Energy          =    -640.8820466802171723 [Eh]
	 Singles Energy            =      -0.0000000000000000 [Eh]
	 Same-Spin Energy          =      -0.3428569517461384 [Eh]
	 Opposite-Spin Energy      =      -0.9448471165931469 [Eh]
	 Correlation Energy        =      -1.2877040683392853 [Eh]
	 Total Energy              =    -642.1697507485564529 [Eh]

	 ================> DF-SCS-MP2 Energies <==================
	-----------------------------------------------------------
	 SCS Same-Spin Scale       =       0.3333333333333333 [-]
	 SCS Opposite-Spin Scale   =       1.2000000000000000 [-]
	 SCS Same-Spin Energy      =      -0.1142856505820461 [Eh]
	 SCS Opposite-Spin Energy  =      -1.1338165399117763 [Eh]
	 SCS Correlation Energy    =      -1.2481021904938225 [Eh]
	 SCS Total Energy          =    -642.1301488707109684 [Eh]
	-----------------------------------------------------------

  Dipole Moment: [D]
     X:    -2.3078      Y:     0.1530      Z:    -0.0020     Total:     2.3129

*** Psi4 exiting successfully. Buy a developer a beer!
