                               Psi4 1.3.2 release

  ==> Input File <==

--------------------------------------------------------------------------
#psi4
#
memory 32 gb

molecule  {
-2 1
  P        0.1641090    -0.0635590     0.0002810
  O       -1.3845651     0.8149607    -0.0299004
  O        0.0623980    -0.8993590    -1.2961490
  O        0.0584720    -0.8952640     1.2990450
  O        1.1967260     1.0757810    -0.0000020
  H       -1.9875120     0.0728630    -0.0016460
units angstrom
no_reorient  #important for SAPT in psi4, default
symmetry c1  #important for SAPT in psi4, default
}

set PROPERTIES_ORIGIN ["COM"]
properties('MP2/aug-cc-pvtz', properties = ['dipole'])
--------------------------------------------------------------------------

    Molecular point group: c1
  Charge       = -2
  Multiplicity = 1
  Basis Set: AUG-CC-PVTZ
    Blend: AUG-CC-PVTZ
  Basis Set: (AUG-CC-PVTZ AUX)
    Blend: AUG-CC-PVTZ-JKFIT

    Orbital Energies [Eh]
    ---------------------

    Doubly Occupied:

       1A    -79.657824     2A    -20.187821     3A    -20.102046
       4A    -20.101749     5A    -20.099328     6A     -7.172025
       7A     -5.071444     8A     -5.069136     9A     -5.069047
      10A     -0.975676    11A     -0.900247    12A     -0.842399
      13A     -0.838879    14A     -0.339705    15A     -0.270152
      16A     -0.208919    17A     -0.188863    18A     -0.163965
      19A     -0.132950    20A     -0.077608    21A     -0.074031
      22A     -0.070622    23A     -0.040117    24A     -0.030646
      25A     -0.008532

  @DF-RHF Final Energy:  -640.91805959801695

   => Energetics <=

    Nuclear Repulsion Energy =            249.8409933818321917
    One-Electron Energy =               -1406.1306459237796389
    Two-Electron Energy =                 515.3715929439304091
    Total Energy =                       -640.9180595980169528
  Basis Set: (AUG-CC-PVTZ AUX)
    Blend: AUG-CC-PVTZ-RI
    Molecular point group: c1

    Geometry (in Angstrom), charge = -2, multiplicity = 1:

       Center              X                  Y                   Z               Mass
    ------------   -----------------  -----------------  -----------------  -----------------
         P            0.143175093661    -0.059830226141     0.004709040849    30.973761998420
         O           -1.405499006339     0.818689473859    -0.025472359151    15.994914619570
         O            0.041464093661    -0.895630226141    -1.291720959151    15.994914619570
         O            0.037538093661    -0.891535226141     1.303473040849    15.994914619570
         O            1.175792093661     1.079509773859     0.004426040849    15.994914619570
         H           -2.008445906339     0.076591773859     0.002782040849     1.007825032230

  Basis Set: AUG-CC-PVTZ
    Blend: AUG-CC-PVTZ
  Basis Set: (AUG-CC-PVTZ AUX)
    Blend: AUG-CC-PVTZ-JKFIT
	 Reference Energy          =    -640.9180595980169528 [Eh]
	 Singles Energy            =      -0.0000000000000000 [Eh]
	 Same-Spin Energy          =      -0.3407236704288736 [Eh]
	 Opposite-Spin Energy      =      -0.9377756364518954 [Eh]
	 Correlation Energy        =      -1.2784993068807691 [Eh]
	 Total Energy              =    -642.1965589048977563 [Eh]

	 ================> DF-SCS-MP2 Energies <==================
	-----------------------------------------------------------
	 SCS Same-Spin Scale       =       0.3333333333333333 [-]
	 SCS Opposite-Spin Scale   =       1.2000000000000000 [-]
	 SCS Same-Spin Energy      =      -0.1135745568096245 [Eh]
	 SCS Opposite-Spin Energy  =      -1.1253307637422745 [Eh]
	 SCS Correlation Energy    =      -1.2389053205518989 [Eh]
	 SCS Total Energy          =    -642.1569649185688604 [Eh]
	-----------------------------------------------------------

  Dipole Moment: [D]
     X:    -2.3314      Y:     0.1970      Z:     0.0431     Total:     2.3401

*** Psi4 exiting successfully. Buy a developer a beer!
