                               Psi4 1.3.2 release

  ==> Input File <==

--------------------------------------------------------------------------
#psi4
#
memory 32 gb

molecule  {
-2 1
  P        0.1320235    -0.1167943     0.0003994
  O       -1.3768620     0.8289070    -0.0032150
  O        0.0623980    -0.8993590    -1.2961490
  O        0.0584720    -0.8952640     1.2990450
  O        1.1967260     1.0757810    -0.0000020
  H       -1.9875120     0.0728630    -0.0016460
units angstrom
no_reorient  #important for SAPT in psi4, default
symmetry c1  #important for SAPT in psi4, default
}

set PROPERTIES_ORIGIN ["COM"]
properties('MP2/aug-cc-pvtz', properties = ['dipole'])
--------------------------------------------------------------------------

    Molecular point group: c1
  Charge       = -2
  Multiplicity = 1
  Basis Set: AUG-CC-PVTZ
    Blend: AUG-CC-PVTZ
  Basis Set: (AUG-CC-PVTZ AUX)
    Blend: AUG-CC-PVTZ-JKFIT

    Orbital Energies [Eh]
    ---------------------

    Doubly Occupied:

       1A    -79.657331     2A    -20.191980     3A    -20.107135
       4A    -20.107095     5A    -20.089413     6A     -7.171996
       7A     -5.071353     8A     -5.069285     9A     -5.068810
      10A     -0.976630    11A     -0.904960    12A     -0.857362
      13A     -0.818586    14A     -0.334520    15A     -0.272520
      16A     -0.211207    17A     -0.193330    18A     -0.161399
      19A     -0.137433    20A     -0.082104    21A     -0.075526
      22A     -0.066520    23A     -0.041010    24A     -0.025861
      25A     -0.005262

  @DF-RHF Final Energy:  -640.91196844580190

   => Energetics <=

    Nuclear Repulsion Energy =            249.8609426466134096
    One-Electron Energy =               -1406.1485711560067102
    Two-Electron Energy =                 515.3756600635913401
    Total Energy =                       -640.9119684458019037
  Basis Set: (AUG-CC-PVTZ AUX)
    Blend: AUG-CC-PVTZ-RI
    Molecular point group: c1

    Geometry (in Angstrom), charge = -2, multiplicity = 1:

       Center              X                  Y                   Z               Mass
    ------------   -----------------  -----------------  -----------------  -----------------
         P            0.120161987513    -0.098207156736     0.000341275776    30.973761998420
         O           -1.388723512487     0.847494143264    -0.003273124224    15.994914619570
         O            0.050536487513    -0.880771856736    -1.296207124224    15.994914619570
         O            0.046610487513    -0.876676856736     1.298986875776    15.994914619570
         O            1.184864487513     1.094368143264    -0.000060124224    15.994914619570
         H           -1.999373512487     0.091450143264    -0.001704124224     1.007825032230

  Basis Set: AUG-CC-PVTZ
    Blend: AUG-CC-PVTZ
  Basis Set: (AUG-CC-PVTZ AUX)
    Blend: AUG-CC-PVTZ-JKFIT
	 Reference Energy          =    -640.9119684458019037 [Eh]
	 Singles Energy            =      -0.0000000000000000 [Eh]
	 Same-Spin Energy          =      -0.3411289874140078 [Eh]
	 Opposite-Spin Energy      =      -0.9387624673169450 [Eh]
	 Correlation Energy        =      -1.2798914547309528 [Eh]
	 Total Energy              =    -642.1918599005329042 [Eh]

	 ================> DF-SCS-MP2 Energies <==================
	-----------------------------------------------------------
	 SCS Same-Spin Scale       =       0.3333333333333333 [-]
	 SCS Opposite-Spin Scale   =       1.2000000000000000 [-]
	 SCS Same-Spin Energy      =      -0.1137096624713359 [Eh]
	 SCS Opposite-Spin Energy  =      -1.1265149607803340 [Eh]
	 SCS Correlation Energy    =      -1.2402246232516698 [Eh]
	 SCS Total Energy          =    -642.1521930690536237 [Eh]
	-----------------------------------------------------------

  Dipole Moment: [D]
     X:    -2.8133      Y:    -0.5857      Z:    -0.0005     Total:     2.8736

*** Psi4 exiting successfully. Buy a developer a beer!
