                               Psi4 1.3.2 release

  ==> Input File <==

--------------------------------------------------------------------------
#psi4
#
memory 32 gb

molecule  {
-2 1
  P        0.1641090    -0.0635590     0.0002810
  O       -1.3768620     0.8289070    -0.0032150
  O        0.0680923    -0.8539570    -1.3247433
  O        0.0584720    -0.8952640     1.2990450
  O        1.1967260     1.0757810    -0.0000020
  H       -1.9875120     0.0728630    -0.0016460
units angstrom
no_reorient  #important for SAPT in psi4, default
symmetry c1  #important for SAPT in psi4, default
}

set PROPERTIES_ORIGIN ["COM"]
properties('MP2/aug-cc-pvtz', properties = ['dipole'])
--------------------------------------------------------------------------

    Molecular point group: c1
  Charge       = -2
  Multiplicity = 1
  Basis Set: AUG-CC-PVTZ
    Blend: AUG-CC-PVTZ
  Basis Set: (AUG-CC-PVTZ AUX)
    Blend: AUG-CC-PVTZ-JKFIT

    Orbital Energies [Eh]
    ---------------------

    Doubly Occupied:

       1A    -79.657779     2A    -20.188917     3A    -20.104283
       4A    -20.100735     5A    -20.098963     6A     -7.172004
       7A     -5.071433     8A     -5.069162     9A     -5.068967
      10A     -0.972829    11A     -0.898714    12A     -0.842495
      13A     -0.839482    14A     -0.336155    15A     -0.268735
      16A     -0.208491    17A     -0.189602    18A     -0.162724
      19A     -0.133230    20A     -0.077036    21A     -0.074795
      22A     -0.070312    23A     -0.038637    24A     -0.032336
      25A     -0.008883

  @DF-RHF Final Energy:  -640.91688084968121

   => Energetics <=

    Nuclear Repulsion Energy =            249.7953803236460999
    One-Electron Energy =               -1406.0511231712862354
    Two-Electron Energy =                 515.3388619979590430
    Total Energy =                       -640.9168808496812062
  Basis Set: (AUG-CC-PVTZ AUX)
    Blend: AUG-CC-PVTZ-RI
    Molecular point group: c1

    Geometry (in Angstrom), charge = -2, multiplicity = 1:

       Center              X                  Y                   Z               Mass
    ------------   -----------------  -----------------  -----------------  -----------------
         P            0.140942001875    -0.069722459056     0.005027218176    30.973761998420
         O           -1.400028998125     0.822743540944     0.001531218176    15.994914619570
         O            0.044925301875    -0.860120459056    -1.319997081824    15.994914619570
         O            0.035305001875    -0.901427459056     1.303791218176    15.994914619570
         O            1.173559001875     1.069617540944     0.004744218176    15.994914619570
         H           -2.010678998125     0.066699540944     0.003100218176     1.007825032230

  Basis Set: AUG-CC-PVTZ
    Blend: AUG-CC-PVTZ
  Basis Set: (AUG-CC-PVTZ AUX)
    Blend: AUG-CC-PVTZ-JKFIT
	 Reference Energy          =    -640.9168808496812062 [Eh]
	 Singles Energy            =      -0.0000000000000000 [Eh]
	 Same-Spin Energy          =      -0.3409734459199475 [Eh]
	 Opposite-Spin Energy      =      -0.9383909759175089 [Eh]
	 Correlation Energy        =      -1.2793644218374565 [Eh]
	 Total Energy              =    -642.1962452715187055 [Eh]

	 ================> DF-SCS-MP2 Energies <==================
	-----------------------------------------------------------
	 SCS Same-Spin Scale       =       0.3333333333333333 [-]
	 SCS Opposite-Spin Scale   =       1.2000000000000000 [-]
	 SCS Same-Spin Energy      =      -0.1136578153066492 [Eh]
	 SCS Opposite-Spin Energy  =      -1.1260691711010107 [Eh]
	 SCS Correlation Energy    =      -1.2397269864076599 [Eh]
	 SCS Total Energy          =    -642.1566078360888241 [Eh]
	-----------------------------------------------------------

  Dipole Moment: [D]
     X:    -2.3529      Y:     0.0821      Z:     0.0704     Total:     2.3554

*** Psi4 exiting successfully. Buy a developer a beer!
