                               Psi4 1.3.2 release

  ==> Input File <==

--------------------------------------------------------------------------
#psi4
#
memory 32 gb

molecule  {
-2 1
  P        0.1641090    -0.0635590     0.0002810
  O       -1.3768620     0.8289070    -0.0032150
  O        0.0558184    -0.9534265    -1.3800144
  O        0.0584720    -0.8952640     1.2990450
  O        1.1967260     1.0757810    -0.0000020
  H       -1.9875120     0.0728630    -0.0016460
units angstrom
no_reorient  #important for SAPT in psi4, default
symmetry c1  #important for SAPT in psi4, default
}

set PROPERTIES_ORIGIN ["COM"]
properties('MP2/aug-cc-pvtz', properties = ['dipole'])
--------------------------------------------------------------------------

    Molecular point group: c1
  Charge       = -2
  Multiplicity = 1
  Basis Set: AUG-CC-PVTZ
    Blend: AUG-CC-PVTZ
  Basis Set: (AUG-CC-PVTZ AUX)
    Blend: AUG-CC-PVTZ-JKFIT

    Orbital Energies [Eh]
    ---------------------

    Doubly Occupied:

       1A    -79.674285     2A    -20.197783     3A    -20.110520
       4A    -20.110291     5A    -20.106078     6A     -7.186275
       7A     -5.085775     8A     -5.083490     9A     -5.082926
      10A     -0.976514    11A     -0.898855    12A     -0.849541
      13A     -0.817864    14A     -0.344350    15A     -0.274901
      16A     -0.210228    17A     -0.190780    18A     -0.163263
      19A     -0.133230    20A     -0.079391    21A     -0.073756
      22A     -0.065426    23A     -0.044738    24A     -0.027838
      25A     -0.011409

  @DF-RHF Final Energy:  -640.90374204363775

   => Energetics <=

    Nuclear Repulsion Energy =            246.0506475106043922
    One-Electron Energy =               -1398.3097673309162019
    Two-Electron Energy =                 511.3553777766740041
    Total Energy =                       -640.9037420436377488
  Basis Set: (AUG-CC-PVTZ AUX)
    Blend: AUG-CC-PVTZ-RI
    Molecular point group: c1

    Geometry (in Angstrom), charge = -2, multiplicity = 1:

       Center              X                  Y                   Z               Mass
    ------------   -----------------  -----------------  -----------------  -----------------
         P            0.142987827578    -0.053142785133     0.014239859391    30.973761998420
         O           -1.397983172422     0.839323214867     0.010743859391    15.994914619570
         O            0.034697227578    -0.943010285133    -1.366055540609    15.994914619570
         O            0.037350827578    -0.884847785133     1.313003859391    15.994914619570
         O            1.175604827578     1.086197214867     0.013956859391    15.994914619570
         H           -2.008633172422     0.083279214867     0.012312859391     1.007825032230

  Basis Set: AUG-CC-PVTZ
    Blend: AUG-CC-PVTZ
  Basis Set: (AUG-CC-PVTZ AUX)
    Blend: AUG-CC-PVTZ-JKFIT
	 Reference Energy          =    -640.9037420436377488 [Eh]
	 Singles Energy            =      -0.0000000000000000 [Eh]
	 Same-Spin Energy          =      -0.3426958585945944 [Eh]
	 Opposite-Spin Energy      =      -0.9430505670658114 [Eh]
	 Correlation Energy        =      -1.2857464256604059 [Eh]
	 Total Energy              =    -642.1894884692981122 [Eh]

	 ================> DF-SCS-MP2 Energies <==================
	-----------------------------------------------------------
	 SCS Same-Spin Scale       =       0.3333333333333333 [-]
	 SCS Opposite-Spin Scale   =       1.2000000000000000 [-]
	 SCS Same-Spin Energy      =      -0.1142319528648648 [Eh]
	 SCS Opposite-Spin Energy  =      -1.1316606804789735 [Eh]
	 SCS Correlation Energy    =      -1.2458926333438383 [Eh]
	 SCS Total Energy          =    -642.1496346769815773 [Eh]
	-----------------------------------------------------------

  Dipole Moment: [D]
     X:    -2.3200      Y:     0.5812      Z:     0.6015     Total:     2.4662

*** Psi4 exiting successfully. Buy a developer a beer!
