                               Psi4 1.3.2 release

  ==> Input File <==

--------------------------------------------------------------------------
#psi4
#
memory 32 gb

molecule  {
-2 1
  P        0.1641090    -0.0635590     0.0002810
  O       -1.3768620     0.8289070    -0.0032150
  O        0.0739036    -0.8075919    -1.3517233
  O        0.0584720    -0.8952640     1.2990450
  O        1.1967260     1.0757810    -0.0000020
  H       -1.9875120     0.0728630    -0.0016460
units angstrom
no_reorient  #important for SAPT in psi4, default
symmetry c1  #important for SAPT in psi4, default
}

set PROPERTIES_ORIGIN ["COM"]
properties('MP2/aug-cc-pvtz', properties = ['dipole'])
--------------------------------------------------------------------------

    Molecular point group: c1
  Charge       = -2
  Multiplicity = 1
  Basis Set: AUG-CC-PVTZ
    Blend: AUG-CC-PVTZ
  Basis Set: (AUG-CC-PVTZ AUX)
    Blend: AUG-CC-PVTZ-JKFIT

    Orbital Energies [Eh]
    ---------------------

    Doubly Occupied:

       1A    -79.657782     2A    -20.187863     3A    -20.107550
       4A    -20.100451     5A    -20.096564     6A     -7.172023
       7A     -5.071459     8A     -5.069237     9A     -5.068918
      10A     -0.972392    11A     -0.898404    12A     -0.844989
      13A     -0.837319    14A     -0.335549    15A     -0.268496
      16A     -0.208083    17A     -0.190149    18A     -0.161634
      19A     -0.133657    20A     -0.076701    21A     -0.075595
      22A     -0.069746    23A     -0.038171    24A     -0.032665
      25A     -0.008660

  @DF-RHF Final Energy:  -640.91575278772245

   => Energetics <=

    Nuclear Repulsion Energy =            249.8365568066939773
    One-Electron Energy =               -1406.1365056490130883
    Two-Electron Energy =                 515.3841960545966003
    Total Energy =                       -640.9157527877224538
  Basis Set: (AUG-CC-PVTZ AUX)
    Blend: AUG-CC-PVTZ-RI
    Molecular point group: c1

    Geometry (in Angstrom), charge = -2, multiplicity = 1:

       Center              X                  Y                   Z               Mass
    ------------   -----------------  -----------------  -----------------  -----------------
         P            0.139973368685    -0.077450639447     0.009524271065    30.973761998420
         O           -1.400997631315     0.815015360553     0.006028271065    15.994914619570
         O            0.049767968685    -0.821483539447    -1.342480028935    15.994914619570
         O            0.034336368685    -0.909155639447     1.308288271065    15.994914619570
         O            1.172590368685     1.061889360553     0.009241271065    15.994914619570
         H           -2.011647631315     0.058971360553     0.007597271065     1.007825032230

  Basis Set: AUG-CC-PVTZ
    Blend: AUG-CC-PVTZ
  Basis Set: (AUG-CC-PVTZ AUX)
    Blend: AUG-CC-PVTZ-JKFIT
	 Reference Energy          =    -640.9157527877224538 [Eh]
	 Singles Energy            =      -0.0000000000000000 [Eh]
	 Same-Spin Energy          =      -0.3410497697323538 [Eh]
	 Opposite-Spin Energy      =      -0.9385475635457481 [Eh]
	 Correlation Energy        =      -1.2795973332781019 [Eh]
	 Total Energy              =    -642.1953501210005015 [Eh]

	 ================> DF-SCS-MP2 Energies <==================
	-----------------------------------------------------------
	 SCS Same-Spin Scale       =       0.3333333333333333 [-]
	 SCS Opposite-Spin Scale   =       1.2000000000000000 [-]
	 SCS Same-Spin Energy      =      -0.1136832565774513 [Eh]
	 SCS Opposite-Spin Energy  =      -1.1262570762548976 [Eh]
	 SCS Correlation Energy    =      -1.2399403328323488 [Eh]
	 SCS Total Energy          =    -642.1556931205548153 [Eh]
	-----------------------------------------------------------

  Dipole Moment: [D]
     X:    -2.3701      Y:    -0.0239      Z:     0.1395     Total:     2.3743

*** Psi4 exiting successfully. Buy a developer a beer!
