                               Psi4 1.4a3.dev225

  ==> Input File <==

--------------------------------------------------------------------------
#psi4
#
memory 32 gb

molecule  {
-2 1
  P        0.1336040    -0.0000010     0.0669700
  O       -1.2602320     0.0000140    -0.9491030
  O       -0.5109990    -0.0000200     1.4686910
  O        0.8843750     1.2916960    -0.3037030
  O        0.8843730    -1.2916890    -0.3037370
  H       -1.9692962     0.0000032    -0.3150594
units angstrom
no_reorient  #important for SAPT in psi4, default
symmetry c1  #important for SAPT in psi4, default
}

set PROPERTIES_ORIGIN ["COM"]
properties('MP2/aug-cc-pvtz', properties = ['dipole'])
--------------------------------------------------------------------------

    Molecular point group: c1
  Charge       = -2
  Multiplicity = 1
  Basis Set: AUG-CC-PVTZ
    Blend: AUG-CC-PVTZ
  Basis Set: (AUG-CC-PVTZ AUX)
    Blend: AUG-CC-PVTZ-JKFIT

    Orbital Energies [Eh]
    ---------------------

    Doubly Occupied:

       1A    -79.650543     2A    -20.193026     3A    -20.099601
       4A    -20.091983     5A    -20.091965     6A     -7.165511
       7A     -5.064887     8A     -5.062791     9A     -5.062545
      10A     -0.991181    11A     -0.899234    12A     -0.839252
      13A     -0.832586    14A     -0.355840    15A     -0.273801
      16A     -0.212667    17A     -0.193780    18A     -0.161754
      19A     -0.132075    20A     -0.072365    21A     -0.071818
      22A     -0.071360    23A     -0.035795    24A     -0.024800
      25A     -0.002131

  @DF-RHF Final Energy:  -640.92210293297501

   => Energetics <=

    Nuclear Repulsion Energy =            251.9298528961851389
    One-Electron Energy =               -1410.3973249410773860
    Two-Electron Energy =                 517.5453691119172390
    Total Energy =                       -640.9221029329750081
  Basis Set: (AUG-CC-PVTZ AUX)
    Blend: AUG-CC-PVTZ-RI
    Molecular point group: c1

    Geometry (in Angstrom), charge = -2, multiplicity = 1:

       Center              X                  Y                   Z               Mass
    ------------   -----------------  -----------------  -----------------  -----------------
         P            0.111576387628    -0.000000877515     0.063305991159    30.973761998420
         O           -1.282259612372     0.000014122485    -0.952767008841    15.994914619570
         O           -0.533026612372    -0.000019877515     1.465026991159    15.994914619570
         O            0.862347387628     1.291696122485    -0.307367008841    15.994914619570
         O            0.862345387628    -1.291688877515    -0.307401008841    15.994914619570
         H           -1.991323812372     0.000003322485    -0.318723408841     1.007825032230

  Basis Set: AUG-CC-PVTZ
    Blend: AUG-CC-PVTZ
  Basis Set: (AUG-CC-PVTZ AUX)
    Blend: AUG-CC-PVTZ-JKFIT
	 Reference Energy          =    -640.9221029329750081 [Eh]
	 Singles Energy            =      -0.0000000000000000 [Eh]
	 Same-Spin Energy          =      -0.3401195332007345 [Eh]
	 Opposite-Spin Energy      =      -0.9355693798056042 [Eh]
	 Correlation Energy        =      -1.2756889130063387 [Eh]
	 Total Energy              =    -642.1977918459813282 [Eh]

	 ================> DF-SCS-MP2 Energies <==================
	-----------------------------------------------------------
	 SCS Same-Spin Scale       =       0.3333333333333333 [-]
	 SCS Opposite-Spin Scale   =       1.2000000000000000 [-]
	 SCS Same-Spin Energy      =      -0.1133731777335782 [Eh]
	 SCS Opposite-Spin Energy  =      -1.1226832557667250 [Eh]
	 SCS Correlation Energy    =      -1.2360564335003033 [Eh]
	 SCS Total Energy          =    -642.1581593664752745 [Eh]
	-----------------------------------------------------------

  Dipole Moment: [D]
     X:    -2.8252      Y:     0.0000      Z:    -0.6359     Total:     2.8958

*** Psi4 exiting successfully. Buy a developer a beer!
