                               Psi4 1.3.2 release

  ==> Input File <==

--------------------------------------------------------------------------
#psi4
#
memory 32 gb

molecule  {
-2 1
  P        0.1482985    -0.0903167     0.0003407
  O       -1.3768620     0.8289070    -0.0032150
  O        0.0623980    -0.8993590    -1.2961490
  O        0.0584720    -0.8952640     1.2990450
  O        1.1967260     1.0757810    -0.0000020
  H       -1.9875120     0.0728630    -0.0016460
units angstrom
no_reorient  #important for SAPT in psi4, default
symmetry c1  #important for SAPT in psi4, default
}

set PROPERTIES_ORIGIN ["COM"]
properties('MP2/aug-cc-pvtz', properties = ['dipole'])
--------------------------------------------------------------------------

    Molecular point group: c1
  Charge       = -2
  Multiplicity = 1
  Basis Set: AUG-CC-PVTZ
    Blend: AUG-CC-PVTZ
  Basis Set: (AUG-CC-PVTZ AUX)
    Blend: AUG-CC-PVTZ-JKFIT

    Orbital Energies [Eh]
    ---------------------

    Doubly Occupied:

       1A    -79.657626     2A    -20.190913     3A    -20.103992
       4A    -20.103963     5A    -20.095346     6A     -7.171964
       7A     -5.071370     8A     -5.069129     9A     -5.068915
      10A     -0.974643    11A     -0.900726    12A     -0.848334
      13A     -0.831576    14A     -0.335515    15A     -0.270633
      16A     -0.209507    17A     -0.190843    18A     -0.162341
      19A     -0.134793    20A     -0.078613    21A     -0.074248
      22A     -0.069736    23A     -0.035958    24A     -0.033712
      25A     -0.007894

  @DF-RHF Final Energy:  -640.91584643085901

   => Energetics <=

    Nuclear Repulsion Energy =            249.8093102386404780
    One-Electron Energy =               -1406.0657370471417380
    Two-Electron Energy =                 515.3405803776421408
    Total Energy =                       -640.9158464308590055
  Basis Set: (AUG-CC-PVTZ AUX)
    Blend: AUG-CC-PVTZ-RI
    Molecular point group: c1

    Geometry (in Angstrom), charge = -2, multiplicity = 1:

       Center              X                  Y                   Z               Mass
    ------------   -----------------  -----------------  -----------------  -----------------
         P            0.131183846270    -0.080275828477     0.000301522589    30.973761998420
         O           -1.393976653730     0.838947871523    -0.003254177411    15.994914619570
         O            0.045283346270    -0.889318128477    -1.296188177411    15.994914619570
         O            0.041357346270    -0.885223128477     1.299005822589    15.994914619570
         O            1.179611346270     1.085821871523    -0.000041177411    15.994914619570
         H           -2.004626653730     0.082903871523    -0.001685177411     1.007825032230

  Basis Set: AUG-CC-PVTZ
    Blend: AUG-CC-PVTZ
  Basis Set: (AUG-CC-PVTZ AUX)
    Blend: AUG-CC-PVTZ-JKFIT
	 Reference Energy          =    -640.9158464308590055 [Eh]
	 Singles Energy            =      -0.0000000000000000 [Eh]
	 Same-Spin Energy          =      -0.3410114215751035 [Eh]
	 Opposite-Spin Energy      =      -0.9384760219095222 [Eh]
	 Correlation Energy        =      -1.2794874434846257 [Eh]
	 Total Energy              =    -642.1953338743436461 [Eh]

	 ================> DF-SCS-MP2 Energies <==================
	-----------------------------------------------------------
	 SCS Same-Spin Scale       =       0.3333333333333333 [-]
	 SCS Opposite-Spin Scale   =       1.2000000000000000 [-]
	 SCS Same-Spin Energy      =      -0.1136704738583678 [Eh]
	 SCS Opposite-Spin Energy  =      -1.1261712262914265 [Eh]
	 SCS Correlation Energy    =      -1.2398417001497943 [Eh]
	 SCS Total Energy          =    -642.1556881310087874 [Eh]
	-----------------------------------------------------------

  Dipole Moment: [D]
     X:    -2.5699      Y:    -0.1997      Z:    -0.0013     Total:     2.5776

*** Psi4 exiting successfully. Buy a developer a beer!
