                               Psi4 1.3.2 release

  ==> Input File <==

--------------------------------------------------------------------------
#psi4
#
memory 32 gb

molecule  {
-2 1
  P        0.1641090    -0.0635590     0.0002810
  O       -1.4633965     0.8790242    -0.0034113
  O        0.0623980    -0.8993590    -1.2961490
  O        0.0584720    -0.8952640     1.2990450
  O        1.1967260     1.0757810    -0.0000020
  H       -1.9875120     0.0728630    -0.0016460
units angstrom
no_reorient  #important for SAPT in psi4, default
symmetry c1  #important for SAPT in psi4, default
}

set PROPERTIES_ORIGIN ["COM"]
properties('MP2/aug-cc-pvtz', properties = ['dipole'])
--------------------------------------------------------------------------

    Molecular point group: c1
  Charge       = -2
  Multiplicity = 1
  Basis Set: AUG-CC-PVTZ
    Blend: AUG-CC-PVTZ
  Basis Set: (AUG-CC-PVTZ AUX)
    Blend: AUG-CC-PVTZ-JKFIT

    Orbital Energies [Eh]
    ---------------------

    Doubly Occupied:

       1A    -79.667950     2A    -20.183799     3A    -20.109941
       4A    -20.109920     5A    -20.108707     6A     -7.181681
       7A     -5.081071     8A     -5.078580     9A     -5.078548
      10A     -0.959622    11A     -0.903655    12A     -0.848640
      13A     -0.846667    14A     -0.321772    15A     -0.265967
      16A     -0.205903    17A     -0.186797    18A     -0.171856
      19A     -0.128743    20A     -0.084016    21A     -0.080095
      22A     -0.070583    23A     -0.047173    24A     -0.038882
      25A     -0.015988

  @DF-RHF Final Energy:  -640.90977486500014

   => Energetics <=

    Nuclear Repulsion Energy =            246.7172314038985235
    One-Electron Energy =               -1399.7008987608546704
    Two-Electron Energy =                 512.0738924919560304
    Total Energy =                       -640.9097748650001449
  Basis Set: (AUG-CC-PVTZ AUX)
    Blend: AUG-CC-PVTZ-RI
    Molecular point group: c1

    Geometry (in Angstrom), charge = -2, multiplicity = 1:

       Center              X                  Y                   Z               Mass
    ------------   -----------------  -----------------  -----------------  -----------------
         P            0.156314788812    -0.070508393221     0.000293811653    30.973761998420
         O           -1.471190711188     0.872074806779    -0.003398488347    15.994914619570
         O            0.054603788812    -0.906308393221    -1.296136188347    15.994914619570
         O            0.050677788812    -0.902213393221     1.299057811653    15.994914619570
         O            1.188931788812     1.068831606779     0.000010811653    15.994914619570
         H           -1.995306211188     0.065913606779    -0.001633188347     1.007825032230

  Basis Set: AUG-CC-PVTZ
    Blend: AUG-CC-PVTZ
  Basis Set: (AUG-CC-PVTZ AUX)
    Blend: AUG-CC-PVTZ-JKFIT
	 Reference Energy          =    -640.9097748650001449 [Eh]
	 Singles Energy            =      -0.0000000000000000 [Eh]
	 Same-Spin Energy          =      -0.3418516930083574 [Eh]
	 Opposite-Spin Energy      =      -0.9409916500143973 [Eh]
	 Correlation Energy        =      -1.2828433430227548 [Eh]
	 Total Energy              =    -642.1926182080228500 [Eh]

	 ================> DF-SCS-MP2 Energies <==================
	-----------------------------------------------------------
	 SCS Same-Spin Scale       =       0.3333333333333333 [-]
	 SCS Opposite-Spin Scale   =       1.2000000000000000 [-]
	 SCS Same-Spin Energy      =      -0.1139505643361191 [Eh]
	 SCS Opposite-Spin Energy  =      -1.1291899800172767 [Eh]
	 SCS Correlation Energy    =      -1.2431405443533958 [Eh]
	 SCS Total Energy          =    -642.1529154093535681 [Eh]
	-----------------------------------------------------------

  Dipole Moment: [D]
     X:    -1.7394      Y:    -0.1287      Z:    -0.0009     Total:     1.7441

*** Psi4 exiting successfully. Buy a developer a beer!
