                               Psi4 1.4a3.dev225

  ==> Input File <==

--------------------------------------------------------------------------
#psi4
#
memory 32 gb

molecule  {
-2 1
  P        0.1336040    -0.0000010     0.0669700
  O       -1.2602320     0.0000140    -0.9491030
  O       -0.5109990    -0.0000200     1.4686910
  O        0.8843750     1.2916960    -0.3037030
  O        0.8843730    -1.2916890    -0.3037370
  H       -2.0214770     0.0000024    -0.2683994
units angstrom
no_reorient  #important for SAPT in psi4, default
symmetry c1  #important for SAPT in psi4, default
}

set PROPERTIES_ORIGIN ["COM"]
properties('MP2/aug-cc-pvtz', properties = ['dipole'])
--------------------------------------------------------------------------

    Molecular point group: c1
  Charge       = -2
  Multiplicity = 1
  Basis Set: AUG-CC-PVTZ
    Blend: AUG-CC-PVTZ
  Basis Set: (AUG-CC-PVTZ AUX)
    Blend: AUG-CC-PVTZ-JKFIT

    Orbital Energies [Eh]
    ---------------------

    Doubly Occupied:

       1A    -79.650219     2A    -20.199859     3A    -20.098994
       4A    -20.091979     5A    -20.091961     6A     -7.165203
       7A     -5.064576     8A     -5.062478     9A     -5.062240
      10A     -0.978452    11A     -0.894518    12A     -0.839003
      13A     -0.832529    14A     -0.344091    15A     -0.265703
      16A     -0.211952    17A     -0.192878    18A     -0.160914
      19A     -0.131116    20A     -0.072000    21A     -0.071522
      22A     -0.071135    23A     -0.034839    24A     -0.024505
      25A     -0.002010

  @DF-RHF Final Energy:  -640.91596650746737

   => Energetics <=

    Nuclear Repulsion Energy =            251.5113751864537903
    One-Electron Energy =               -1409.6253304597655642
    Two-Electron Energy =                 517.1979887658444568
    Total Energy =                       -640.9159665074673740
  Basis Set: (AUG-CC-PVTZ AUX)
    Blend: AUG-CC-PVTZ-RI
    Molecular point group: c1

    Geometry (in Angstrom), charge = -2, multiplicity = 1:

       Center              X                  Y                   Z               Mass
    ------------   -----------------  -----------------  -----------------  -----------------
         P            0.112124412158    -0.000000869113     0.062815948374    30.973761998420
         O           -1.281711587842     0.000014130887    -0.953257051626    15.994914619570
         O           -0.532478587842    -0.000019869113     1.464536948374    15.994914619570
         O            0.862895412158     1.291696130887    -0.307857051626    15.994914619570
         O            0.862893412158    -1.291688869113    -0.307891051626    15.994914619570
         H           -2.042956587842     0.000002530887    -0.272553451626     1.007825032230

  Basis Set: AUG-CC-PVTZ
    Blend: AUG-CC-PVTZ
  Basis Set: (AUG-CC-PVTZ AUX)
    Blend: AUG-CC-PVTZ-JKFIT
	 Reference Energy          =    -640.9159665074673740 [Eh]
	 Singles Energy            =      -0.0000000000000000 [Eh]
	 Same-Spin Energy          =      -0.3409467462051540 [Eh]
	 Opposite-Spin Energy      =      -0.9377073983298370 [Eh]
	 Correlation Energy        =      -1.2786541445349910 [Eh]
	 Total Energy              =    -642.1946206520024134 [Eh]

	 ================> DF-SCS-MP2 Energies <==================
	-----------------------------------------------------------
	 SCS Same-Spin Scale       =       0.3333333333333333 [-]
	 SCS Opposite-Spin Scale   =       1.2000000000000000 [-]
	 SCS Same-Spin Energy      =      -0.1136489154017180 [Eh]
	 SCS Opposite-Spin Energy  =      -1.1252488779958043 [Eh]
	 SCS Correlation Energy    =      -1.2388977933975223 [Eh]
	 SCS Total Energy          =    -642.1548643008649151 [Eh]
	-----------------------------------------------------------

  Dipole Moment: [D]
     X:    -2.8401      Y:     0.0000      Z:    -0.6038     Total:     2.9036

*** Psi4 exiting successfully. Buy a developer a beer!
