                               Psi4 1.3.2 release

  ==> Input File <==

--------------------------------------------------------------------------
#psi4
#
memory 32 gb

molecule  {
-2 1
  P        0.1641090    -0.0635590     0.0002810
  O       -1.3413811     0.8819324     0.1034559
  O        0.0623980    -0.8993590    -1.2961490
  O        0.0584720    -0.8952640     1.2990450
  O        1.1967260     1.0757810    -0.0000020
  H       -1.9875120     0.0728630    -0.0016460
units angstrom
no_reorient  #important for SAPT in psi4, default
symmetry c1  #important for SAPT in psi4, default
}

set PROPERTIES_ORIGIN ["COM"]
properties('MP2/aug-cc-pvtz', properties = ['dipole'])
--------------------------------------------------------------------------

    Molecular point group: c1
  Charge       = -2
  Multiplicity = 1
  Basis Set: AUG-CC-PVTZ
    Blend: AUG-CC-PVTZ
  Basis Set: (AUG-CC-PVTZ AUX)
    Blend: AUG-CC-PVTZ-JKFIT

    Orbital Energies [Eh]
    ---------------------

    Doubly Occupied:

       1A    -79.657773     2A    -20.198720     3A    -20.107065
       4A    -20.098559     5A    -20.097735     6A     -7.172060
       7A     -5.071503     8A     -5.069145     9A     -5.069053
      10A     -0.964674    11A     -0.893857    12A     -0.842865
      13A     -0.838590    14A     -0.326251    15A     -0.261577
      16A     -0.209117    17A     -0.189212    18A     -0.162893
      19A     -0.132378    20A     -0.078151    21A     -0.074511
      22A     -0.070004    23A     -0.039072    24A     -0.030818
      25A     -0.008608

  @DF-RHF Final Energy:  -640.90766555473897

   => Energetics <=

    Nuclear Repulsion Energy =            249.5074625430187041
    One-Electron Energy =               -1405.5018722897787029
    Two-Electron Energy =                 515.0867441920211149
    Total Energy =                       -640.9076655547389691
  Basis Set: (AUG-CC-PVTZ AUX)
    Blend: AUG-CC-PVTZ-RI
    Molecular point group: c1

    Geometry (in Angstrom), charge = -2, multiplicity = 1:

       Center              X                  Y                   Z               Mass
    ------------   -----------------  -----------------  -----------------  -----------------
         P            0.135977142141    -0.070993134853    -0.017518918169    30.973761998420
         O           -1.369512957859     0.874498265147     0.085655981831    15.994914619570
         O            0.034266142141    -0.906793134853    -1.313948918169    15.994914619570
         O            0.030340142141    -0.902698134853     1.281245081831    15.994914619570
         O            1.168594142141     1.068346865147    -0.017801918169    15.994914619570
         H           -2.015643857859     0.065428865147    -0.019445918169     1.007825032230

  Basis Set: AUG-CC-PVTZ
    Blend: AUG-CC-PVTZ
  Basis Set: (AUG-CC-PVTZ AUX)
    Blend: AUG-CC-PVTZ-JKFIT
	 Reference Energy          =    -640.9076655547389691 [Eh]
	 Singles Energy            =      -0.0000000000000000 [Eh]
	 Same-Spin Energy          =      -0.3419552425423542 [Eh]
	 Opposite-Spin Energy      =      -0.9409591516262246 [Eh]
	 Correlation Energy        =      -1.2829143941685788 [Eh]
	 Total Energy              =    -642.1905799489074980 [Eh]

	 ================> DF-SCS-MP2 Energies <==================
	-----------------------------------------------------------
	 SCS Same-Spin Scale       =       0.3333333333333333 [-]
	 SCS Opposite-Spin Scale   =       1.2000000000000000 [-]
	 SCS Same-Spin Energy      =      -0.1139850808474514 [Eh]
	 SCS Opposite-Spin Energy  =      -1.1291509819514693 [Eh]
	 SCS Correlation Energy    =      -1.2431360627989207 [Eh]
	 SCS Total Energy          =    -642.1508016175379225 [Eh]
	-----------------------------------------------------------

  Dipole Moment: [D]
     X:    -2.3441      Y:     0.1568      Z:    -0.1712     Total:     2.3555

*** Psi4 exiting successfully. Buy a developer a beer!
