                               Psi4 1.4a3.dev225

  ==> Input File <==

--------------------------------------------------------------------------
#psi4
#
memory 32 gb

molecule  {
-2 1
  P        0.1336040    -0.0000010     0.0669700
  O       -1.3006360     0.0000144    -0.9785566
  O       -0.5109990    -0.0000200     1.4686910
  O        0.8843750     1.2916960    -0.3037030
  O        0.8843730    -1.2916890    -0.3037370
  H       -1.9842050     0.0000030    -0.3017280
units angstrom
no_reorient  #important for SAPT in psi4, default
symmetry c1  #important for SAPT in psi4, default
}

set PROPERTIES_ORIGIN ["COM"]
properties('MP2/aug-cc-pvtz', properties = ['dipole'])
--------------------------------------------------------------------------

    Molecular point group: c1
  Charge       = -2
  Multiplicity = 1
  Basis Set: AUG-CC-PVTZ
    Blend: AUG-CC-PVTZ
  Basis Set: (AUG-CC-PVTZ AUX)
    Blend: AUG-CC-PVTZ-JKFIT

    Orbital Energies [Eh]
    ---------------------

    Doubly Occupied:

       1A    -79.655854     2A    -20.192281     3A    -20.104031
       4A    -20.095940     5A    -20.095922     6A     -7.170361
       7A     -5.069668     8A     -5.067583     9A     -5.067351
      10A     -0.978745    11A     -0.901478    12A     -0.842677
      13A     -0.835810    14A     -0.341464    15A     -0.272164
      16A     -0.211197    17A     -0.189708    18A     -0.165737
      19A     -0.131684    20A     -0.074982    21A     -0.074383
      22A     -0.072764    23A     -0.039675    24A     -0.028455
      25A     -0.005697

  @DF-RHF Final Energy:  -640.91956649061183

   => Energetics <=

    Nuclear Repulsion Energy =            250.1918705899981035
    One-Electron Energy =               -1406.8516556669881084
    Two-Electron Energy =                 515.7402185863780915
    Total Energy =                       -640.9195664906118282
  Basis Set: (AUG-CC-PVTZ AUX)
    Blend: AUG-CC-PVTZ-RI
    Molecular point group: c1

    Geometry (in Angstrom), charge = -2, multiplicity = 1:

       Center              X                  Y                   Z               Mass
    ------------   -----------------  -----------------  -----------------  -----------------
         P            0.118467544455    -0.000000942087     0.068075334202    30.973761998420
         O           -1.315772455545     0.000014457913    -0.977451265798    15.994914619570
         O           -0.526135455545    -0.000019942087     1.469796334202    15.994914619570
         O            0.869238544455     1.291696057913    -0.302597665798    15.994914619570
         O            0.869236544455    -1.291688942087    -0.302631665798    15.994914619570
         H           -1.999341455545     0.000003057913    -0.300622665798     1.007825032230

  Basis Set: AUG-CC-PVTZ
    Blend: AUG-CC-PVTZ
  Basis Set: (AUG-CC-PVTZ AUX)
    Blend: AUG-CC-PVTZ-JKFIT
	 Reference Energy          =    -640.9195664906118282 [Eh]
	 Singles Energy            =      -0.0000000000000000 [Eh]
	 Same-Spin Energy          =      -0.3407210856582262 [Eh]
	 Opposite-Spin Energy      =      -0.9373723317720788 [Eh]
	 Correlation Energy        =      -1.2780934174303049 [Eh]
	 Total Energy              =    -642.1976599080421693 [Eh]

	 ================> DF-SCS-MP2 Energies <==================
	-----------------------------------------------------------
	 SCS Same-Spin Scale       =       0.3333333333333333 [-]
	 SCS Opposite-Spin Scale   =       1.2000000000000000 [-]
	 SCS Same-Spin Energy      =      -0.1135736952194087 [Eh]
	 SCS Opposite-Spin Energy  =      -1.1248467981264945 [Eh]
	 SCS Correlation Energy    =      -1.2384204933459031 [Eh]
	 SCS Total Energy          =    -642.1579869839576986 [Eh]
	-----------------------------------------------------------

  Dipole Moment: [D]
     X:    -2.5526      Y:     0.0000      Z:    -0.4440     Total:     2.5910

*** Psi4 exiting successfully. Buy a developer a beer!
