                               Psi4 1.3.2 release

  ==> Input File <==

--------------------------------------------------------------------------
#psi4
#
memory 32 gb

molecule  {
-2 1
  P        0.1641090    -0.0635590     0.0002810
  O       -1.3768620     0.8289070    -0.0032150
  O        0.0623980    -0.8993590    -1.2961490
  O        0.0584720    -0.8952640     1.2990450
  O        1.1967260     1.0757810    -0.0000020
  H       -1.9246784     0.1506571    -0.0018074
units angstrom
no_reorient  #important for SAPT in psi4, default
symmetry c1  #important for SAPT in psi4, default
}

set PROPERTIES_ORIGIN ["COM"]
properties('MP2/aug-cc-pvtz', properties = ['dipole'])
--------------------------------------------------------------------------

    Molecular point group: c1
  Charge       = -2
  Multiplicity = 1
  Basis Set: AUG-CC-PVTZ
    Blend: AUG-CC-PVTZ
  Basis Set: (AUG-CC-PVTZ AUX)
    Blend: AUG-CC-PVTZ-JKFIT

    Orbital Energies [Eh]
    ---------------------

    Doubly Occupied:

       1A    -79.658223     2A    -20.177516     3A    -20.101677
       4A    -20.101656     5A    -20.100913     6A     -7.172444
       7A     -5.071873     8A     -5.069529     9A     -5.069474
      10A     -0.996191    11A     -0.906722    12A     -0.842110
      13A     -0.839917    14A     -0.352893    15A     -0.279760
      16A     -0.209845    17A     -0.190038    18A     -0.165342
      19A     -0.134287    20A     -0.078033    21A     -0.074078
      22A     -0.071388    23A     -0.040604    24A     -0.031801
      25A     -0.008856

  @DF-RHF Final Energy:  -640.91202984807114

   => Energetics <=

    Nuclear Repulsion Energy =            250.4222648415007484
    One-Electron Energy =               -1407.1782504360260191
    Two-Electron Energy =                 515.8439557464541849
    Total Energy =                       -640.9120298480711426
  Basis Set: (AUG-CC-PVTZ AUX)
    Blend: AUG-CC-PVTZ-RI
    Molecular point group: c1

    Geometry (in Angstrom), charge = -2, multiplicity = 1:

       Center              X                  Y                   Z               Mass
    ------------   -----------------  -----------------  -----------------  -----------------
         P            0.141231228710    -0.062971835210     0.000262787267    30.973761998420
         O           -1.399739771290     0.829494164790    -0.003233212733    15.994914619570
         O            0.039520228710    -0.898771835210    -1.296167212733    15.994914619570
         O            0.035594228710    -0.894676835210     1.299026787267    15.994914619570
         O            1.173848228710     1.076368164790    -0.000020212733    15.994914619570
         H           -1.947556171290     0.151244264790    -0.001825612733     1.007825032230

  Basis Set: AUG-CC-PVTZ
    Blend: AUG-CC-PVTZ
  Basis Set: (AUG-CC-PVTZ AUX)
    Blend: AUG-CC-PVTZ-JKFIT
	 Reference Energy          =    -640.9120298480711426 [Eh]
	 Singles Energy            =      -0.0000000000000000 [Eh]
	 Same-Spin Energy          =      -0.3397767660747949 [Eh]
	 Opposite-Spin Energy      =      -0.9354215634460309 [Eh]
	 Correlation Energy        =      -1.2751983295208258 [Eh]
	 Total Energy              =    -642.1872281775919191 [Eh]

	 ================> DF-SCS-MP2 Energies <==================
	-----------------------------------------------------------
	 SCS Same-Spin Scale       =       0.3333333333333333 [-]
	 SCS Opposite-Spin Scale   =       1.2000000000000000 [-]
	 SCS Same-Spin Energy      =      -0.1132589220249316 [Eh]
	 SCS Opposite-Spin Energy  =      -1.1225058761352371 [Eh]
	 SCS Correlation Energy    =      -1.2357647981601687 [Eh]
	 SCS Total Energy          =    -642.1477946462313184 [Eh]
	-----------------------------------------------------------

  Dipole Moment: [D]
     X:    -2.3214      Y:     0.2083      Z:    -0.0022     Total:     2.3307

*** Psi4 exiting successfully. Buy a developer a beer!
