                               Psi4 1.4a3.dev225

  ==> Input File <==

--------------------------------------------------------------------------
#psi4
#
memory 32 gb

molecule  {
-2 1
  P        0.1336040    -0.0000010     0.0669700
  O       -1.2602320     0.0000140    -0.9491030
  O       -0.4901088    -0.0000194     1.4232642
  O        0.8843750     1.2916960    -0.3037030
  O        0.8843730    -1.2916890    -0.3037370
  H       -1.9842050     0.0000030    -0.3017280
units angstrom
no_reorient  #important for SAPT in psi4, default
symmetry c1  #important for SAPT in psi4, default
}

set PROPERTIES_ORIGIN ["COM"]
properties('MP2/aug-cc-pvtz', properties = ['dipole'])
--------------------------------------------------------------------------

    Molecular point group: c1
  Charge       = -2
  Multiplicity = 1
  Basis Set: AUG-CC-PVTZ
    Blend: AUG-CC-PVTZ
  Basis Set: (AUG-CC-PVTZ AUX)
    Blend: AUG-CC-PVTZ-JKFIT

    Orbital Energies [Eh]
    ---------------------

    Doubly Occupied:

       1A    -79.640559     2A    -20.191097     3A    -20.096301
       4A    -20.087140     5A    -20.087122     6A     -7.157333
       7A     -5.056561     8A     -5.054905     9A     -5.054158
      10A     -0.986976    11A     -0.903239    12A     -0.845628
      13A     -0.828340    14A     -0.348482    15A     -0.268798
      16A     -0.213608    17A     -0.192987    18A     -0.163840
      19A     -0.131015    20A     -0.075427    21A     -0.073243
      22A     -0.068530    23A     -0.037091    24A     -0.021089
      25A      0.000729

  @DF-RHF Final Energy:  -640.92172207376279

   => Energetics <=

    Nuclear Repulsion Energy =            253.8282286152571885
    One-Electron Energy =               -1414.3344210260486307
    Two-Electron Energy =                 519.5844703370287334
    Total Energy =                       -640.9217220737627940
  Basis Set: (AUG-CC-PVTZ AUX)
    Blend: AUG-CC-PVTZ-RI
    Molecular point group: c1

    Geometry (in Angstrom), charge = -2, multiplicity = 1:

       Center              X                  Y                   Z               Mass
    ------------   -----------------  -----------------  -----------------  -----------------
         P            0.108250967018    -0.000000975423     0.070737762861    30.973761998420
         O           -1.285585032982     0.000014024577    -0.945335237139    15.994914619570
         O           -0.515461832982    -0.000019375423     1.427031962861    15.994914619570
         O            0.859021967018     1.291696024577    -0.299935237139    15.994914619570
         O            0.859019967018    -1.291688975423    -0.299969237139    15.994914619570
         H           -2.009558032982     0.000003024577    -0.297960237139     1.007825032230

  Basis Set: AUG-CC-PVTZ
    Blend: AUG-CC-PVTZ
  Basis Set: (AUG-CC-PVTZ AUX)
    Blend: AUG-CC-PVTZ-JKFIT
	 Reference Energy          =    -640.9217220737627940 [Eh]
	 Singles Energy            =      -0.0000000000000000 [Eh]
	 Same-Spin Energy          =      -0.3394845264788815 [Eh]
	 Opposite-Spin Energy      =      -0.9338822041010502 [Eh]
	 Correlation Energy        =      -1.2733667305799317 [Eh]
	 Total Energy              =    -642.1950888043427312 [Eh]

	 ================> DF-SCS-MP2 Energies <==================
	-----------------------------------------------------------
	 SCS Same-Spin Scale       =       0.3333333333333333 [-]
	 SCS Opposite-Spin Scale   =       1.2000000000000000 [-]
	 SCS Same-Spin Energy      =      -0.1131615088262938 [Eh]
	 SCS Opposite-Spin Energy  =      -1.1206586449212601 [Eh]
	 SCS Correlation Energy    =      -1.2338201537475539 [Eh]
	 SCS Total Energy          =    -642.1555422275102956 [Eh]
	-----------------------------------------------------------

  Dipole Moment: [D]
     X:    -2.9819      Y:     0.0000      Z:    -0.2965     Total:     2.9966

*** Psi4 exiting successfully. Buy a developer a beer!
