                               Psi4 1.3.2 release

  ==> Input File <==

--------------------------------------------------------------------------
#psi4
#
memory 32 gb

molecule  {
-2 1
  P        0.1641090    -0.0635590     0.0002810
  O       -1.3768620     0.8289070    -0.0032150
  O        0.0652301    -0.8767818    -1.3106458
  O        0.0584720    -0.8952640     1.2990450
  O        1.1967260     1.0757810    -0.0000020
  H       -1.9875120     0.0728630    -0.0016460
units angstrom
no_reorient  #important for SAPT in psi4, default
symmetry c1  #important for SAPT in psi4, default
}

set PROPERTIES_ORIGIN ["COM"]
properties('MP2/aug-cc-pvtz', properties = ['dipole'])
--------------------------------------------------------------------------

    Molecular point group: c1
  Charge       = -2
  Multiplicity = 1
  Basis Set: AUG-CC-PVTZ
    Blend: AUG-CC-PVTZ
  Basis Set: (AUG-CC-PVTZ AUX)
    Blend: AUG-CC-PVTZ-JKFIT

    Orbital Energies [Eh]
    ---------------------

    Doubly Occupied:

       1A    -79.657778     2A    -20.189446     3A    -20.102617
       4A    -20.100840     5A    -20.100148     6A     -7.171998
       7A     -5.071423     8A     -5.069127     9A     -5.068993
      10A     -0.973056    11A     -0.898886    12A     -0.841609
      13A     -0.840101    14A     -0.336463    15A     -0.268857
      16A     -0.208695    17A     -0.189318    18A     -0.163263
      19A     -0.133000    20A     -0.077325    21A     -0.074360
      22A     -0.070519    23A     -0.039142    24A     -0.031804
      25A     -0.008801

  @DF-RHF Final Energy:  -640.91718822267410

   => Energetics <=

    Nuclear Repulsion Energy =            249.7802084196181340
    One-Electron Energy =               -1406.0196566596666798
    Two-Electron Energy =                 515.3222600173745604
    Total Energy =                       -640.9171882226740991
  Basis Set: (AUG-CC-PVTZ AUX)
    Blend: AUG-CC-PVTZ-RI
    Molecular point group: c1

    Geometry (in Angstrom), charge = -2, multiplicity = 1:

       Center              X                  Y                   Z               Mass
    ------------   -----------------  -----------------  -----------------  -----------------
         P            0.141419076181    -0.065917998981     0.002677433034    30.973761998420
         O           -1.399551923819     0.826548001019    -0.000818566966    15.994914619570
         O            0.042540176181    -0.879140798981    -1.308249366966    15.994914619570
         O            0.035782076181    -0.897622998981     1.301441433034    15.994914619570
         O            1.174036076181     1.073422001019     0.002394433034    15.994914619570
         H           -2.010201923819     0.070504001019     0.000750433034     1.007825032230

  Basis Set: AUG-CC-PVTZ
    Blend: AUG-CC-PVTZ
  Basis Set: (AUG-CC-PVTZ AUX)
    Blend: AUG-CC-PVTZ-JKFIT
	 Reference Energy          =    -640.9171882226740991 [Eh]
	 Singles Energy            =      -0.0000000000000000 [Eh]
	 Same-Spin Energy          =      -0.3409491018125128 [Eh]
	 Opposite-Spin Energy      =      -0.9383391217310659 [Eh]
	 Correlation Energy        =      -1.2792882235435787 [Eh]
	 Total Energy              =    -642.1964764462177300 [Eh]

	 ================> DF-SCS-MP2 Energies <==================
	-----------------------------------------------------------
	 SCS Same-Spin Scale       =       0.3333333333333333 [-]
	 SCS Opposite-Spin Scale   =       1.2000000000000000 [-]
	 SCS Same-Spin Energy      =      -0.1136497006041709 [Eh]
	 SCS Opposite-Spin Energy  =      -1.1260069460772790 [Eh]
	 SCS Correlation Energy    =      -1.2396566466814500 [Eh]
	 SCS Total Energy          =    -642.1568448693554956 [Eh]
	-----------------------------------------------------------

  Dipole Moment: [D]
     X:    -2.3444      Y:     0.1346      Z:     0.0345     Total:     2.3485

*** Psi4 exiting successfully. Buy a developer a beer!
