                               Psi4 1.3.2 release

  ==> Input File <==

--------------------------------------------------------------------------
#psi4
#
memory 32 gb

molecule  {
-2 1
  P        0.1794501    -0.0365295     0.0002202
  O       -1.3768620     0.8289070    -0.0032150
  O        0.0623980    -0.8993590    -1.2961490
  O        0.0584720    -0.8952640     1.2990450
  O        1.1967260     1.0757810    -0.0000020
  H       -1.9875120     0.0728630    -0.0016460
units angstrom
no_reorient  #important for SAPT in psi4, default
symmetry c1  #important for SAPT in psi4, default
}

set PROPERTIES_ORIGIN ["COM"]
properties('MP2/aug-cc-pvtz', properties = ['dipole'])
--------------------------------------------------------------------------

    Molecular point group: c1
  Charge       = -2
  Multiplicity = 1
  Basis Set: AUG-CC-PVTZ
    Blend: AUG-CC-PVTZ
  Basis Set: (AUG-CC-PVTZ AUX)
    Blend: AUG-CC-PVTZ-JKFIT

    Orbital Energies [Eh]
    ---------------------

    Doubly Occupied:

       1A    -79.657733     2A    -20.189165     3A    -20.107316
       4A    -20.097966     5A    -20.097947     6A     -7.172068
       7A     -5.071465     8A     -5.069335     9A     -5.068936
      10A     -0.972755    11A     -0.902092    12A     -0.847824
      13A     -0.830258    14A     -0.338288    15A     -0.267672
      16A     -0.209615    17A     -0.188060    18A     -0.165345
      19A     -0.131673    20A     -0.081000    21A     -0.074157
      22A     -0.068761    23A     -0.042835    24A     -0.026449
      25A     -0.007381

  @DF-RHF Final Energy:  -640.91616739959625

   => Energetics <=

    Nuclear Repulsion Energy =            249.7426035917993659
    One-Electron Energy =               -1405.9453468119525041
    Two-Electron Energy =                 515.2865758205567772
    Total Energy =                       -640.9161673995962474
  Basis Set: (AUG-CC-PVTZ AUX)
    Blend: AUG-CC-PVTZ-RI
    Molecular point group: c1

    Geometry (in Angstrom), charge = -2, multiplicity = 1:

       Center              X                  Y                   Z               Mass
    ------------   -----------------  -----------------  -----------------  -----------------
         P            0.152280530463    -0.043849719639     0.000219916815    30.973761998420
         O           -1.404031569537     0.821586780361    -0.003215283185    15.994914619570
         O            0.035228430463    -0.906679219639    -1.296149283185    15.994914619570
         O            0.031302430463    -0.902584219639     1.299044716815    15.994914619570
         O            1.169556430463     1.068460780361    -0.000002283185    15.994914619570
         H           -2.014681569537     0.065542780361    -0.001646283185     1.007825032230

  Basis Set: AUG-CC-PVTZ
    Blend: AUG-CC-PVTZ
  Basis Set: (AUG-CC-PVTZ AUX)
    Blend: AUG-CC-PVTZ-JKFIT
	 Reference Energy          =    -640.9161673995962474 [Eh]
	 Singles Energy            =      -0.0000000000000000 [Eh]
	 Same-Spin Energy          =      -0.3408931946271977 [Eh]
	 Opposite-Spin Energy      =      -0.9382432283516617 [Eh]
	 Correlation Energy        =      -1.2791364229788593 [Eh]
	 Total Energy              =    -642.1953038225750561 [Eh]

	 ================> DF-SCS-MP2 Energies <==================
	-----------------------------------------------------------
	 SCS Same-Spin Scale       =       0.3333333333333333 [-]
	 SCS Opposite-Spin Scale   =       1.2000000000000000 [-]
	 SCS Same-Spin Energy      =      -0.1136310648757326 [Eh]
	 SCS Opposite-Spin Energy  =      -1.1258918740219941 [Eh]
	 SCS Correlation Energy    =      -1.2395229388977267 [Eh]
	 SCS Total Energy          =    -642.1556903384939687 [Eh]
	-----------------------------------------------------------

  Dipole Moment: [D]
     X:    -2.1122      Y:     0.5733      Z:    -0.0030     Total:     2.1887

*** Psi4 exiting successfully. Buy a developer a beer!
