                               Psi4 1.3.2 release

  ==> Input File <==

--------------------------------------------------------------------------
#psi4
#
memory 32 gb

molecule  {
-2 1
  P        0.1641090    -0.0635590     0.0002810
  O       -1.3768620     0.8289070    -0.0032150
  O        0.0623980    -0.8993590    -1.2961490
  O        0.0584720    -0.8952640     1.2990450
  O        1.1967260     1.0757810    -0.0000020
  H       -1.8618449     0.2284511    -0.0019689
units angstrom
no_reorient  #important for SAPT in psi4, default
symmetry c1  #important for SAPT in psi4, default
}

set PROPERTIES_ORIGIN ["COM"]
properties('MP2/aug-cc-pvtz', properties = ['dipole'])
--------------------------------------------------------------------------

    Molecular point group: c1
  Charge       = -2
  Multiplicity = 1
  Basis Set: AUG-CC-PVTZ
    Blend: AUG-CC-PVTZ
  Basis Set: (AUG-CC-PVTZ AUX)
    Blend: AUG-CC-PVTZ-JKFIT

    Orbital Energies [Eh]
    ---------------------

    Doubly Occupied:

       1A    -79.658857     2A    -20.163353     3A    -20.102483
       4A    -20.102461     5A    -20.100779     6A     -7.173072
       7A     -5.072515     8A     -5.070140     9A     -5.070102
      10A     -1.031355    11A     -0.912538    12A     -0.842298
      13A     -0.840586    14A     -0.373151    15A     -0.286555
      16A     -0.211163    17A     -0.191474    18A     -0.166697
      19A     -0.136429    20A     -0.078501    21A     -0.074345
      22A     -0.072485    23A     -0.041493    24A     -0.032684
      25A     -0.009232

  @DF-RHF Final Energy:  -640.87026079855264

   => Energetics <=

    Nuclear Repulsion Energy =            251.2012157215808372
    One-Electron Energy =               -1408.5134581136453562
    Two-Electron Energy =                 516.4419815935118550
    Total Energy =                       -640.8702607985526356
  Basis Set: (AUG-CC-PVTZ AUX)
    Blend: AUG-CC-PVTZ-RI
    Molecular point group: c1

    Geometry (in Angstrom), charge = -2, multiplicity = 1:

       Center              X                  Y                   Z               Mass
    ------------   -----------------  -----------------  -----------------  -----------------
         P            0.140571325081    -0.063788860251     0.000264483407    30.973761998420
         O           -1.400399674919     0.828677139749    -0.003231516593    15.994914619570
         O            0.038860325081    -0.899588860251    -1.296165516593    15.994914619570
         O            0.034934325081    -0.895493860251     1.299028483407    15.994914619570
         O            1.173188325081     1.075551139749    -0.000018516593    15.994914619570
         H           -1.885382574919     0.228221239749    -0.001985416593     1.007825032230

  Basis Set: AUG-CC-PVTZ
    Blend: AUG-CC-PVTZ
  Basis Set: (AUG-CC-PVTZ AUX)
    Blend: AUG-CC-PVTZ-JKFIT
	 Reference Energy          =    -640.8702607985526356 [Eh]
	 Singles Energy            =      -0.0000000000000000 [Eh]
	 Same-Spin Energy          =      -0.3386362586726401 [Eh]
	 Opposite-Spin Energy      =      -0.9329145015030114 [Eh]
	 Correlation Energy        =      -1.2715507601756515 [Eh]
	 Total Energy              =    -642.1418115587282500 [Eh]

	 ================> DF-SCS-MP2 Energies <==================
	-----------------------------------------------------------
	 SCS Same-Spin Scale       =       0.3333333333333333 [-]
	 SCS Opposite-Spin Scale   =       1.2000000000000000 [-]
	 SCS Same-Spin Energy      =      -0.1128787528908800 [Eh]
	 SCS Opposite-Spin Energy  =      -1.1194974018036137 [Eh]
	 SCS Correlation Energy    =      -1.2323761546944938 [Eh]
	 SCS Total Energy          =    -642.1026369532471563 [Eh]
	-----------------------------------------------------------

  Dipole Moment: [D]
     X:    -2.2900      Y:     0.2306      Z:    -0.0023     Total:     2.3016

*** Psi4 exiting successfully. Buy a developer a beer!
