                               Psi4 1.3.2 release

  ==> Input File <==

--------------------------------------------------------------------------
#psi4
#
memory 32 gb

molecule  {
-2 1
  P        0.0980996    -0.1688775     0.0005134
  O       -1.3768620     0.8289070    -0.0032150
  O        0.0623980    -0.8993590    -1.2961490
  O        0.0584720    -0.8952640     1.2990450
  O        1.1967260     1.0757810    -0.0000020
  H       -1.9875120     0.0728630    -0.0016460
units angstrom
no_reorient  #important for SAPT in psi4, default
symmetry c1  #important for SAPT in psi4, default
}

set PROPERTIES_ORIGIN ["COM"]
properties('MP2/aug-cc-pvtz', properties = ['dipole'])
--------------------------------------------------------------------------

    Molecular point group: c1
  Charge       = -2
  Multiplicity = 1
  Basis Set: AUG-CC-PVTZ
    Blend: AUG-CC-PVTZ
  Basis Set: (AUG-CC-PVTZ AUX)
    Blend: AUG-CC-PVTZ-JKFIT

    Orbital Energies [Eh]
    ---------------------

    Doubly Occupied:

       1A    -79.656544     2A    -20.194515     3A    -20.113676
       4A    -20.113613     5A    -20.077772     6A     -7.172365
       7A     -5.071539     8A     -5.069881     9A     -5.068929
      10A     -0.982181    11A     -0.916012    12A     -0.875223
      13A     -0.790638    14A     -0.333350    15A     -0.276701
      16A     -0.216811    17A     -0.199810    18A     -0.162201
      19A     -0.143589    20A     -0.091065    21A     -0.081139
      22A     -0.055509    23A     -0.051522    24A     -0.008211
      25A      0.004507

  @DF-RHF Final Energy:  -640.89781844607705

   => Energetics <=

    Nuclear Repulsion Energy =            249.9823143528538480
    One-Electron Energy =               -1406.3236847342277542
    Two-Electron Energy =                 515.4435519352969095
    Total Energy =                       -640.8978184460770535
  Basis Set: (AUG-CC-PVTZ AUX)
    Blend: AUG-CC-PVTZ-RI
    Molecular point group: c1

    Geometry (in Angstrom), charge = -2, multiplicity = 1:

       Center              X                  Y                   Z               Mass
    ------------   -----------------  -----------------  -----------------  -----------------
         P            0.097187828724    -0.133479271883     0.000418479579    30.973761998420
         O           -1.377773771276     0.864305228117    -0.003309920421    15.994914619570
         O            0.061486228724    -0.863960771883    -1.296243920421    15.994914619570
         O            0.057560228724    -0.859865771883     1.298950079579    15.994914619570
         O            1.195814228724     1.111179228117    -0.000096920421    15.994914619570
         H           -1.988423771276     0.108261228117    -0.001740920421     1.007825032230

  Basis Set: AUG-CC-PVTZ
    Blend: AUG-CC-PVTZ
  Basis Set: (AUG-CC-PVTZ AUX)
    Blend: AUG-CC-PVTZ-JKFIT
	 Reference Energy          =    -640.8978184460770535 [Eh]
	 Singles Energy            =      -0.0000000000000000 [Eh]
	 Same-Spin Energy          =      -0.3415048317459921 [Eh]
	 Opposite-Spin Energy      =      -0.9397131344154812 [Eh]
	 Correlation Energy        =      -1.2812179661614733 [Eh]
	 Total Energy              =    -642.1790364122384744 [Eh]

	 ================> DF-SCS-MP2 Energies <==================
	-----------------------------------------------------------
	 SCS Same-Spin Scale       =       0.3333333333333333 [-]
	 SCS Opposite-Spin Scale   =       1.2000000000000000 [-]
	 SCS Same-Spin Energy      =      -0.1138349439153307 [Eh]
	 SCS Opposite-Spin Energy  =      -1.1276557612985774 [Eh]
	 SCS Correlation Energy    =      -1.2414907052139081 [Eh]
	 SCS Total Energy          =    -642.1393091512909450 [Eh]
	-----------------------------------------------------------

  Dipole Moment: [D]
     X:    -3.3270      Y:    -1.3528      Z:     0.0011     Total:     3.5915

*** Psi4 exiting successfully. Buy a developer a beer!
