                               Psi4 1.4a3.dev225

  ==> Input File <==

--------------------------------------------------------------------------
#psi4
#
memory 32 gb

molecule  {
-2 1
  P        0.1336040    -0.0000010     0.0669700
  O       -1.2198280     0.0000136    -0.9196494
  O       -0.5109990    -0.0000200     1.4686910
  O        0.8843750     1.2916960    -0.3037030
  O        0.8843730    -1.2916890    -0.3037370
  H       -1.9842050     0.0000030    -0.3017280
units angstrom
no_reorient  #important for SAPT in psi4, default
symmetry c1  #important for SAPT in psi4, default
}

set PROPERTIES_ORIGIN ["COM"]
properties('MP2/aug-cc-pvtz', properties = ['dipole'])
--------------------------------------------------------------------------

    Molecular point group: c1
  Charge       = -2
  Multiplicity = 1
  Basis Set: AUG-CC-PVTZ
    Blend: AUG-CC-PVTZ
  Basis Set: (AUG-CC-PVTZ AUX)
    Blend: AUG-CC-PVTZ-JKFIT

    Orbital Energies [Eh]
    ---------------------

    Doubly Occupied:

       1A    -79.644733     2A    -20.197613     3A    -20.094848
       4A    -20.088030     5A    -20.088012     6A     -7.160353
       7A     -5.059837     8A     -5.057654     9A     -5.057397
      10A     -0.996388    11A     -0.893994    12A     -0.835749
      13A     -0.829369    14A     -0.363641    15A     -0.271051
      16A     -0.213501    17A     -0.198696    18A     -0.157168
      19A     -0.130852    20A     -0.071441    21A     -0.068512
      22A     -0.068220    23A     -0.031303    24A     -0.020888
      25A      0.001468

  @DF-RHF Final Energy:  -640.92060061256325

   => Energetics <=

    Nuclear Repulsion Energy =            253.4864336456663523
    One-Electron Energy =               -1413.6185028297472854
    Two-Electron Energy =                 519.2114685715177984
    Total Energy =                       -640.9206006125632484
  Basis Set: (AUG-CC-PVTZ AUX)
    Blend: AUG-CC-PVTZ-RI
    Molecular point group: c1

    Geometry (in Angstrom), charge = -2, multiplicity = 1:

       Center              X                  Y                   Z               Mass
    ------------   -----------------  -----------------  -----------------  -----------------
         P            0.104998387675    -0.000000808742     0.058256624268    30.973761998420
         O           -1.248433612325     0.000013791258    -0.928362775732    15.994914619570
         O           -0.539604612325    -0.000019808742     1.459977624268    15.994914619570
         O            0.855769387675     1.291696191258    -0.312416375732    15.994914619570
         O            0.855767387675    -1.291688808742    -0.312450375732    15.994914619570
         H           -2.012810612325     0.000003191258    -0.310441375732     1.007825032230

  Basis Set: AUG-CC-PVTZ
    Blend: AUG-CC-PVTZ
  Basis Set: (AUG-CC-PVTZ AUX)
    Blend: AUG-CC-PVTZ-JKFIT
	 Reference Energy          =    -640.9206006125632484 [Eh]
	 Singles Energy            =      -0.0000000000000000 [Eh]
	 Same-Spin Energy          =      -0.3400736956329751 [Eh]
	 Opposite-Spin Energy      =      -0.9350824233436985 [Eh]
	 Correlation Energy        =      -1.2751561189766736 [Eh]
	 Total Energy              =    -642.1957567315399729 [Eh]

	 ================> DF-SCS-MP2 Energies <==================
	-----------------------------------------------------------
	 SCS Same-Spin Scale       =       0.3333333333333333 [-]
	 SCS Opposite-Spin Scale   =       1.2000000000000000 [-]
	 SCS Same-Spin Energy      =      -0.1133578985443250 [Eh]
	 SCS Opposite-Spin Energy  =      -1.1220989080124382 [Eh]
	 SCS Correlation Energy    =      -1.2354568065567633 [Eh]
	 SCS Total Energy          =    -642.1560574191199748 [Eh]
	-----------------------------------------------------------

  Dipole Moment: [D]
     X:    -3.1041      Y:     0.0000      Z:    -0.8088     Total:     3.2077

*** Psi4 exiting successfully. Buy a developer a beer!
