                               Psi4 1.3.2 release

  ==> Input File <==

--------------------------------------------------------------------------
#psi4
#
memory 32 gb

molecule  {
-2 1
  P        0.1641090    -0.0635590     0.0002810
  O       -1.3768620     0.8289070    -0.0032150
  O        0.0568276    -0.9437428    -1.2659752
  O        0.0584720    -0.8952640     1.2990450
  O        1.1967260     1.0757810    -0.0000020
  H       -1.9875120     0.0728630    -0.0016460
units angstrom
no_reorient  #important for SAPT in psi4, default
symmetry c1  #important for SAPT in psi4, default
}

set PROPERTIES_ORIGIN ["COM"]
properties('MP2/aug-cc-pvtz', properties = ['dipole'])
--------------------------------------------------------------------------

    Molecular point group: c1
  Charge       = -2
  Multiplicity = 1
  Basis Set: AUG-CC-PVTZ
    Blend: AUG-CC-PVTZ
  Basis Set: (AUG-CC-PVTZ AUX)
    Blend: AUG-CC-PVTZ-JKFIT

    Orbital Energies [Eh]
    ---------------------

    Doubly Occupied:

       1A    -79.657778     2A    -20.191037     3A    -20.103642
       4A    -20.101004     5A    -20.097487     6A     -7.171995
       7A     -5.071404     8A     -5.069089     9A     -5.069030
      10A     -0.973772    11A     -0.899463    12A     -0.844035
      13A     -0.836469    14A     -0.337404    15A     -0.269232
      16A     -0.209309    17A     -0.188439    18A     -0.164846
      19A     -0.132245    20A     -0.078450    21A     -0.073347
      22A     -0.070621    23A     -0.041117    24A     -0.029389
      25A     -0.007757

  @DF-RHF Final Energy:  -640.91706932463308

   => Energetics <=

    Nuclear Repulsion Energy =            249.7565663630536790
    One-Electron Energy =               -1405.9705501854846261
    Two-Electron Energy =                 515.2969144977978431
    Total Energy =                       -640.9170693246330757
  Basis Set: (AUG-CC-PVTZ AUX)
    Blend: AUG-CC-PVTZ-RI
    Molecular point group: c1

    Geometry (in Angstrom), charge = -2, multiplicity = 1:

       Center              X                  Y                   Z               Mass
    ------------   -----------------  -----------------  -----------------  -----------------
         P            0.142819613131    -0.054756873757    -0.004768306433    30.973761998420
         O           -1.398151386869     0.837709126243    -0.008264306433    15.994914619570
         O            0.035538213131    -0.934940673757    -1.271024506433    15.994914619570
         O            0.037182613131    -0.886461873757     1.293995693567    15.994914619570
         O            1.175436613131     1.084583126243    -0.005051306433    15.994914619570
         H           -2.008801386869     0.081665126243    -0.006695306433     1.007825032230

  Basis Set: AUG-CC-PVTZ
    Blend: AUG-CC-PVTZ
  Basis Set: (AUG-CC-PVTZ AUX)
    Blend: AUG-CC-PVTZ-JKFIT
	 Reference Energy          =    -640.9170693246330757 [Eh]
	 Singles Energy            =      -0.0000000000000000 [Eh]
	 Same-Spin Energy          =      -0.3409321319066096 [Eh]
	 Opposite-Spin Energy      =      -0.9382909026722746 [Eh]
	 Correlation Energy        =      -1.2792230345788842 [Eh]
	 Total Energy              =    -642.1962923592119523 [Eh]

	 ================> DF-SCS-MP2 Energies <==================
	-----------------------------------------------------------
	 SCS Same-Spin Scale       =       0.3333333333333333 [-]
	 SCS Opposite-Spin Scale   =       1.2000000000000000 [-]
	 SCS Same-Spin Energy      =      -0.1136440439688699 [Eh]
	 SCS Opposite-Spin Energy  =      -1.1259490832067294 [Eh]
	 SCS Correlation Energy    =      -1.2395931271755993 [Eh]
	 SCS Total Energy          =    -642.1566624518086428 [Eh]
	-----------------------------------------------------------

  Dipole Moment: [D]
     X:    -2.3197      Y:     0.2902      Z:    -0.0779     Total:     2.3390

*** Psi4 exiting successfully. Buy a developer a beer!
