                               Psi4 1.3.2 release

  ==> Input File <==

--------------------------------------------------------------------------
#psi4
#
memory 32 gb

molecule  {
-2 1
  P        0.1641090    -0.0635590     0.0002810
  O       -1.3768620     0.8289070    -0.0032150
  O        0.0755573    -0.7912240    -1.1284181
  O        0.0584720    -0.8952640     1.2990450
  O        1.1967260     1.0757810    -0.0000020
  H       -1.9875120     0.0728630    -0.0016460
units angstrom
no_reorient  #important for SAPT in psi4, default
symmetry c1  #important for SAPT in psi4, default
}

set PROPERTIES_ORIGIN ["COM"]
properties('MP2/aug-cc-pvtz', properties = ['dipole'])
--------------------------------------------------------------------------

    Molecular point group: c1
  Charge       = -2
  Multiplicity = 1
  Basis Set: AUG-CC-PVTZ
    Blend: AUG-CC-PVTZ
  Basis Set: (AUG-CC-PVTZ AUX)
    Blend: AUG-CC-PVTZ-JKFIT

    Orbital Energies [Eh]
    ---------------------

    Doubly Occupied:

       1A    -79.611835     2A    -20.173889     3A    -20.087476
       4A    -20.081906     5A    -20.081271     6A     -7.137395
       7A     -5.037044     8A     -5.034938     9A     -5.032690
      10A     -0.994904    11A     -0.922478    12A     -0.850463
      13A     -0.824426    14A     -0.322030    15A     -0.259460
      16A     -0.219752    17A     -0.193908    18A     -0.175886
      19A     -0.130652    20A     -0.086461    21A     -0.081187
      22A     -0.062635    23A     -0.035547    24A     -0.021368
      25A      0.002246

  @DF-RHF Final Energy:  -640.88438876962141

   => Energetics <=

    Nuclear Repulsion Energy =            258.4869974425724308
    One-Electron Energy =               -1423.8280569254200145
    Two-Electron Energy =                 524.4566707132262309
    Total Energy =                       -640.8843887696214097
  Basis Set: (AUG-CC-PVTZ AUX)
    Blend: AUG-CC-PVTZ-RI
    Molecular point group: c1

    Geometry (in Angstrom), charge = -2, multiplicity = 1:

       Center              X                  Y                   Z               Mass
    ------------   -----------------  -----------------  -----------------  -----------------
         P            0.139697728345    -0.080178857089    -0.027696458919    30.973761998420
         O           -1.401273271655     0.812287142911    -0.031192458919    15.994914619570
         O            0.051146028345    -0.807843857089    -1.156395558919    15.994914619570
         O            0.034060728345    -0.911883857089     1.271067541081    15.994914619570
         O            1.172314728345     1.059161142911    -0.027979458919    15.994914619570
         H           -2.011923271655     0.056243142911    -0.029623458919     1.007825032230

  Basis Set: AUG-CC-PVTZ
    Blend: AUG-CC-PVTZ
  Basis Set: (AUG-CC-PVTZ AUX)
    Blend: AUG-CC-PVTZ-JKFIT
	 Reference Energy          =    -640.8843887696214097 [Eh]
	 Singles Energy            =      -0.0000000000000000 [Eh]
	 Same-Spin Energy          =      -0.3374237567922458 [Eh]
	 Opposite-Spin Energy      =      -0.9293360391950529 [Eh]
	 Correlation Energy        =      -1.2667597959872987 [Eh]
	 Total Energy              =    -642.1511485656087643 [Eh]

	 ================> DF-SCS-MP2 Energies <==================
	-----------------------------------------------------------
	 SCS Same-Spin Scale       =       0.3333333333333333 [-]
	 SCS Opposite-Spin Scale   =       1.2000000000000000 [-]
	 SCS Same-Spin Energy      =      -0.1124745855974153 [Eh]
	 SCS Opposite-Spin Energy  =      -1.1152032470340634 [Eh]
	 SCS Correlation Energy    =      -1.2276778326314786 [Eh]
	 SCS Total Energy          =    -642.1120666022528667 [Eh]
	-----------------------------------------------------------

  Dipole Moment: [D]
     X:    -2.3514      Y:    -0.5870      Z:    -1.1888     Total:     2.6994

*** Psi4 exiting successfully. Buy a developer a beer!
