                               Psi4 1.3.2 release

  ==> Input File <==

--------------------------------------------------------------------------
#psi4
#
memory 32 gb

molecule  {
-2 1
  P        0.1641090    -0.0635590     0.0002810
  O       -1.3768620     0.8289070    -0.0032150
  O        0.0595969    -0.9216816    -1.2812573
  O        0.0584720    -0.8952640     1.2990450
  O        1.1967260     1.0757810    -0.0000020
  H       -1.9875120     0.0728630    -0.0016460
units angstrom
no_reorient  #important for SAPT in psi4, default
symmetry c1  #important for SAPT in psi4, default
}

set PROPERTIES_ORIGIN ["COM"]
properties('MP2/aug-cc-pvtz', properties = ['dipole'])
--------------------------------------------------------------------------

    Molecular point group: c1
  Charge       = -2
  Multiplicity = 1
  Basis Set: AUG-CC-PVTZ
    Blend: AUG-CC-PVTZ
  Basis Set: (AUG-CC-PVTZ AUX)
    Blend: AUG-CC-PVTZ-JKFIT

    Orbital Energies [Eh]
    ---------------------

    Doubly Occupied:

       1A    -79.657777     2A    -20.190506     3A    -20.102487
       4A    -20.100974     5A    -20.099219     6A     -7.171993
       7A     -5.071408     8A     -5.069070     9A     -5.069045
      10A     -0.973528    11A     -0.899261    12A     -0.843040
      13A     -0.837933    14A     -0.337087    15A     -0.269106
      16A     -0.209104    17A     -0.188736    18A     -0.164325
      19A     -0.132508    20A     -0.078039    21A     -0.073605
      22A     -0.070698    23A     -0.040418    24A     -0.030292
      25A     -0.008240

  @DF-RHF Final Energy:  -640.91728387210856

   => Energetics <=

    Nuclear Repulsion Energy =            249.7607779469113893
    One-Electron Energy =               -1405.9793264684990390
    Two-Electron Energy =                 515.3012646494792079
    Total Energy =                       -640.9172838721085554
  Basis Set: (AUG-CC-PVTZ AUX)
    Blend: AUG-CC-PVTZ-RI
    Molecular point group: c1

    Geometry (in Angstrom), charge = -2, multiplicity = 1:

       Center              X                  Y                   Z               Mass
    ------------   -----------------  -----------------  -----------------  -----------------
         P            0.142358023488    -0.058434056233    -0.002221071001    30.973761998420
         O           -1.398612976512     0.834031943767    -0.005717071001    15.994914619570
         O            0.037845923488    -0.916556656233    -1.283759371001    15.994914619570
         O            0.036721023488    -0.890139056233     1.296542928999    15.994914619570
         O            1.174975023488     1.080905943767    -0.002504071001    15.994914619570
         H           -2.009262976512     0.077987943767    -0.004148071001     1.007825032230

  Basis Set: AUG-CC-PVTZ
    Blend: AUG-CC-PVTZ
  Basis Set: (AUG-CC-PVTZ AUX)
    Blend: AUG-CC-PVTZ-JKFIT
	 Reference Energy          =    -640.9172838721085554 [Eh]
	 Singles Energy            =      -0.0000000000000000 [Eh]
	 Same-Spin Energy          =      -0.3409283622745688 [Eh]
	 Opposite-Spin Energy      =      -0.9382889077402693 [Eh]
	 Correlation Energy        =      -1.2792172700148381 [Eh]
	 Total Energy              =    -642.1965011421233385 [Eh]

	 ================> DF-SCS-MP2 Energies <==================
	-----------------------------------------------------------
	 SCS Same-Spin Scale       =       0.3333333333333333 [-]
	 SCS Opposite-Spin Scale   =       1.2000000000000000 [-]
	 SCS Same-Spin Energy      =      -0.1136427874248563 [Eh]
	 SCS Opposite-Spin Energy  =      -1.1259466892883232 [Eh]
	 SCS Correlation Energy    =      -1.2395894767131794 [Eh]
	 SCS Total Energy          =    -642.1568733488217049 [Eh]
	-----------------------------------------------------------

  Dipole Moment: [D]
     X:    -2.3278      Y:     0.2387      Z:    -0.0396     Total:     2.3403

*** Psi4 exiting successfully. Buy a developer a beer!
