                               Psi4 1.3.2 release

  ==> Input File <==

--------------------------------------------------------------------------
#psi4
#
memory 32 gb

molecule  {
-2 1
  P        0.1641090    -0.0635590     0.0002810
  O       -1.3686895     0.8425814     0.0234715
  O        0.0623980    -0.8993590    -1.2961490
  O        0.0584720    -0.8952640     1.2990450
  O        1.1967260     1.0757810    -0.0000020
  H       -1.9875120     0.0728630    -0.0016460
units angstrom
no_reorient  #important for SAPT in psi4, default
symmetry c1  #important for SAPT in psi4, default
}

set PROPERTIES_ORIGIN ["COM"]
properties('MP2/aug-cc-pvtz', properties = ['dipole'])
--------------------------------------------------------------------------

    Molecular point group: c1
  Charge       = -2
  Multiplicity = 1
  Basis Set: AUG-CC-PVTZ
    Blend: AUG-CC-PVTZ
  Basis Set: (AUG-CC-PVTZ AUX)
    Blend: AUG-CC-PVTZ-JKFIT

    Orbital Energies [Eh]
    ---------------------

    Doubly Occupied:

       1A    -79.657746     2A    -20.192152     3A    -20.102489
       4A    -20.100609     5A    -20.100115     6A     -7.171980
       7A     -5.071403     8A     -5.069073     9A     -5.069006
      10A     -0.970971    11A     -0.897829    12A     -0.842002
      13A     -0.839441    14A     -0.333907    15A     -0.267563
      16A     -0.208905    17A     -0.189143    18A     -0.163614
      19A     -0.132602    20A     -0.077754    21A     -0.073953
      22A     -0.070603    23A     -0.039478    24A     -0.031338
      25A     -0.008620

  @DF-RHF Final Energy:  -640.91591735651934

   => Energetics <=

    Nuclear Repulsion Energy =            249.6987888127874271
    One-Electron Energy =               -1405.8648182058491329
    Two-Electron Energy =                 515.2501120365424185
    Total Energy =                       -640.9159173565193441
  Basis Set: (AUG-CC-PVTZ AUX)
    Blend: AUG-CC-PVTZ-RI
    Molecular point group: c1

    Geometry (in Angstrom), charge = -2, multiplicity = 1:

       Center              X                  Y                   Z               Mass
    ------------   -----------------  -----------------  -----------------  -----------------
         P            0.140528933065    -0.064434071536    -0.004187039845    30.973761998420
         O           -1.392269566935     0.841706328464     0.019003460155    15.994914619570
         O            0.038817933065    -0.900234071536    -1.300617039845    15.994914619570
         O            0.034891933065    -0.896139071536     1.294576960155    15.994914619570
         O            1.173145933065     1.074905928464    -0.004470039845    15.994914619570
         H           -2.011092066935     0.071987928464    -0.006114039845     1.007825032230

  Basis Set: AUG-CC-PVTZ
    Blend: AUG-CC-PVTZ
  Basis Set: (AUG-CC-PVTZ AUX)
    Blend: AUG-CC-PVTZ-JKFIT
	 Reference Energy          =    -640.9159173565193441 [Eh]
	 Singles Energy            =      -0.0000000000000000 [Eh]
	 Same-Spin Energy          =      -0.3411640650968578 [Eh]
	 Opposite-Spin Energy      =      -0.9388893112376631 [Eh]
	 Correlation Energy        =      -1.2800533763345210 [Eh]
	 Total Energy              =    -642.1959707328538798 [Eh]

	 ================> DF-SCS-MP2 Energies <==================
	-----------------------------------------------------------
	 SCS Same-Spin Scale       =       0.3333333333333333 [-]
	 SCS Opposite-Spin Scale   =       1.2000000000000000 [-]
	 SCS Same-Spin Energy      =      -0.1137213550322859 [Eh]
	 SCS Opposite-Spin Energy  =      -1.1266671734851956 [Eh]
	 SCS Correlation Energy    =      -1.2403885285174816 [Eh]
	 SCS Total Energy          =    -642.1563058850367725 [Eh]
	-----------------------------------------------------------

  Dipole Moment: [D]
     X:    -2.3398      Y:     0.1778      Z:    -0.0462     Total:     2.3470

*** Psi4 exiting successfully. Buy a developer a beer!
