                               Psi4 1.3.2 release

  ==> Input File <==

--------------------------------------------------------------------------
#psi4
#
memory 32 gb

molecule  {
-2 1
  P        0.1943171    -0.0092363     0.0001583
  O       -1.3768620     0.8289070    -0.0032150
  O        0.0623980    -0.8993590    -1.2961490
  O        0.0584720    -0.8952640     1.2990450
  O        1.1967260     1.0757810    -0.0000020
  H       -1.9875120     0.0728630    -0.0016460
units angstrom
no_reorient  #important for SAPT in psi4, default
symmetry c1  #important for SAPT in psi4, default
}

set PROPERTIES_ORIGIN ["COM"]
properties('MP2/aug-cc-pvtz', properties = ['dipole'])
--------------------------------------------------------------------------

    Molecular point group: c1
  Charge       = -2
  Multiplicity = 1
  Basis Set: AUG-CC-PVTZ
    Blend: AUG-CC-PVTZ
  Basis Set: (AUG-CC-PVTZ AUX)
    Blend: AUG-CC-PVTZ-JKFIT

    Orbital Energies [Eh]
    ---------------------

    Doubly Occupied:

       1A    -79.657452     2A    -20.188482     3A    -20.113297
       4A    -20.095093     5A    -20.095067     6A     -7.172173
       7A     -5.071511     8A     -5.069624     9A     -5.068852
      10A     -0.973417    11A     -0.910275    12A     -0.847910
      13A     -0.821283    14A     -0.340056    15A     -0.266865
      16A     -0.211665    17A     -0.188164    18A     -0.166741
      19A     -0.131850    20A     -0.087120    21A     -0.074081
      22A     -0.065867    23A     -0.042749    24A     -0.021912
      25A     -0.004635

  @DF-RHF Final Energy:  -640.91212051372440

   => Energetics <=

    Nuclear Repulsion Energy =            249.7345900750586907
    One-Electron Energy =               -1405.9211400150832105
    Two-Electron Energy =                 515.2744294263002303
    Total Energy =                       -640.9121205137244033
  Basis Set: (AUG-CC-PVTZ AUX)
    Blend: AUG-CC-PVTZ-RI
    Molecular point group: c1

    Geometry (in Angstrom), charge = -2, multiplicity = 1:

       Center              X                  Y                   Z               Mass
    ------------   -----------------  -----------------  -----------------  -----------------
         P            0.162348854527    -0.025366045574     0.000177996504    30.973761998420
         O           -1.408830245473     0.812777254426    -0.003195303496    15.994914619570
         O            0.030429754527    -0.915488745574    -1.296129303496    15.994914619570
         O            0.026503754527    -0.911393745574     1.299064696504    15.994914619570
         O            1.164757754527     1.059651254426     0.000017696504    15.994914619570
         H           -2.019480245473     0.056733254426    -0.001626303496     1.007825032230

  Basis Set: AUG-CC-PVTZ
    Blend: AUG-CC-PVTZ
  Basis Set: (AUG-CC-PVTZ AUX)
    Blend: AUG-CC-PVTZ-JKFIT
	 Reference Energy          =    -640.9121205137244033 [Eh]
	 Singles Energy            =      -0.0000000000000000 [Eh]
	 Same-Spin Energy          =      -0.3408863099393694 [Eh]
	 Opposite-Spin Energy      =      -0.9382856901328160 [Eh]
	 Correlation Energy        =      -1.2791720000721853 [Eh]
	 Total Energy              =    -642.1912925137966113 [Eh]

	 ================> DF-SCS-MP2 Energies <==================
	-----------------------------------------------------------
	 SCS Same-Spin Scale       =       0.3333333333333333 [-]
	 SCS Opposite-Spin Scale   =       1.2000000000000000 [-]
	 SCS Same-Spin Energy      =      -0.1136287699797898 [Eh]
	 SCS Opposite-Spin Energy  =      -1.1259428281593793 [Eh]
	 SCS Correlation Energy    =      -1.2395715981391691 [Eh]
	 SCS Total Energy          =    -642.1516921118635537 [Eh]
	-----------------------------------------------------------

  Dipole Moment: [D]
     X:    -1.8987      Y:     0.9591      Z:    -0.0040     Total:     2.1272

*** Psi4 exiting successfully. Buy a developer a beer!
