                               Psi4 1.3.2 release

  ==> Input File <==

--------------------------------------------------------------------------
#psi4
#
memory 32 gb

molecule  {
-2 1
  P        0.1641090    -0.0635590     0.0002810
  O       -1.3768620     0.8289070    -0.0032150
  O        0.0798249    -0.7603204    -1.3770560
  O        0.0584720    -0.8952640     1.2990450
  O        1.1967260     1.0757810    -0.0000020
  H       -1.9875120     0.0728630    -0.0016460
units angstrom
no_reorient  #important for SAPT in psi4, default
symmetry c1  #important for SAPT in psi4, default
}

set PROPERTIES_ORIGIN ["COM"]
properties('MP2/aug-cc-pvtz', properties = ['dipole'])
--------------------------------------------------------------------------

    Molecular point group: c1
  Charge       = -2
  Multiplicity = 1
  Basis Set: AUG-CC-PVTZ
    Blend: AUG-CC-PVTZ
  Basis Set: (AUG-CC-PVTZ AUX)
    Blend: AUG-CC-PVTZ-JKFIT

    Orbital Energies [Eh]
    ---------------------

    Doubly Occupied:

       1A    -79.657786     2A    -20.186813     3A    -20.110730
       4A    -20.100068     5A    -20.094126     6A     -7.172051
       7A     -5.071491     8A     -5.069317     9A     -5.068877
      10A     -0.971979    11A     -0.898140    12A     -0.847410
      13A     -0.834953    14A     -0.334957    15A     -0.268265
      16A     -0.207679    17A     -0.190660    18A     -0.160538
      19A     -0.134042    20A     -0.077150    21A     -0.075786
      22A     -0.069028    23A     -0.038533    24A     -0.031892
      25A     -0.007944

  @DF-RHF Final Energy:  -640.91394607967914

   => Energetics <=

    Nuclear Repulsion Energy =            249.8920737506517753
    One-Electron Energy =               -1406.2516092432201731
    Two-Electron Energy =                 515.4455894128891487
    Total Energy =                       -640.9139460796791354
  Basis Set: (AUG-CC-PVTZ AUX)
    Blend: AUG-CC-PVTZ-RI
    Molecular point group: c1

    Geometry (in Angstrom), charge = -2, multiplicity = 1:

       Center              X                  Y                   Z               Mass
    ------------   -----------------  -----------------  -----------------  -----------------
         P            0.138986400587    -0.085329899479     0.013746750374    30.973761998420
         O           -1.401984599413     0.807136100521     0.010250750374    15.994914619570
         O            0.054702300587    -0.782091299479    -1.363590249626    15.994914619570
         O            0.033349400587    -0.917034899479     1.312510750374    15.994914619570
         O            1.171603400587     1.054010100521     0.013463750374    15.994914619570
         H           -2.012634599413     0.051092100521     0.011819750374     1.007825032230

  Basis Set: AUG-CC-PVTZ
    Blend: AUG-CC-PVTZ
  Basis Set: (AUG-CC-PVTZ AUX)
    Blend: AUG-CC-PVTZ-JKFIT
	 Reference Energy          =    -640.9139460796791354 [Eh]
	 Singles Energy            =      -0.0000000000000000 [Eh]
	 Same-Spin Energy          =      -0.3411626922330091 [Eh]
	 Opposite-Spin Energy      =      -0.9387743044853969 [Eh]
	 Correlation Energy        =      -1.2799369967184060 [Eh]
	 Total Energy              =    -642.1938830763975830 [Eh]

	 ================> DF-SCS-MP2 Energies <==================
	-----------------------------------------------------------
	 SCS Same-Spin Scale       =       0.3333333333333333 [-]
	 SCS Opposite-Spin Scale   =       1.2000000000000000 [-]
	 SCS Same-Spin Energy      =      -0.1137208974110030 [Eh]
	 SCS Opposite-Spin Energy  =      -1.1265291653824763 [Eh]
	 SCS Correlation Energy    =      -1.2402500627934794 [Eh]
	 SCS Total Energy          =    -642.1541961424726424 [Eh]
	-----------------------------------------------------------

  Dipole Moment: [D]
     X:    -2.3877      Y:    -0.1308      Z:     0.2052     Total:     2.4001

*** Psi4 exiting successfully. Buy a developer a beer!
