                               Psi4 1.3.2 release

  ==> Input File <==

--------------------------------------------------------------------------
#psi4
#
memory 32 gb

molecule  {
-2 1
  P        0.1641090    -0.0635590     0.0002810
  O       -1.3600500     0.8559799     0.0501508
  O        0.0623980    -0.8993590    -1.2961490
  O        0.0584720    -0.8952640     1.2990450
  O        1.1967260     1.0757810    -0.0000020
  H       -1.9875120     0.0728630    -0.0016460
units angstrom
no_reorient  #important for SAPT in psi4, default
symmetry c1  #important for SAPT in psi4, default
}

set PROPERTIES_ORIGIN ["COM"]
properties('MP2/aug-cc-pvtz', properties = ['dipole'])
--------------------------------------------------------------------------

    Molecular point group: c1
  Charge       = -2
  Multiplicity = 1
  Basis Set: AUG-CC-PVTZ
    Blend: AUG-CC-PVTZ
  Basis Set: (AUG-CC-PVTZ AUX)
    Blend: AUG-CC-PVTZ-JKFIT

    Orbital Energies [Eh]
    ---------------------

    Doubly Occupied:

       1A    -79.657733     2A    -20.194341     3A    -20.104037
       4A    -20.099909     5A    -20.099312     6A     -7.171985
       7A     -5.071413     8A     -5.069074     9A     -5.069004
      10A     -0.968748    11A     -0.896539    12A     -0.842167
      13A     -0.839313    14A     -0.331165    15A     -0.265870
      16A     -0.208940    17A     -0.189208    18A     -0.163407
      19A     -0.132483    20A     -0.077871    21A     -0.074048
      22A     -0.070466    23A     -0.039292    24A     -0.031348
      25A     -0.008633

  @DF-RHF Final Energy:  -640.91383518272755

   => Energetics <=

    Nuclear Repulsion Energy =            249.6317394059659591
    One-Electron Energy =               -1405.7385410183276235
    Two-Electron Energy =                 515.1929664296342253
    Total Energy =                       -640.9138351827275528
  Basis Set: (AUG-CC-PVTZ AUX)
    Blend: AUG-CC-PVTZ-RI
    Molecular point group: c1

    Geometry (in Angstrom), charge = -2, multiplicity = 1:

       Center              X                  Y                   Z               Mass
    ------------   -----------------  -----------------  -----------------  -----------------
         P            0.139088892723    -0.066667346672    -0.008633971764    30.973761998420
         O           -1.385070107277     0.852871553328     0.041235828236    15.994914619570
         O            0.037377892723    -0.902467346672    -1.305063971764    15.994914619570
         O            0.033451892723    -0.898372346672     1.290130028236    15.994914619570
         O            1.171705892723     1.072672653328    -0.008916971764    15.994914619570
         H           -2.012532107277     0.069754653328    -0.010560971764     1.007825032230

  Basis Set: AUG-CC-PVTZ
    Blend: AUG-CC-PVTZ
  Basis Set: (AUG-CC-PVTZ AUX)
    Blend: AUG-CC-PVTZ-JKFIT
	 Reference Energy          =    -640.9138351827275528 [Eh]
	 Singles Energy            =      -0.0000000000000000 [Eh]
	 Same-Spin Energy          =      -0.3414121072920472 [Eh]
	 Opposite-Spin Energy      =      -0.9395273261699975 [Eh]
	 Correlation Energy        =      -1.2809394334620445 [Eh]
	 Total Energy              =    -642.1947746161896475 [Eh]

	 ================> DF-SCS-MP2 Energies <==================
	-----------------------------------------------------------
	 SCS Same-Spin Scale       =       0.3333333333333333 [-]
	 SCS Opposite-Spin Scale   =       1.2000000000000000 [-]
	 SCS Same-Spin Energy      =      -0.1138040357640157 [Eh]
	 SCS Opposite-Spin Energy  =      -1.1274327914039970 [Eh]
	 SCS Correlation Energy    =      -1.2412368271680128 [Eh]
	 SCS Total Energy          =    -642.1550720098955480 [Eh]
	-----------------------------------------------------------

  Dipole Moment: [D]
     X:    -2.3424      Y:     0.1698      Z:    -0.0891     Total:     2.3503

*** Psi4 exiting successfully. Buy a developer a beer!
