                               Psi4 1.4a3.dev225

  ==> Input File <==

--------------------------------------------------------------------------
#psi4
#
memory 32 gb

molecule  {
-2 1
  P        0.1336040    -0.0000010     0.0669700
  O       -1.2440704     0.0000138    -0.9373216
  O       -0.5109990    -0.0000200     1.4686910
  O        0.8843750     1.2916960    -0.3037030
  O        0.8843730    -1.2916890    -0.3037370
  H       -1.9842050     0.0000030    -0.3017280
units angstrom
no_reorient  #important for SAPT in psi4, default
symmetry c1  #important for SAPT in psi4, default
}

set PROPERTIES_ORIGIN ["COM"]
properties('MP2/aug-cc-pvtz', properties = ['dipole'])
--------------------------------------------------------------------------

    Molecular point group: c1
  Charge       = -2
  Multiplicity = 1
  Basis Set: AUG-CC-PVTZ
    Blend: AUG-CC-PVTZ
  Basis Set: (AUG-CC-PVTZ AUX)
    Blend: AUG-CC-PVTZ-JKFIT

    Orbital Energies [Eh]
    ---------------------

    Doubly Occupied:

       1A    -79.648196     2A    -20.196116     3A    -20.097588
       4A    -20.090393     5A    -20.090375     6A     -7.163403
       7A     -5.062816     8A     -5.060696     9A     -5.060447
      10A     -0.990708    11A     -0.896375    12A     -0.837797
      13A     -0.831278    14A     -0.356730    15A     -0.271425
      16A     -0.212893    17A     -0.195410    18A     -0.159795
      19A     -0.131516    20A     -0.071955    21A     -0.070437
      22A     -0.070061    23A     -0.033847    24A     -0.023185
      25A     -0.000661

  @DF-RHF Final Energy:  -640.92125872353427

   => Energetics <=

    Nuclear Repulsion Energy =            252.4697185204553307
    One-Electron Energy =               -1411.5337498489436712
    Two-Electron Energy =                 518.1427726049541889
    Total Energy =                       -640.9212587235342653
  Basis Set: (AUG-CC-PVTZ AUX)
    Blend: AUG-CC-PVTZ-RI
    Molecular point group: c1

    Geometry (in Angstrom), charge = -2, multiplicity = 1:

       Center              X                  Y                   Z               Mass
    ------------   -----------------  -----------------  -----------------  -----------------
         P            0.109039134709    -0.000000842078     0.061202243916    30.973761998420
         O           -1.268635265291     0.000013957922    -0.943089356084    15.994914619570
         O           -0.535563865291    -0.000019842078     1.462923243916    15.994914619570
         O            0.859810134709     1.291696157922    -0.309470756084    15.994914619570
         O            0.859808134709    -1.291688842078    -0.309504756084    15.994914619570
         H           -2.008769865291     0.000003157922    -0.307495756084     1.007825032230

  Basis Set: AUG-CC-PVTZ
    Blend: AUG-CC-PVTZ
  Basis Set: (AUG-CC-PVTZ AUX)
    Blend: AUG-CC-PVTZ-JKFIT
	 Reference Energy          =    -640.9212587235342653 [Eh]
	 Singles Energy            =      -0.0000000000000000 [Eh]
	 Same-Spin Energy          =      -0.3402357282611971 [Eh]
	 Opposite-Spin Energy      =      -0.9357162410139743 [Eh]
	 Correlation Energy        =      -1.2759519692751715 [Eh]
	 Total Energy              =    -642.1972106928094490 [Eh]

	 ================> DF-SCS-MP2 Energies <==================
	-----------------------------------------------------------
	 SCS Same-Spin Scale       =       0.3333333333333333 [-]
	 SCS Opposite-Spin Scale   =       1.2000000000000000 [-]
	 SCS Same-Spin Energy      =      -0.1134119094203990 [Eh]
	 SCS Opposite-Spin Energy  =      -1.1228594892167691 [Eh]
	 SCS Correlation Energy    =      -1.2362713986371683 [Eh]
	 SCS Total Energy          =    -642.1575301221714653 [Eh]
	-----------------------------------------------------------

  Dipole Moment: [D]
     X:    -2.9403      Y:     0.0000      Z:    -0.6998     Total:     3.0224

*** Psi4 exiting successfully. Buy a developer a beer!
