                               Psi4 1.3.2 release

  ==> Input File <==

--------------------------------------------------------------------------
#psi4
#
memory 32 gb

molecule  {
0 1
  O       -2.7436610    -0.2479860    -0.0003050
  C        0.8706510    -0.0504500     0.0000920
  C        2.0389000    -0.9960240     0.0002020
  C        1.2510070     1.4052230     0.0001730
  C       -0.3937780    -0.5296350    -0.0000590
  C       -1.6246660     0.2665400    -0.0001750
  H        2.6694560    -0.8265420     0.8807060
  H        2.6696250    -0.8265350    -0.8801800
  H        1.7156570    -2.0395440     0.0001660
  H        1.8655830     1.6274140    -0.8794340
  H        1.8653250     1.6273830     0.8799690
  H        0.3995010     2.0850070     0.0000600
  H       -0.5614015    -1.6053591     0.0499000
  H       -1.5271570     1.3681380    -0.0001420
units angstrom
no_reorient  #important for SAPT in psi4, default
symmetry c1  #important for SAPT in psi4, default
}

set PROPERTIES_ORIGIN ["COM"]
properties('MP2/aug-cc-pvtz', properties = ['dipole'])
--------------------------------------------------------------------------

    Molecular point group: c1
  Charge       = 0
  Multiplicity = 1
  Basis Set: AUG-CC-PVTZ
    Blend: AUG-CC-PVTZ
  Basis Set: (AUG-CC-PVTZ AUX)
    Blend: AUG-CC-PVTZ-JKFIT

    Orbital Energies [Eh]
    ---------------------

    Doubly Occupied:

       1A    -20.544369     2A    -11.327471     3A    -11.283276
       4A    -11.247405     5A    -11.243235     6A    -11.235940
       7A     -1.367168     8A     -1.124353     9A     -0.985666
      10A     -0.967684    11A     -0.830605    12A     -0.744731
      13A     -0.669133    14A     -0.640630    15A     -0.617639
      16A     -0.600426    17A     -0.560446    18A     -0.557279
      19A     -0.545560    20A     -0.522656    21A     -0.516801
      22A     -0.419080    23A     -0.367443

  @DF-RHF Final Energy:  -268.93615202448973

   => Energetics <=

    Nuclear Repulsion Energy =            216.7158386155072947
    One-Electron Energy =                -793.4659895636515330
    Two-Electron Energy =                 307.8139989236544807
    Total Energy =                       -268.9361520244897292
  Basis Set: (AUG-CC-PVTZ AUX)
    Blend: AUG-CC-PVTZ-RI
    Molecular point group: c1

    Geometry (in Angstrom), charge = 0, multiplicity = 1:

       Center              X                  Y                   Z               Mass
    ------------   -----------------  -----------------  -----------------  -----------------
         O           -2.636454810821    -0.231358432535    -0.000892240533    15.994914619570
         C            0.977857189179    -0.033822432535    -0.000495240533    12.000000000000
         C            2.146106189179    -0.979396432535    -0.000385240533    12.000000000000
         C            1.358213189179     1.421850567465    -0.000414240533    12.000000000000
         C           -0.286571810821    -0.513007432535    -0.000646240533    12.000000000000
         C           -1.517459810821     0.283167567465    -0.000762240533    12.000000000000
         H            2.776662189179    -0.809914432535     0.880118759467     1.007825032230
         H            2.776831189179    -0.809907432535    -0.880767240533     1.007825032230
         H            1.822863189179    -2.022916432535    -0.000421240533     1.007825032230
         H            1.972789189179     1.644041567465    -0.880021240533     1.007825032230
         H            1.972531189179     1.644010567465     0.879381759467     1.007825032230
         H            0.506707189179     2.101634567465    -0.000527240533     1.007825032230
         H           -0.454195310821    -1.588731532535     0.049312759467     1.007825032230
         H           -1.419950810821     1.384765567465    -0.000729240533     1.007825032230

  Basis Set: AUG-CC-PVTZ
    Blend: AUG-CC-PVTZ
  Basis Set: (AUG-CC-PVTZ AUX)
    Blend: AUG-CC-PVTZ-JKFIT
	 Reference Energy          =    -268.9361520244897292 [Eh]
	 Singles Energy            =      -0.0000000000000000 [Eh]
	 Same-Spin Energy          =      -0.2712102203044507 [Eh]
	 Opposite-Spin Energy      =      -0.9159193277454497 [Eh]
	 Correlation Energy        =      -1.1871295480499005 [Eh]
	 Total Energy              =    -270.1232815725396108 [Eh]

	 ================> DF-SCS-MP2 Energies <==================
	-----------------------------------------------------------
	 SCS Same-Spin Scale       =       0.3333333333333333 [-]
	 SCS Opposite-Spin Scale   =       1.2000000000000000 [-]
	 SCS Same-Spin Energy      =      -0.0904034067681502 [Eh]
	 SCS Opposite-Spin Energy  =      -1.0991031932945396 [Eh]
	 SCS Correlation Energy    =      -1.1895066000626899 [Eh]
	 SCS Total Energy          =    -270.1256586245524431 [Eh]
	-----------------------------------------------------------

  Dipole Moment: [D]
     X:     4.1138      Y:     0.9780      Z:     0.0324     Total:     4.2286

*** Psi4 exiting successfully. Buy a developer a beer!
