                               Psi4 1.3.2 release

  ==> Input File <==

--------------------------------------------------------------------------
#psi4
#
memory 32 gb

molecule  {
0 1
  O       -2.7436610    -0.2479860    -0.0003050
  C        0.8706510    -0.0504500     0.0000920
  C        2.0389000    -0.9960240     0.0002020
  C        1.2510070     1.4052230     0.0001730
  C       -0.3937780    -0.5296350    -0.0000590
  C       -1.6246660     0.2665400    -0.0001750
  H        2.6694560    -0.8265420     0.8807060
  H        2.6696250    -0.8265350    -0.8801800
  H        1.7156570    -2.0395440     0.0001660
  H        1.8655830     1.6274140    -0.8794340
  H        1.8653250     1.6273830     0.8799690
  H        0.3995010     2.0850070     0.0000600
  H       -0.5613960    -1.6053580    -0.0001000
  H       -1.5271677     1.3681360     0.0998580
units angstrom
no_reorient  #important for SAPT in psi4, default
symmetry c1  #important for SAPT in psi4, default
}

set PROPERTIES_ORIGIN ["COM"]
properties('MP2/aug-cc-pvtz', properties = ['dipole'])
--------------------------------------------------------------------------

    Molecular point group: c1
  Charge       = 0
  Multiplicity = 1
  Basis Set: AUG-CC-PVTZ
    Blend: AUG-CC-PVTZ
  Basis Set: (AUG-CC-PVTZ AUX)
    Blend: AUG-CC-PVTZ-JKFIT

    Orbital Energies [Eh]
    ---------------------

    Doubly Occupied:

       1A    -20.544587     2A    -11.327969     3A    -11.283236
       4A    -11.247330     5A    -11.243230     6A    -11.235933
       7A     -1.367316     8A     -1.124341     9A     -0.985657
      10A     -0.967642    11A     -0.830102    12A     -0.744277
      13A     -0.668976    14A     -0.640744    15A     -0.617615
      16A     -0.600329    17A     -0.560411    18A     -0.557329
      19A     -0.545584    20A     -0.522697    21A     -0.516805
      22A     -0.418860    23A     -0.367491

  @DF-RHF Final Energy:  -268.93574116027833

   => Energetics <=

    Nuclear Repulsion Energy =            216.7025484051693240
    One-Electron Energy =                -793.4396554990803452
    Two-Electron Energy =                 307.8013659336327237
    Total Energy =                       -268.9357411602783259
  Basis Set: (AUG-CC-PVTZ AUX)
    Blend: AUG-CC-PVTZ-RI
    Molecular point group: c1

    Geometry (in Angstrom), charge = 0, multiplicity = 1:

       Center              X                  Y                   Z               Mass
    ------------   -----------------  -----------------  -----------------  -----------------
         O           -2.636454748475    -0.231358421745    -0.001491725917    15.994914619570
         C            0.977857251525    -0.033822421745    -0.001094725917    12.000000000000
         C            2.146106251525    -0.979396421745    -0.000984725917    12.000000000000
         C            1.358213251525     1.421850578255    -0.001013725917    12.000000000000
         C           -0.286571748475    -0.513007421745    -0.001245725917    12.000000000000
         C           -1.517459748475     0.283167578255    -0.001361725917    12.000000000000
         H            2.776662251525    -0.809914421745     0.879519274083     1.007825032230
         H            2.776831251525    -0.809907421745    -0.881366725917     1.007825032230
         H            1.822863251525    -2.022916421745    -0.001020725917     1.007825032230
         H            1.972789251525     1.644041578255    -0.880620725917     1.007825032230
         H            1.972531251525     1.644010578255     0.878782274083     1.007825032230
         H            0.506707251525     2.101634578255    -0.001126725917     1.007825032230
         H           -0.454189748475    -1.588730421745    -0.001286725917     1.007825032230
         H           -1.419961448475     1.384763578255     0.098671274083     1.007825032230

  Basis Set: AUG-CC-PVTZ
    Blend: AUG-CC-PVTZ
  Basis Set: (AUG-CC-PVTZ AUX)
    Blend: AUG-CC-PVTZ-JKFIT
	 Reference Energy          =    -268.9357411602783259 [Eh]
	 Singles Energy            =      -0.0000000000000000 [Eh]
	 Same-Spin Energy          =      -0.2712408944267485 [Eh]
	 Opposite-Spin Energy      =      -0.9159734484784539 [Eh]
	 Correlation Energy        =      -1.1872143429052024 [Eh]
	 Total Energy              =    -270.1229555031835048 [Eh]

	 ================> DF-SCS-MP2 Energies <==================
	-----------------------------------------------------------
	 SCS Same-Spin Scale       =       0.3333333333333333 [-]
	 SCS Opposite-Spin Scale   =       1.2000000000000000 [-]
	 SCS Same-Spin Energy      =      -0.0904136314755828 [Eh]
	 SCS Opposite-Spin Energy  =      -1.0991681381741445 [Eh]
	 SCS Correlation Energy    =      -1.1895817696497273 [Eh]
	 SCS Total Energy          =    -270.1253229299280747 [Eh]
	-----------------------------------------------------------

  Dipole Moment: [D]
     X:     4.1105      Y:     0.9690      Z:     0.0377     Total:     4.2233

*** Psi4 exiting successfully. Buy a developer a beer!
