                               Psi4 1.3.2 release

  ==> Input File <==

--------------------------------------------------------------------------
#psi4
#
memory 32 gb

molecule  {
0 1
  O       -2.7436610    -0.2479860    -0.0003050
  C        0.8706510    -0.0504500     0.0000920
  C        2.0389000    -0.9960240     0.0002020
  C        1.2510070     1.4052230     0.0001730
  C       -0.3937836    -0.5296362     0.0499410
  C       -1.6246660     0.2665400    -0.0001750
  H        2.6694560    -0.8265420     0.8807060
  H        2.6696250    -0.8265350    -0.8801800
  H        1.7156570    -2.0395440     0.0001660
  H        1.8655830     1.6274140    -0.8794340
  H        1.8653250     1.6273830     0.8799690
  H        0.3995010     2.0850070     0.0000600
  H       -0.5613960    -1.6053580    -0.0001000
  H       -1.5271570     1.3681380    -0.0001420
units angstrom
no_reorient  #important for SAPT in psi4, default
symmetry c1  #important for SAPT in psi4, default
}

set PROPERTIES_ORIGIN ["COM"]
properties('MP2/aug-cc-pvtz', properties = ['dipole'])
--------------------------------------------------------------------------

    Molecular point group: c1
  Charge       = 0
  Multiplicity = 1
  Basis Set: AUG-CC-PVTZ
    Blend: AUG-CC-PVTZ
  Basis Set: (AUG-CC-PVTZ AUX)
    Blend: AUG-CC-PVTZ-JKFIT

    Orbital Energies [Eh]
    ---------------------

    Doubly Occupied:

       1A    -20.544323     2A    -11.327516     3A    -11.283560
       4A    -11.247459     5A    -11.243299     6A    -11.236032
       7A     -1.367113     8A     -1.124283     9A     -0.985547
      10A     -0.967745    11A     -0.830385    12A     -0.744641
      13A     -0.669073    14A     -0.640492    15A     -0.617691
      16A     -0.600380    17A     -0.560510    18A     -0.557261
      19A     -0.545416    20A     -0.522516    21A     -0.516902
      22A     -0.418936    23A     -0.367413

  @DF-RHF Final Energy:  -268.93566193761569

   => Energetics <=

    Nuclear Repulsion Energy =            216.6936521854814259
    One-Electron Energy =                -793.4216468607788784
    Two-Electron Energy =                 307.7923327376817042
    Total Energy =                       -268.9356619376156914
  Basis Set: (AUG-CC-PVTZ AUX)
    Blend: AUG-CC-PVTZ-RI
    Molecular point group: c1

    Geometry (in Angstrom), charge = 0, multiplicity = 1:

       Center              X                  Y                   Z               Mass
    ------------   -----------------  -----------------  -----------------  -----------------
         O           -2.636454077312    -0.231358274413    -0.007430724917    15.994914619570
         C            0.977857922688    -0.033822274413    -0.007033724917    12.000000000000
         C            2.146106922688    -0.979396274413    -0.006923724917    12.000000000000
         C            1.358213922688     1.421850725587    -0.006952724917    12.000000000000
         C           -0.286576677312    -0.513008474413     0.042815275083    12.000000000000
         C           -1.517459077312     0.283167725587    -0.007300724917    12.000000000000
         H            2.776662922688    -0.809914274413     0.873580275083     1.007825032230
         H            2.776831922688    -0.809907274413    -0.887305724917     1.007825032230
         H            1.822863922688    -2.022916274413    -0.006959724917     1.007825032230
         H            1.972789922688     1.644041725587    -0.886559724917     1.007825032230
         H            1.972531922688     1.644010725587     0.872843275083     1.007825032230
         H            0.506707922688     2.101634725587    -0.007065724917     1.007825032230
         H           -0.454189077312    -1.588730274413    -0.007225724917     1.007825032230
         H           -1.419950077312     1.384765725587    -0.007267724917     1.007825032230

  Basis Set: AUG-CC-PVTZ
    Blend: AUG-CC-PVTZ
  Basis Set: (AUG-CC-PVTZ AUX)
    Blend: AUG-CC-PVTZ-JKFIT
	 Reference Energy          =    -268.9356619376156914 [Eh]
	 Singles Energy            =      -0.0000000000000000 [Eh]
	 Same-Spin Energy          =      -0.2712345644955302 [Eh]
	 Opposite-Spin Energy      =      -0.9159712270711946 [Eh]
	 Correlation Energy        =      -1.1872057915667247 [Eh]
	 Total Energy              =    -270.1228677291824170 [Eh]

	 ================> DF-SCS-MP2 Energies <==================
	-----------------------------------------------------------
	 SCS Same-Spin Scale       =       0.3333333333333333 [-]
	 SCS Opposite-Spin Scale   =       1.2000000000000000 [-]
	 SCS Same-Spin Energy      =      -0.0904115214985101 [Eh]
	 SCS Opposite-Spin Energy  =      -1.0991654724854334 [Eh]
	 SCS Correlation Energy    =      -1.1895769939839433 [Eh]
	 SCS Total Energy          =    -270.1252389315996538 [Eh]
	-----------------------------------------------------------

  Dipole Moment: [D]
     X:     4.1156      Y:     0.9794      Z:    -0.0316     Total:     4.2307

*** Psi4 exiting successfully. Buy a developer a beer!
