                               Psi4 1.3.2 release

  ==> Input File <==

--------------------------------------------------------------------------
#psi4
#
memory 32 gb

molecule  {
0 1
  O       -2.7436610    -0.2479860    -0.0003050
  C        0.8706510    -0.0504500     0.0000920
  C        2.0389000    -0.9960240     0.0002020
  C        1.2510070     1.4052230     0.0001730
  C       -0.3937780    -0.5296350    -0.0000590
  C       -1.6246660     0.2665400    -0.0001750
  H        2.6694560    -0.8265420     0.8807060
  H        2.6696250    -0.8265350    -0.8801800
  H        1.7156570    -2.0395440     0.0001660
  H        1.8655830     1.6274140    -0.8794340
  H        1.8653250     1.6273830     0.8799690
  H        0.3995010     2.0850070     0.0000600
  H       -0.5614070    -1.6053602     0.0999000
  H       -1.5271570     1.3681380    -0.0001420
units angstrom
no_reorient  #important for SAPT in psi4, default
symmetry c1  #important for SAPT in psi4, default
}

set PROPERTIES_ORIGIN ["COM"]
properties('MP2/aug-cc-pvtz', properties = ['dipole'])
--------------------------------------------------------------------------

    Molecular point group: c1
  Charge       = 0
  Multiplicity = 1
  Basis Set: AUG-CC-PVTZ
    Blend: AUG-CC-PVTZ
  Basis Set: (AUG-CC-PVTZ AUX)
    Blend: AUG-CC-PVTZ-JKFIT

    Orbital Energies [Eh]
    ---------------------

    Doubly Occupied:

       1A    -20.544372     2A    -11.327474     3A    -11.283369
       4A    -11.247454     5A    -11.243247     6A    -11.236256
       7A     -1.367158     8A     -1.124360     9A     -0.985579
      10A     -0.967705    11A     -0.830612    12A     -0.744328
      13A     -0.669156    14A     -0.640444    15A     -0.617696
      16A     -0.600297    17A     -0.560482    18A     -0.557193
      19A     -0.545508    20A     -0.522910    21A     -0.516254
      22A     -0.419092    23A     -0.367336

  @DF-RHF Final Energy:  -268.93568490687142

   => Energetics <=

    Nuclear Repulsion Energy =            216.7020165703297323
    One-Electron Energy =                -793.4388351828076793
    Two-Electron Energy =                 307.8011337056065031
    Total Energy =                       -268.9356849068714155
  Basis Set: (AUG-CC-PVTZ AUX)
    Blend: AUG-CC-PVTZ-RI
    Molecular point group: c1

    Geometry (in Angstrom), charge = 0, multiplicity = 1:

       Center              X                  Y                   Z               Mass
    ------------   -----------------  -----------------  -----------------  -----------------
         O           -2.636454744878    -0.231358419347    -0.001491725917    15.994914619570
         C            0.977857255122    -0.033822419347    -0.001094725917    12.000000000000
         C            2.146106255122    -0.979396419347    -0.000984725917    12.000000000000
         C            1.358213255122     1.421850580653    -0.001013725917    12.000000000000
         C           -0.286571744878    -0.513007419347    -0.001245725917    12.000000000000
         C           -1.517459744878     0.283167580653    -0.001361725917    12.000000000000
         H            2.776662255122    -0.809914419347     0.879519274083     1.007825032230
         H            2.776831255122    -0.809907419347    -0.881366725917     1.007825032230
         H            1.822863255122    -2.022916419347    -0.001020725917     1.007825032230
         H            1.972789255122     1.644041580653    -0.880620725917     1.007825032230
         H            1.972531255122     1.644010580653     0.878782274083     1.007825032230
         H            0.506707255122     2.101634580653    -0.001126725917     1.007825032230
         H           -0.454200744878    -1.588732619347     0.098713274083     1.007825032230
         H           -1.419950744878     1.384765580653    -0.001328725917     1.007825032230

  Basis Set: AUG-CC-PVTZ
    Blend: AUG-CC-PVTZ
  Basis Set: (AUG-CC-PVTZ AUX)
    Blend: AUG-CC-PVTZ-JKFIT
	 Reference Energy          =    -268.9356849068714155 [Eh]
	 Singles Energy            =      -0.0000000000000000 [Eh]
	 Same-Spin Energy          =      -0.2712317713122742 [Eh]
	 Opposite-Spin Energy      =      -0.9159622274918203 [Eh]
	 Correlation Energy        =      -1.1871939988040945 [Eh]
	 Total Energy              =    -270.1228789056755204 [Eh]

	 ================> DF-SCS-MP2 Energies <==================
	-----------------------------------------------------------
	 SCS Same-Spin Scale       =       0.3333333333333333 [-]
	 SCS Opposite-Spin Scale   =       1.2000000000000000 [-]
	 SCS Same-Spin Energy      =      -0.0904105904374247 [Eh]
	 SCS Opposite-Spin Energy  =      -1.0991546729901844 [Eh]
	 SCS Correlation Energy    =      -1.1895652634276090 [Eh]
	 SCS Total Energy          =    -270.1252501702990116 [Eh]
	-----------------------------------------------------------

  Dipole Moment: [D]
     X:     4.1149      Y:     0.9820      Z:     0.0642     Total:     4.2309

*** Psi4 exiting successfully. Buy a developer a beer!
