                               Psi4 1.3.2 release

  ==> Input File <==

--------------------------------------------------------------------------
#psi4
#
memory 32 gb

molecule  {
0 1
  O       -2.7436610    -0.2479860    -0.0003050
  C        0.8706510    -0.0504500     0.0000920
  C        2.0389000    -0.9960240     0.0002020
  C        1.2510070     1.4052230     0.0001730
  C       -0.3937892    -0.5296375     0.0999410
  C       -1.6246660     0.2665400    -0.0001750
  H        2.6694560    -0.8265420     0.8807060
  H        2.6696250    -0.8265350    -0.8801800
  H        1.7156570    -2.0395440     0.0001660
  H        1.8655830     1.6274140    -0.8794340
  H        1.8653250     1.6273830     0.8799690
  H        0.3995010     2.0850070     0.0000600
  H       -0.5613960    -1.6053580    -0.0001000
  H       -1.5271570     1.3681380    -0.0001420
units angstrom
no_reorient  #important for SAPT in psi4, default
symmetry c1  #important for SAPT in psi4, default
}

set PROPERTIES_ORIGIN ["COM"]
properties('MP2/aug-cc-pvtz', properties = ['dipole'])
--------------------------------------------------------------------------

    Molecular point group: c1
  Charge       = 0
  Multiplicity = 1
  Basis Set: AUG-CC-PVTZ
    Blend: AUG-CC-PVTZ
  Basis Set: (AUG-CC-PVTZ AUX)
    Blend: AUG-CC-PVTZ-JKFIT

    Orbital Energies [Eh]
    ---------------------

    Doubly Occupied:

       1A    -20.544190     2A    -11.327651     3A    -11.284502
       4A    -11.247672     5A    -11.243502     6A    -11.236620
       7A     -1.366944     8A     -1.124078     9A     -0.985098
      10A     -0.967948    11A     -0.829737    12A     -0.743975
      13A     -0.668913    14A     -0.639898    15A     -0.617899
      16A     -0.600122    17A     -0.560739    18A     -0.557121
      19A     -0.544934    20A     -0.522390    21A     -0.516607
      22A     -0.418520    23A     -0.367222

  @DF-RHF Final Energy:  -268.93372380685031

   => Energetics <=

    Nuclear Repulsion Energy =            216.6134810211278534
    One-Electron Energy =                -793.2618531412535958
    Two-Electron Energy =                 307.7146483132754042
    Total Energy =                       -268.9337238068503098
  Basis Set: (AUG-CC-PVTZ AUX)
    Blend: AUG-CC-PVTZ-RI
    Molecular point group: c1

    Geometry (in Angstrom), charge = 0, multiplicity = 1:

       Center              X                  Y                   Z               Mass
    ------------   -----------------  -----------------  -----------------  -----------------
         O           -2.636453277859    -0.231358088826    -0.014568694685    15.994914619570
         C            0.977858722141    -0.033822088826    -0.014171694685    12.000000000000
         C            2.146107722141    -0.979396088826    -0.014061694685    12.000000000000
         C            1.358214722141     1.421850911174    -0.014090694685    12.000000000000
         C           -0.286581477859    -0.513009588826     0.085677305315    12.000000000000
         C           -1.517458277859     0.283167911174    -0.014438694685    12.000000000000
         H            2.776663722141    -0.809914088826     0.866442305315     1.007825032230
         H            2.776832722141    -0.809907088826    -0.894443694685     1.007825032230
         H            1.822864722141    -2.022916088826    -0.014097694685     1.007825032230
         H            1.972790722141     1.644041911174    -0.893697694685     1.007825032230
         H            1.972532722141     1.644010911174     0.865705305315     1.007825032230
         H            0.506708722141     2.101634911174    -0.014203694685     1.007825032230
         H           -0.454188277859    -1.588730088826    -0.014363694685     1.007825032230
         H           -1.419949277859     1.384765911174    -0.014405694685     1.007825032230

  Basis Set: AUG-CC-PVTZ
    Blend: AUG-CC-PVTZ
  Basis Set: (AUG-CC-PVTZ AUX)
    Blend: AUG-CC-PVTZ-JKFIT
	 Reference Energy          =    -268.9337238068503098 [Eh]
	 Singles Energy            =      -0.0000000000000000 [Eh]
	 Same-Spin Energy          =      -0.2713304145983273 [Eh]
	 Opposite-Spin Energy      =      -0.9161875517558205 [Eh]
	 Correlation Energy        =      -1.1875179663541477 [Eh]
	 Total Energy              =    -270.1212417732044742 [Eh]

	 ================> DF-SCS-MP2 Energies <==================
	-----------------------------------------------------------
	 SCS Same-Spin Scale       =       0.3333333333333333 [-]
	 SCS Opposite-Spin Scale   =       1.2000000000000000 [-]
	 SCS Same-Spin Energy      =      -0.0904434715327758 [Eh]
	 SCS Opposite-Spin Energy  =      -1.0994250621069845 [Eh]
	 SCS Correlation Energy    =      -1.1898685336397603 [Eh]
	 SCS Total Energy          =    -270.1235923404900632 [Eh]
	-----------------------------------------------------------

  Dipole Moment: [D]
     X:     4.1219      Y:     0.9875      Z:    -0.0639     Total:     4.2390

*** Psi4 exiting successfully. Buy a developer a beer!
