                               Psi4 1.3.2 release

  ==> Input File <==

--------------------------------------------------------------------------
#psi4
#
memory 32 gb

molecule  {
0 1
  O       -2.7436610    -0.2479860    -0.0003050
  C        0.8706510    -0.0504500     0.0000920
  C        2.0389000    -0.9960240     0.0002020
  C        1.2510070     1.4052230     0.0001730
  C       -0.3938060    -0.5296412     0.2499410
  C       -1.6246660     0.2665400    -0.0001750
  H        2.6694560    -0.8265420     0.8807060
  H        2.6696250    -0.8265350    -0.8801800
  H        1.7156570    -2.0395440     0.0001660
  H        1.8655830     1.6274140    -0.8794340
  H        1.8653250     1.6273830     0.8799690
  H        0.3995010     2.0850070     0.0000600
  H       -0.5613960    -1.6053580    -0.0001000
  H       -1.5271570     1.3681380    -0.0001420
units angstrom
no_reorient  #important for SAPT in psi4, default
symmetry c1  #important for SAPT in psi4, default
}

set PROPERTIES_ORIGIN ["COM"]
properties('MP2/aug-cc-pvtz', properties = ['dipole'])
--------------------------------------------------------------------------

    Molecular point group: c1
  Charge       = 0
  Multiplicity = 1
  Basis Set: AUG-CC-PVTZ
    Blend: AUG-CC-PVTZ
  Basis Set: (AUG-CC-PVTZ AUX)
    Blend: AUG-CC-PVTZ-JKFIT

    Orbital Energies [Eh]
    ---------------------

    Doubly Occupied:

       1A    -20.543378     2A    -11.328561     3A    -11.290909
       4A    -11.249153     5A    -11.244892     6A    -11.240585
       7A     -1.365849     8A     -1.122736     9A     -0.981833
      10A     -0.969356    11A     -0.825490    12A     -0.739791
      13A     -0.667735    14A     -0.636151    15A     -0.619248
      16A     -0.598718    17A     -0.562275    18A     -0.556144
      19A     -0.541736    20A     -0.521675    21A     -0.513843
      22A     -0.415628    23A     -0.366028

  @DF-RHF Final Energy:  -268.91985782723799

   => Energetics <=

    Nuclear Repulsion Energy =            216.0636431524983436
    One-Electron Energy =                -792.1635769920816301
    Two-Electron Energy =                 307.1800760123452960
    Total Energy =                       -268.9198578272379905
  Basis Set: (AUG-CC-PVTZ AUX)
    Blend: AUG-CC-PVTZ-RI
    Molecular point group: c1

    Geometry (in Angstrom), charge = 0, multiplicity = 1:

       Center              X                  Y                   Z               Mass
    ------------   -----------------  -----------------  -----------------  -----------------
         O           -2.636450879502    -0.231357560616    -0.035982603990    15.994914619570
         C            0.977861120498    -0.033821560616    -0.035585603990    12.000000000000
         C            2.146110120498    -0.979395560616    -0.035475603990    12.000000000000
         C            1.358217120498     1.421851439384    -0.035504603990    12.000000000000
         C           -0.286595879502    -0.513012760616     0.214263396010    12.000000000000
         C           -1.517455879502     0.283168439384    -0.035852603990    12.000000000000
         H            2.776666120498    -0.809913560616     0.845028396010     1.007825032230
         H            2.776835120498    -0.809906560616    -0.915857603990     1.007825032230
         H            1.822867120498    -2.022915560616    -0.035511603990     1.007825032230
         H            1.972793120498     1.644042439384    -0.915111603990     1.007825032230
         H            1.972535120498     1.644011439384     0.844291396010     1.007825032230
         H            0.506711120498     2.101635439384    -0.035617603990     1.007825032230
         H           -0.454185879502    -1.588729560616    -0.035777603990     1.007825032230
         H           -1.419946879502     1.384766439384    -0.035819603990     1.007825032230

  Basis Set: AUG-CC-PVTZ
    Blend: AUG-CC-PVTZ
  Basis Set: (AUG-CC-PVTZ AUX)
    Blend: AUG-CC-PVTZ-JKFIT
	 Reference Energy          =    -268.9198578272379905 [Eh]
	 Singles Energy            =      -0.0000000000000000 [Eh]
	 Same-Spin Energy          =      -0.2720086734472756 [Eh]
	 Opposite-Spin Energy      =      -0.9179347097322829 [Eh]
	 Correlation Energy        =      -1.1899433831795585 [Eh]
	 Total Energy              =    -270.1098012104175723 [Eh]

	 ================> DF-SCS-MP2 Energies <==================
	-----------------------------------------------------------
	 SCS Same-Spin Scale       =       0.3333333333333333 [-]
	 SCS Opposite-Spin Scale   =       1.2000000000000000 [-]
	 SCS Same-Spin Energy      =      -0.0906695578157585 [Eh]
	 SCS Opposite-Spin Energy  =      -1.1015216516787394 [Eh]
	 SCS Correlation Energy    =      -1.1921912094944980 [Eh]
	 SCS Total Energy          =    -270.1120490367325147 [Eh]
	-----------------------------------------------------------

  Dipole Moment: [D]
     X:     4.1600      Y:     1.0425      Z:    -0.1657     Total:     4.2919

*** Psi4 exiting successfully. Buy a developer a beer!
