                               Psi4 1.3.2 release

  ==> Input File <==

--------------------------------------------------------------------------
#psi4
#
memory 32 gb

molecule  {
0 1
  O       -2.7436610    -0.2479860    -0.0003050
  C        0.8706510    -0.0504500     0.0000920
  C        2.0389000    -0.9960240     0.0002020
  C        1.2510070     1.4052230     0.0001730
  C       -0.3937780    -0.5296350    -0.0000590
  C       -1.6246660     0.2665400    -0.0001750
  H        2.6694560    -0.8265420     0.8807060
  H        2.6696250    -0.8265350    -0.8801800
  H        1.7156570    -2.0395440     0.0001660
  H        1.8655830     1.6274140    -0.8794340
  H        1.8653250     1.6273830     0.8799690
  H        0.3995010     2.0850070     0.0000600
  H       -0.5613960    -1.6053580    -0.0001000
  H       -1.5271624     1.3681370     0.0498580
units angstrom
no_reorient  #important for SAPT in psi4, default
symmetry c1  #important for SAPT in psi4, default
}

set PROPERTIES_ORIGIN ["COM"]
properties('MP2/aug-cc-pvtz', properties = ['dipole'])
--------------------------------------------------------------------------

    Molecular point group: c1
  Charge       = 0
  Multiplicity = 1
  Basis Set: AUG-CC-PVTZ
    Blend: AUG-CC-PVTZ
  Basis Set: (AUG-CC-PVTZ AUX)
    Blend: AUG-CC-PVTZ-JKFIT

    Orbital Energies [Eh]
    ---------------------

    Doubly Occupied:

       1A    -20.544423     2A    -11.327595     3A    -11.283242
       4A    -11.247373     5A    -11.243231     6A    -11.235859
       7A     -1.367207     8A     -1.124349     9A     -0.985686
      10A     -0.967668    11A     -0.830476    12A     -0.744719
      13A     -0.669089    14A     -0.640705    15A     -0.617619
      16A     -0.600434    17A     -0.560428    18A     -0.557313
      19A     -0.545578    20A     -0.522596    21A     -0.516945
      22A     -0.419022    23A     -0.367481

  @DF-RHF Final Energy:  -268.93616587099734

   => Energetics <=

    Nuclear Repulsion Energy =            216.7159725324702890
    One-Electron Energy =                -793.4661979229736062
    Two-Electron Energy =                 307.8140595195060314
    Total Energy =                       -268.9361658709973426
  Basis Set: (AUG-CC-PVTZ AUX)
    Blend: AUG-CC-PVTZ-RI
    Molecular point group: c1

    Geometry (in Angstrom), charge = 0, multiplicity = 1:

       Center              X                  Y                   Z               Mass
    ------------   -----------------  -----------------  -----------------  -----------------
         O           -2.636454812020    -0.231358433734    -0.000892240533    15.994914619570
         C            0.977857187980    -0.033822433734    -0.000495240533    12.000000000000
         C            2.146106187980    -0.979396433734    -0.000385240533    12.000000000000
         C            1.358213187980     1.421850566266    -0.000414240533    12.000000000000
         C           -0.286571812020    -0.513007433734    -0.000646240533    12.000000000000
         C           -1.517459812020     0.283167566266    -0.000762240533    12.000000000000
         H            2.776662187980    -0.809914433734     0.880118759467     1.007825032230
         H            2.776831187980    -0.809907433734    -0.880767240533     1.007825032230
         H            1.822863187980    -2.022916433734    -0.000421240533     1.007825032230
         H            1.972789187980     1.644041566266    -0.880021240533     1.007825032230
         H            1.972531187980     1.644010566266     0.879381759467     1.007825032230
         H            0.506707187980     2.101634566266    -0.000527240533     1.007825032230
         H           -0.454189812020    -1.588730433734    -0.000687240533     1.007825032230
         H           -1.419956212020     1.384764566266     0.049270759467     1.007825032230

  Basis Set: AUG-CC-PVTZ
    Blend: AUG-CC-PVTZ
  Basis Set: (AUG-CC-PVTZ AUX)
    Blend: AUG-CC-PVTZ-JKFIT
	 Reference Energy          =    -268.9361658709973426 [Eh]
	 Singles Energy            =      -0.0000000000000000 [Eh]
	 Same-Spin Energy          =      -0.2712125005667257 [Eh]
	 Opposite-Spin Energy      =      -0.9159218608900241 [Eh]
	 Correlation Energy        =      -1.1871343614567498 [Eh]
	 Total Energy              =    -270.1233002324540848 [Eh]

	 ================> DF-SCS-MP2 Energies <==================
	-----------------------------------------------------------
	 SCS Same-Spin Scale       =       0.3333333333333333 [-]
	 SCS Opposite-Spin Scale   =       1.2000000000000000 [-]
	 SCS Same-Spin Energy      =      -0.0904041668555752 [Eh]
	 SCS Opposite-Spin Energy  =      -1.0991062330680290 [Eh]
	 SCS Correlation Energy    =      -1.1895103999236043 [Eh]
	 SCS Total Energy          =    -270.1256762709209625 [Eh]
	-----------------------------------------------------------

  Dipole Moment: [D]
     X:     4.1127      Y:     0.9748      Z:     0.0192     Total:     4.2267

*** Psi4 exiting successfully. Buy a developer a beer!
