                               Psi4 1.3.2 release

  ==> Input File <==

--------------------------------------------------------------------------
#psi4
#
memory 32 gb

molecule  {
0 1
  O       -2.7436610    -0.2479860    -0.0003050
  C        0.8706510    -0.0504500     0.0000920
  C        2.0389000    -0.9960240     0.0002020
  C        1.2510070     1.4052230     0.0001730
  C       -0.3937780    -0.5296350    -0.0000590
  C       -1.6246660     0.2665400    -0.0001750
  H        2.6694560    -0.8265420     0.8807060
  H        2.6696250    -0.8265350    -0.8801800
  H        1.7156570    -2.0395440     0.0001660
  H        1.8655830     1.6274140    -0.8794340
  H        1.8653250     1.6273830     0.8799690
  H        0.3995010     2.0850070     0.0000600
  H       -0.5613960    -1.6053580    -0.0001000
  H       -1.5271784     1.3681340     0.1998580
units angstrom
no_reorient  #important for SAPT in psi4, default
symmetry c1  #important for SAPT in psi4, default
}

set PROPERTIES_ORIGIN ["COM"]
properties('MP2/aug-cc-pvtz', properties = ['dipole'])
--------------------------------------------------------------------------

    Molecular point group: c1
  Charge       = 0
  Multiplicity = 1
  Basis Set: AUG-CC-PVTZ
    Blend: AUG-CC-PVTZ
  Basis Set: (AUG-CC-PVTZ AUX)
    Blend: AUG-CC-PVTZ-JKFIT

    Orbital Energies [Eh]
    ---------------------

    Doubly Occupied:

       1A    -20.545246     2A    -11.329450     3A    -11.283215
       4A    -11.247159     5A    -11.243231     6A    -11.236229
       7A     -1.367754     8A     -1.124313     9A     -0.985555
      10A     -0.967539    11A     -0.828692    12A     -0.742538
      13A     -0.668527    14A     -0.640902    15A     -0.617602
      16A     -0.599903    17A     -0.560345    18A     -0.557394
      19A     -0.545606    20A     -0.523049    21A     -0.516313
      22A     -0.418208    23A     -0.367527

  @DF-RHF Final Energy:  -268.93395611740675

   => Energetics <=

    Nuclear Repulsion Energy =            216.6497347138352438
    One-Electron Energy =                -793.3347824497469674
    Two-Electron Energy =                 307.7510916185049155
    Total Energy =                       -268.9339561174067512
  Basis Set: (AUG-CC-PVTZ AUX)
    Blend: AUG-CC-PVTZ-RI
    Molecular point group: c1

    Geometry (in Angstrom), charge = 0, multiplicity = 1:

       Center              X                  Y                   Z               Mass
    ------------   -----------------  -----------------  -----------------  -----------------
         O           -2.636454620185    -0.231358397765    -0.002690696686    15.994914619570
         C            0.977857379815    -0.033822397765    -0.002293696686    12.000000000000
         C            2.146106379815    -0.979396397765    -0.002183696686    12.000000000000
         C            1.358213379815     1.421850602235    -0.002212696686    12.000000000000
         C           -0.286571620185    -0.513007397765    -0.002444696686    12.000000000000
         C           -1.517459620185     0.283167602235    -0.002560696686    12.000000000000
         H            2.776662379815    -0.809914397765     0.878320303314     1.007825032230
         H            2.776831379815    -0.809907397765    -0.882565696686     1.007825032230
         H            1.822863379815    -2.022916397765    -0.002219696686     1.007825032230
         H            1.972789379815     1.644041602235    -0.881819696686     1.007825032230
         H            1.972531379815     1.644010602235     0.877583303314     1.007825032230
         H            0.506707379815     2.101634602235    -0.002325696686     1.007825032230
         H           -0.454189620185    -1.588730397765    -0.002485696686     1.007825032230
         H           -1.419972020185     1.384761602235     0.197472303314     1.007825032230

  Basis Set: AUG-CC-PVTZ
    Blend: AUG-CC-PVTZ
  Basis Set: (AUG-CC-PVTZ AUX)
    Blend: AUG-CC-PVTZ-JKFIT
	 Reference Energy          =    -268.9339561174067512 [Eh]
	 Singles Energy            =      -0.0000000000000000 [Eh]
	 Same-Spin Energy          =      -0.2713545906661252 [Eh]
	 Opposite-Spin Energy      =      -0.9162045615067218 [Eh]
	 Correlation Energy        =      -1.1875591521728470 [Eh]
	 Total Energy              =    -270.1215152695796178 [Eh]

	 ================> DF-SCS-MP2 Energies <==================
	-----------------------------------------------------------
	 SCS Same-Spin Scale       =       0.3333333333333333 [-]
	 SCS Opposite-Spin Scale   =       1.2000000000000000 [-]
	 SCS Same-Spin Energy      =      -0.0904515302220417 [Eh]
	 SCS Opposite-Spin Energy  =      -1.0994454738080661 [Eh]
	 SCS Correlation Energy    =      -1.1898970040301078 [Eh]
	 SCS Total Energy          =    -270.1238531214368663 [Eh]
	-----------------------------------------------------------

  Dipole Moment: [D]
     X:     4.1016      Y:     0.9459      Z:     0.0728     Total:     4.2099

*** Psi4 exiting successfully. Buy a developer a beer!
