                               Psi4 1.3.2 release

  ==> Input File <==

--------------------------------------------------------------------------
#psi4
#
memory 32 gb

molecule  {
0 1
  O       -2.7436610    -0.2479860    -0.0003050
  C        0.8706510    -0.0504500     0.0000920
  C        2.0389000    -0.9960240     0.0002020
  C        1.2510070     1.4052230     0.0001730
  C       -0.3937780    -0.5296350    -0.0000590
  C       -1.6246660     0.2665400    -0.0001750
  H        2.6694560    -0.8265420     0.8807060
  H        2.6696250    -0.8265350    -0.8801800
  H        1.7156570    -2.0395440     0.0001660
  H        1.8655830     1.6274140    -0.8794340
  H        1.8653250     1.6273830     0.8799690
  H        0.3995010     2.0850070     0.0000600
  H       -0.5614235    -1.6053636     0.2499000
  H       -1.5271570     1.3681380    -0.0001420
units angstrom
no_reorient  #important for SAPT in psi4, default
symmetry c1  #important for SAPT in psi4, default
}

set PROPERTIES_ORIGIN ["COM"]
properties('MP2/aug-cc-pvtz', properties = ['dipole'])
--------------------------------------------------------------------------

    Molecular point group: c1
  Charge       = 0
  Multiplicity = 1
  Basis Set: AUG-CC-PVTZ
    Blend: AUG-CC-PVTZ
  Basis Set: (AUG-CC-PVTZ AUX)
    Blend: AUG-CC-PVTZ-JKFIT

    Orbital Energies [Eh]
    ---------------------

    Doubly Occupied:

       1A    -20.544391     2A    -11.327505     3A    -11.284018
       4A    -11.247801     5A    -11.243329     6A    -11.238415
       7A     -1.367097     8A     -1.124417     9A     -0.985014
      10A     -0.967850    11A     -0.830675    12A     -0.741690
      13A     -0.669317    14A     -0.639217    15A     -0.618073
      16A     -0.599452    17A     -0.560726    18A     -0.556638
      19A     -0.545095    20A     -0.524064    21A     -0.512997
      22A     -0.419176    23A     -0.366623

  @DF-RHF Final Energy:  -268.93214791723506

   => Energetics <=

    Nuclear Repulsion Energy =            216.6078502670042667
    One-Electron Energy =                -793.2528364370111831
    Two-Electron Energy =                 307.7128382527718031
    Total Energy =                       -268.9321479172350564
  Basis Set: (AUG-CC-PVTZ AUX)
    Blend: AUG-CC-PVTZ-RI
    Molecular point group: c1

    Geometry (in Angstrom), charge = 0, multiplicity = 1:

       Center              X                  Y                   Z               Mass
    ------------   -----------------  -----------------  -----------------  -----------------
         O           -2.636454547048    -0.231358378582    -0.003290182070    15.994914619570
         C            0.977857452952    -0.033822378582    -0.002893182070    12.000000000000
         C            2.146106452952    -0.979396378582    -0.002783182070    12.000000000000
         C            1.358213452952     1.421850621418    -0.002812182070    12.000000000000
         C           -0.286571547048    -0.513007378582    -0.003044182070    12.000000000000
         C           -1.517459547048     0.283167621418    -0.003160182070    12.000000000000
         H            2.776662452952    -0.809914378582     0.877720817930     1.007825032230
         H            2.776831452952    -0.809907378582    -0.883165182070     1.007825032230
         H            1.822863452952    -2.022916378582    -0.002819182070     1.007825032230
         H            1.972789452952     1.644041621418    -0.882419182070     1.007825032230
         H            1.972531452952     1.644010621418     0.876983817930     1.007825032230
         H            0.506707452952     2.101634621418    -0.002925182070     1.007825032230
         H           -0.454217047048    -1.588735978582     0.246914817930     1.007825032230
         H           -1.419950547048     1.384765621418    -0.003127182070     1.007825032230

  Basis Set: AUG-CC-PVTZ
    Blend: AUG-CC-PVTZ
  Basis Set: (AUG-CC-PVTZ AUX)
    Blend: AUG-CC-PVTZ-JKFIT
	 Reference Energy          =    -268.9321479172350564 [Eh]
	 Singles Energy            =      -0.0000000000000000 [Eh]
	 Same-Spin Energy          =      -0.2713819265520450 [Eh]
	 Opposite-Spin Energy      =      -0.9162962195633384 [Eh]
	 Correlation Energy        =      -1.1876781461153834 [Eh]
	 Total Energy              =    -270.1198260633504447 [Eh]

	 ================> DF-SCS-MP2 Energies <==================
	-----------------------------------------------------------
	 SCS Same-Spin Scale       =       0.3333333333333333 [-]
	 SCS Opposite-Spin Scale   =       1.2000000000000000 [-]
	 SCS Same-Spin Energy      =      -0.0904606421840150 [Eh]
	 SCS Opposite-Spin Energy  =      -1.0995554634760061 [Eh]
	 SCS Correlation Energy    =      -1.1900161056600211 [Eh]
	 SCS Total Energy          =    -270.1221640228950491 [Eh]
	-----------------------------------------------------------

  Dipole Moment: [D]
     X:     4.1221      Y:     1.0093      Z:     0.1574     Total:     4.2468

*** Psi4 exiting successfully. Buy a developer a beer!
