                               Psi4 1.3.2 release

  ==> Input File <==

--------------------------------------------------------------------------
#psi4
#
memory 32 gb

molecule  {
0 1
  O       -2.7436610    -0.2479860    -0.0003050
  C        0.8706510    -0.0504500     0.0000920
  C        2.0389000    -0.9960240     0.0002020
  C        1.2510070     1.4052230     0.0001730
  C       -0.3938004    -0.5296399     0.1999410
  C       -1.6246660     0.2665400    -0.0001750
  H        2.6694560    -0.8265420     0.8807060
  H        2.6696250    -0.8265350    -0.8801800
  H        1.7156570    -2.0395440     0.0001660
  H        1.8655830     1.6274140    -0.8794340
  H        1.8653250     1.6273830     0.8799690
  H        0.3995010     2.0850070     0.0000600
  H       -0.5613960    -1.6053580    -0.0001000
  H       -1.5271570     1.3681380    -0.0001420
units angstrom
no_reorient  #important for SAPT in psi4, default
symmetry c1  #important for SAPT in psi4, default
}

set PROPERTIES_ORIGIN ["COM"]
properties('MP2/aug-cc-pvtz', properties = ['dipole'])
--------------------------------------------------------------------------

    Molecular point group: c1
  Charge       = 0
  Multiplicity = 1
  Basis Set: AUG-CC-PVTZ
    Blend: AUG-CC-PVTZ
  Basis Set: (AUG-CC-PVTZ AUX)
    Blend: AUG-CC-PVTZ-JKFIT

    Orbital Energies [Eh]
    ---------------------

    Doubly Occupied:

       1A    -20.543700     2A    -11.328178     3A    -11.288203
       4A    -11.248520     5A    -11.244303     6A    -11.238916
       7A     -1.366298     8A     -1.123292     9A     -0.983257
      10A     -0.968756    11A     -0.827249    12A     -0.741484
      13A     -0.668253    14A     -0.637671    15A     -0.618689
      16A     -0.599242    17A     -0.561627    18A     -0.556566
      19A     -0.543048    20A     -0.521973    21A     -0.515162
      22A     -0.416862    23A     -0.366509

  @DF-RHF Final Energy:  -268.92586026998470

   => Energetics <=

    Nuclear Repulsion Energy =            216.2968953868749509
    One-Electron Energy =                -792.6299930458569634
    Two-Electron Energy =                 307.4072373889973733
    Total Energy =                       -268.9258602699846961
  Basis Set: (AUG-CC-PVTZ AUX)
    Blend: AUG-CC-PVTZ-RI
    Molecular point group: c1

    Geometry (in Angstrom), charge = 0, multiplicity = 1:

       Center              X                  Y                   Z               Mass
    ------------   -----------------  -----------------  -----------------  -----------------
         O           -2.636451678954    -0.231357746203    -0.028844634222    15.994914619570
         C            0.977860321046    -0.033821746203    -0.028447634222    12.000000000000
         C            2.146109321046    -0.979395746203    -0.028337634222    12.000000000000
         C            1.358216321046     1.421851253797    -0.028366634222    12.000000000000
         C           -0.286591078954    -0.513011646203     0.171401365778    12.000000000000
         C           -1.517456678954     0.283168253797    -0.028714634222    12.000000000000
         H            2.776665321046    -0.809913746203     0.852166365778     1.007825032230
         H            2.776834321046    -0.809906746203    -0.908719634222     1.007825032230
         H            1.822866321046    -2.022915746203    -0.028373634222     1.007825032230
         H            1.972792321046     1.644042253797    -0.907973634222     1.007825032230
         H            1.972534321046     1.644011253797     0.851429365778     1.007825032230
         H            0.506710321046     2.101635253797    -0.028479634222     1.007825032230
         H           -0.454186678954    -1.588729746203    -0.028639634222     1.007825032230
         H           -1.419947678954     1.384766253797    -0.028681634222     1.007825032230

  Basis Set: AUG-CC-PVTZ
    Blend: AUG-CC-PVTZ
  Basis Set: (AUG-CC-PVTZ AUX)
    Blend: AUG-CC-PVTZ-JKFIT
	 Reference Energy          =    -268.9258602699846961 [Eh]
	 Singles Energy            =      -0.0000000000000000 [Eh]
	 Same-Spin Energy          =      -0.2717185623489083 [Eh]
	 Opposite-Spin Energy      =      -0.9171656734641573 [Eh]
	 Correlation Energy        =      -1.1888842358130658 [Eh]
	 Total Energy              =    -270.1147445057977734 [Eh]

	 ================> DF-SCS-MP2 Energies <==================
	-----------------------------------------------------------
	 SCS Same-Spin Scale       =       0.3333333333333333 [-]
	 SCS Opposite-Spin Scale   =       1.2000000000000000 [-]
	 SCS Same-Spin Energy      =      -0.0905728541163028 [Eh]
	 SCS Opposite-Spin Energy  =      -1.1005988081569889 [Eh]
	 SCS Correlation Energy    =      -1.1911716622732915 [Eh]
	 SCS Total Energy          =    -270.1170319322579871 [Eh]
	-----------------------------------------------------------

  Dipole Moment: [D]
     X:     4.1448      Y:     1.0192      Z:    -0.1307     Total:     4.2703

*** Psi4 exiting successfully. Buy a developer a beer!
