                               Psi4 1.3.2 release

  ==> Input File <==

--------------------------------------------------------------------------
#psi4
#
memory 32 gb

molecule  {
0 1
  O       -2.7436610    -0.2479860    -0.0003050
  C        0.8706510    -0.0504500     0.0000920
  C        2.0389000    -0.9960240     0.0002020
  C        1.2510070     1.4052230     0.0001730
  C       -0.3937780    -0.5296350    -0.0000590
  C       -1.6246660     0.2665400    -0.0001750
  H        2.6694560    -0.8265420     0.8807060
  H        2.6696250    -0.8265350    -0.8801800
  H        1.7156570    -2.0395440     0.0001660
  H        1.8655830     1.6274140    -0.8794340
  H        1.8653250     1.6273830     0.8799690
  H        0.3995010     2.0850070     0.0000600
  H       -0.5613960    -1.6053580    -0.0001000
  H       -1.5271731     1.3681350     0.1498580
units angstrom
no_reorient  #important for SAPT in psi4, default
symmetry c1  #important for SAPT in psi4, default
}

set PROPERTIES_ORIGIN ["COM"]
properties('MP2/aug-cc-pvtz', properties = ['dipole'])
--------------------------------------------------------------------------

    Molecular point group: c1
  Charge       = 0
  Multiplicity = 1
  Basis Set: AUG-CC-PVTZ
    Blend: AUG-CC-PVTZ
  Basis Set: (AUG-CC-PVTZ AUX)
    Blend: AUG-CC-PVTZ-JKFIT

    Orbital Energies [Eh]
    ---------------------

    Doubly Occupied:

       1A    -20.544862     2A    -11.328589     3A    -11.283226
       4A    -11.247258     5A    -11.243230     6A    -11.236056
       7A     -1.367498     8A     -1.124328     9A     -0.985613
      10A     -0.967598    11A     -0.829497    12A     -0.743547
      13A     -0.668789    14A     -0.640809    15A     -0.617609
      16A     -0.600153    17A     -0.560383    18A     -0.557355
      19A     -0.545593    20A     -0.522853    21A     -0.516588
      22A     -0.418589    23A     -0.367507

  @DF-RHF Final Energy:  -268.93501363614337

   => Energetics <=

    Nuclear Repulsion Energy =            216.6803730581518153
    One-Electron Energy =                -793.3957082519590358
    Two-Electron Energy =                 307.7803215576639104
    Total Energy =                       -268.9350136361433670
  Basis Set: (AUG-CC-PVTZ AUX)
    Blend: AUG-CC-PVTZ-RI
    Molecular point group: c1

    Geometry (in Angstrom), charge = 0, multiplicity = 1:

       Center              X                  Y                   Z               Mass
    ------------   -----------------  -----------------  -----------------  -----------------
         O           -2.636454683730    -0.231358409755    -0.002091211301    15.994914619570
         C            0.977857316270    -0.033822409755    -0.001694211301    12.000000000000
         C            2.146106316270    -0.979396409755    -0.001584211301    12.000000000000
         C            1.358213316270     1.421850590245    -0.001613211301    12.000000000000
         C           -0.286571683730    -0.513007409755    -0.001845211301    12.000000000000
         C           -1.517459683730     0.283167590245    -0.001961211301    12.000000000000
         H            2.776662316270    -0.809914409755     0.878919788699     1.007825032230
         H            2.776831316270    -0.809907409755    -0.881966211301     1.007825032230
         H            1.822863316270    -2.022916409755    -0.001620211301     1.007825032230
         H            1.972789316270     1.644041590245    -0.881220211301     1.007825032230
         H            1.972531316270     1.644010590245     0.878182788699     1.007825032230
         H            0.506707316270     2.101634590245    -0.001726211301     1.007825032230
         H           -0.454189683730    -1.588730409755    -0.001886211301     1.007825032230
         H           -1.419966783730     1.384762590245     0.148071788699     1.007825032230

  Basis Set: AUG-CC-PVTZ
    Blend: AUG-CC-PVTZ
  Basis Set: (AUG-CC-PVTZ AUX)
    Blend: AUG-CC-PVTZ-JKFIT
	 Reference Energy          =    -268.9350136361433670 [Eh]
	 Singles Energy            =      -0.0000000000000000 [Eh]
	 Same-Spin Energy          =      -0.2712882577017323 [Eh]
	 Opposite-Spin Energy      =      -0.9160657118751501 [Eh]
	 Correlation Energy        =      -1.1873539695768822 [Eh]
	 Total Energy              =    -270.1223676057202283 [Eh]

	 ================> DF-SCS-MP2 Energies <==================
	-----------------------------------------------------------
	 SCS Same-Spin Scale       =       0.3333333333333333 [-]
	 SCS Opposite-Spin Scale   =       1.2000000000000000 [-]
	 SCS Same-Spin Energy      =      -0.0904294192339107 [Eh]
	 SCS Opposite-Spin Energy  =      -1.0992788542501801 [Eh]
	 SCS Correlation Energy    =      -1.1897082734840909 [Eh]
	 SCS Total Energy          =    -270.1247219096274534 [Eh]
	-----------------------------------------------------------

  Dipole Moment: [D]
     X:     4.1067      Y:     0.9594      Z:     0.0556     Total:     4.2177

*** Psi4 exiting successfully. Buy a developer a beer!
