                               Psi4 1.3.2 release

  ==> Input File <==

--------------------------------------------------------------------------
#psi4
#
memory 32 gb

molecule  {
0 1
  O       -2.7436610    -0.2479860    -0.0003050
  C        0.8706510    -0.0504500     0.0000920
  C        2.0389000    -0.9960240     0.0002020
  C        1.2510070     1.4052230     0.0001730
  C       -0.3937780    -0.5296350    -0.0000590
  C       -1.6246660     0.2665400    -0.0001750
  H        2.6694560    -0.8265420     0.8807060
  H        2.6696250    -0.8265350    -0.8801800
  H        1.7156570    -2.0395440     0.0001660
  H        1.8655830     1.6274140    -0.8794340
  H        1.8653250     1.6273830     0.8799690
  H        0.3995010     2.0850070     0.0000600
  H       -0.5614180    -1.6053625     0.1999000
  H       -1.5271570     1.3681380    -0.0001420
units angstrom
no_reorient  #important for SAPT in psi4, default
symmetry c1  #important for SAPT in psi4, default
}

set PROPERTIES_ORIGIN ["COM"]
properties('MP2/aug-cc-pvtz', properties = ['dipole'])
--------------------------------------------------------------------------

    Molecular point group: c1
  Charge       = 0
  Multiplicity = 1
  Basis Set: AUG-CC-PVTZ
    Blend: AUG-CC-PVTZ
  Basis Set: (AUG-CC-PVTZ AUX)
    Blend: AUG-CC-PVTZ-JKFIT

    Orbital Energies [Eh]
    ---------------------

    Doubly Occupied:

       1A    -20.544383     2A    -11.327490     3A    -11.283742
       4A    -11.247653     5A    -11.243295     6A    -11.237500
       7A     -1.367122     8A     -1.124390     9A     -0.985248
      10A     -0.967788    11A     -0.830645    12A     -0.742783
      13A     -0.669247    14A     -0.639726    15A     -0.617915
      16A     -0.599803    17A     -0.560623    18A     -0.556866
      19A     -0.545283    20A     -0.523656    21A     -0.514316
      22A     -0.419141    23A     -0.366923

  @DF-RHF Final Energy:  -268.93371772385171

   => Energetics <=

    Nuclear Repulsion Energy =            216.6476654535645991
    One-Electron Energy =                -793.3316924765881595
    Two-Electron Energy =                 307.7503092991718177
    Total Energy =                       -268.9337177238517143
  Basis Set: (AUG-CC-PVTZ AUX)
    Blend: AUG-CC-PVTZ-RI
    Molecular point group: c1

    Geometry (in Angstrom), charge = 0, multiplicity = 1:

       Center              X                  Y                   Z               Mass
    ------------   -----------------  -----------------  -----------------  -----------------
         O           -2.636454612991    -0.231358391770    -0.002690696686    15.994914619570
         C            0.977857387009    -0.033822391770    -0.002293696686    12.000000000000
         C            2.146106387009    -0.979396391770    -0.002183696686    12.000000000000
         C            1.358213387009     1.421850608230    -0.002212696686    12.000000000000
         C           -0.286571612991    -0.513007391770    -0.002444696686    12.000000000000
         C           -1.517459612991     0.283167608230    -0.002560696686    12.000000000000
         H            2.776662387009    -0.809914391770     0.878320303314     1.007825032230
         H            2.776831387009    -0.809907391770    -0.882565696686     1.007825032230
         H            1.822863387009    -2.022916391770    -0.002219696686     1.007825032230
         H            1.972789387009     1.644041608230    -0.881819696686     1.007825032230
         H            1.972531387009     1.644010608230     0.877583303314     1.007825032230
         H            0.506707387009     2.101634608230    -0.002325696686     1.007825032230
         H           -0.454211612991    -1.588734891770     0.197514303314     1.007825032230
         H           -1.419950612991     1.384765608230    -0.002527696686     1.007825032230

  Basis Set: AUG-CC-PVTZ
    Blend: AUG-CC-PVTZ
  Basis Set: (AUG-CC-PVTZ AUX)
    Blend: AUG-CC-PVTZ-JKFIT
	 Reference Energy          =    -268.9337177238517143 [Eh]
	 Singles Energy            =      -0.0000000000000000 [Eh]
	 Same-Spin Energy          =      -0.2713178591087561 [Eh]
	 Opposite-Spin Energy      =      -0.9161475370026257 [Eh]
	 Correlation Energy        =      -1.1874653961113819 [Eh]
	 Total Energy              =    -270.1211831199631206 [Eh]

	 ================> DF-SCS-MP2 Energies <==================
	-----------------------------------------------------------
	 SCS Same-Spin Scale       =       0.3333333333333333 [-]
	 SCS Opposite-Spin Scale   =       1.2000000000000000 [-]
	 SCS Same-Spin Energy      =      -0.0904392863695853 [Eh]
	 SCS Opposite-Spin Energy  =      -1.0993770444031508 [Eh]
	 SCS Correlation Energy    =      -1.1898163307727361 [Eh]
	 SCS Total Energy          =    -270.1235340546244288 [Eh]
	-----------------------------------------------------------

  Dipole Moment: [D]
     X:     4.1191      Y:     0.9976      Z:     0.1268     Total:     4.2401

*** Psi4 exiting successfully. Buy a developer a beer!
