                               Psi4 1.3.2 release

  ==> Input File <==

--------------------------------------------------------------------------
#psi4
#
memory 32 gb

molecule  {
0 1
  O       -2.7436610    -0.2479860    -0.0003050
  C        0.8706510    -0.0504500     0.0000920
  C        2.0389000    -0.9960240     0.0002020
  C        1.2510070     1.4052230     0.0001730
  C       -0.3937780    -0.5296350    -0.0000590
  C       -1.6246660     0.2665400    -0.0001750
  H        2.6694560    -0.8265420     0.8807060
  H        2.6696250    -0.8265350    -0.8801800
  H        1.7156570    -2.0395440     0.0001660
  H        1.8655830     1.6274140    -0.8794340
  H        1.8653250     1.6273830     0.8799690
  H        0.3995010     2.0850070     0.0000600
  H       -0.5613960    -1.6053580    -0.0001000
  H       -1.5271838     1.3681329     0.2498580
units angstrom
no_reorient  #important for SAPT in psi4, default
symmetry c1  #important for SAPT in psi4, default
}

set PROPERTIES_ORIGIN ["COM"]
properties('MP2/aug-cc-pvtz', properties = ['dipole'])
--------------------------------------------------------------------------

    Molecular point group: c1
  Charge       = 0
  Multiplicity = 1
  Basis Set: AUG-CC-PVTZ
    Blend: AUG-CC-PVTZ
  Basis Set: (AUG-CC-PVTZ AUX)
    Blend: AUG-CC-PVTZ-JKFIT

    Orbital Energies [Eh]
    ---------------------

    Doubly Occupied:

       1A    -20.545740     2A    -11.330544     3A    -11.283205
       4A    -11.247034     5A    -11.243235     6A    -11.236453
       7A     -1.368083     8A     -1.124298     9A     -0.985491
      10A     -0.967467    11A     -0.827723    12A     -0.741268
      13A     -0.668189    14A     -0.641024    15A     -0.617593
      16A     -0.599577    17A     -0.560299    18A     -0.557444
      19A     -0.545623    20A     -0.523273    21A     -0.515999
      22A     -0.417712    23A     -0.367552

  @DF-RHF Final Energy:  -268.93253488066046

   => Energetics <=

    Nuclear Repulsion Energy =            216.6110189434588165
    One-Electron Energy =                -793.2574545893337472
    Two-Electron Energy =                 307.7139007652144755
    Total Energy =                       -268.9325348806604552
  Basis Set: (AUG-CC-PVTZ AUX)
    Blend: AUG-CC-PVTZ-RI
    Molecular point group: c1

    Geometry (in Angstrom), charge = 0, multiplicity = 1:

       Center              X                  Y                   Z               Mass
    ------------   -----------------  -----------------  -----------------  -----------------
         O           -2.636454555440    -0.231358384576    -0.003290182070    15.994914619570
         C            0.977857444560    -0.033822384576    -0.002893182070    12.000000000000
         C            2.146106444560    -0.979396384576    -0.002783182070    12.000000000000
         C            1.358213444560     1.421850615424    -0.002812182070    12.000000000000
         C           -0.286571555440    -0.513007384576    -0.003044182070    12.000000000000
         C           -1.517459555440     0.283167615424    -0.003160182070    12.000000000000
         H            2.776662444560    -0.809914384576     0.877720817930     1.007825032230
         H            2.776831444560    -0.809907384576    -0.883165182070     1.007825032230
         H            1.822863444560    -2.022916384576    -0.002819182070     1.007825032230
         H            1.972789444560     1.644041615424    -0.882419182070     1.007825032230
         H            1.972531444560     1.644010615424     0.876983817930     1.007825032230
         H            0.506707444560     2.101634615424    -0.002925182070     1.007825032230
         H           -0.454189555440    -1.588730384576    -0.003085182070     1.007825032230
         H           -1.419977355440     1.384760515424     0.246872817930     1.007825032230

  Basis Set: AUG-CC-PVTZ
    Blend: AUG-CC-PVTZ
  Basis Set: (AUG-CC-PVTZ AUX)
    Blend: AUG-CC-PVTZ-JKFIT
	 Reference Energy          =    -268.9325348806604552 [Eh]
	 Singles Energy            =      -0.0000000000000000 [Eh]
	 Same-Spin Energy          =      -0.2714398206453492 [Eh]
	 Opposite-Spin Energy      =      -0.9163945060714747 [Eh]
	 Correlation Energy        =      -1.1878343267168239 [Eh]
	 Total Energy              =    -270.1203692073772800 [Eh]

	 ================> DF-SCS-MP2 Energies <==================
	-----------------------------------------------------------
	 SCS Same-Spin Scale       =       0.3333333333333333 [-]
	 SCS Opposite-Spin Scale   =       1.2000000000000000 [-]
	 SCS Same-Spin Energy      =      -0.0904799402151164 [Eh]
	 SCS Opposite-Spin Energy  =      -1.0996734072857695 [Eh]
	 SCS Correlation Energy    =      -1.1901533475008859 [Eh]
	 SCS Total Energy          =    -270.1226882281613371 [Eh]
	-----------------------------------------------------------

  Dipole Moment: [D]
     X:     4.0951      Y:     0.9286      Z:     0.0890     Total:     4.2000

*** Psi4 exiting successfully. Buy a developer a beer!
