                               Psi4 1.3.2 release

  ==> Input File <==

--------------------------------------------------------------------------
#psi4
#
memory 32 gb

molecule  {
0 1
  O       -2.7436610    -0.2479860    -0.0003050
  C        0.8706510    -0.0504500     0.0000920
  C        2.0389000    -0.9960240     0.0002020
  C        1.2510070     1.4052230     0.0001730
  C       -0.3937780    -0.5296350    -0.0000590
  C       -1.6246660     0.2665400    -0.0001750
  H        2.6694560    -0.8265420     0.8807060
  H        2.6696250    -0.8265350    -0.8801800
  H        1.7156570    -2.0395440     0.0001660
  H        1.8655830     1.6274140    -0.8794340
  H        1.8653250     1.6273830     0.8799690
  H        0.3995010     2.0850070     0.0000600
  H       -0.5614125    -1.6053613     0.1499000
  H       -1.5271570     1.3681380    -0.0001420
units angstrom
no_reorient  #important for SAPT in psi4, default
symmetry c1  #important for SAPT in psi4, default
}

set PROPERTIES_ORIGIN ["COM"]
properties('MP2/aug-cc-pvtz', properties = ['dipole'])
--------------------------------------------------------------------------

    Molecular point group: c1
  Charge       = 0
  Multiplicity = 1
  Basis Set: AUG-CC-PVTZ
    Blend: AUG-CC-PVTZ
  Basis Set: (AUG-CC-PVTZ AUX)
    Blend: AUG-CC-PVTZ-JKFIT

    Orbital Energies [Eh]
    ---------------------

    Doubly Occupied:

       1A    -20.544377     2A    -11.327480     3A    -11.283525
       4A    -11.247537     5A    -11.243267     6A    -11.236777
       7A     -1.367143     8A     -1.124372     9A     -0.985438
      10A     -0.967739    11A     -0.830625    12A     -0.743672
      13A     -0.669194    14A     -0.640139    15A     -0.617788
      16A     -0.600088    17A     -0.560541    18A     -0.557054
      19A     -0.545418    20A     -0.523261    21A     -0.515410
      22A     -0.419113    23A     -0.367162

  @DF-RHF Final Energy:  -268.93488385213976

   => Energetics <=

    Nuclear Repulsion Energy =            216.6791904802590238
    One-Electron Energy =                -793.3939089816883552
    Two-Electron Energy =                 307.7798346492896258
    Total Energy =                       -268.9348838521397624
  Basis Set: (AUG-CC-PVTZ AUX)
    Blend: AUG-CC-PVTZ-RI
    Molecular point group: c1

    Geometry (in Angstrom), charge = 0, multiplicity = 1:

       Center              X                  Y                   Z               Mass
    ------------   -----------------  -----------------  -----------------  -----------------
         O           -2.636454678934    -0.231358406158    -0.002091211301    15.994914619570
         C            0.977857321066    -0.033822406158    -0.001694211301    12.000000000000
         C            2.146106321066    -0.979396406158    -0.001584211301    12.000000000000
         C            1.358213321066     1.421850593842    -0.001613211301    12.000000000000
         C           -0.286571678934    -0.513007406158    -0.001845211301    12.000000000000
         C           -1.517459678934     0.283167593842    -0.001961211301    12.000000000000
         H            2.776662321066    -0.809914406158     0.878919788699     1.007825032230
         H            2.776831321066    -0.809907406158    -0.881966211301     1.007825032230
         H            1.822863321066    -2.022916406158    -0.001620211301     1.007825032230
         H            1.972789321066     1.644041593842    -0.881220211301     1.007825032230
         H            1.972531321066     1.644010593842     0.878182788699     1.007825032230
         H            0.506707321066     2.101634593842    -0.001726211301     1.007825032230
         H           -0.454206178934    -1.588733706158     0.148113788699     1.007825032230
         H           -1.419950678934     1.384765593842    -0.001928211301     1.007825032230

  Basis Set: AUG-CC-PVTZ
    Blend: AUG-CC-PVTZ
  Basis Set: (AUG-CC-PVTZ AUX)
    Blend: AUG-CC-PVTZ-JKFIT
	 Reference Energy          =    -268.9348838521397624 [Eh]
	 Singles Energy            =      -0.0000000000000000 [Eh]
	 Same-Spin Energy          =      -0.2712676952935446 [Eh]
	 Opposite-Spin Energy      =      -0.9160371574784123 [Eh]
	 Correlation Energy        =      -1.1873048527719567 [Eh]
	 Total Energy              =    -270.1221887049117072 [Eh]

	 ================> DF-SCS-MP2 Energies <==================
	-----------------------------------------------------------
	 SCS Same-Spin Scale       =       0.3333333333333333 [-]
	 SCS Opposite-Spin Scale   =       1.2000000000000000 [-]
	 SCS Same-Spin Energy      =      -0.0904225650978482 [Eh]
	 SCS Opposite-Spin Energy  =      -1.0992445889740947 [Eh]
	 SCS Correlation Energy    =      -1.1896671540719428 [Eh]
	 SCS Total Energy          =    -270.1245510062117319 [Eh]
	-----------------------------------------------------------

  Dipole Moment: [D]
     X:     4.1167      Y:     0.9885      Z:     0.0957     Total:     4.2348

*** Psi4 exiting successfully. Buy a developer a beer!
