                               Psi4 1.3.2 release

  ==> Input File <==

--------------------------------------------------------------------------
#psi4
#
memory 32 gb

molecule  {
0 1
  O       -2.7436610    -0.2479860    -0.0003050
  C        0.8706510    -0.0504500     0.0000920
  C        2.0389000    -0.9960240     0.0002020
  C        1.2510070     1.4052230     0.0001730
  C       -0.3937948    -0.5296387     0.1499410
  C       -1.6246660     0.2665400    -0.0001750
  H        2.6694560    -0.8265420     0.8807060
  H        2.6696250    -0.8265350    -0.8801800
  H        1.7156570    -2.0395440     0.0001660
  H        1.8655830     1.6274140    -0.8794340
  H        1.8653250     1.6273830     0.8799690
  H        0.3995010     2.0850070     0.0000600
  H       -0.5613960    -1.6053580    -0.0001000
  H       -1.5271570     1.3681380    -0.0001420
units angstrom
no_reorient  #important for SAPT in psi4, default
symmetry c1  #important for SAPT in psi4, default
}

set PROPERTIES_ORIGIN ["COM"]
properties('MP2/aug-cc-pvtz', properties = ['dipole'])
--------------------------------------------------------------------------

    Molecular point group: c1
  Charge       = 0
  Multiplicity = 1
  Basis Set: AUG-CC-PVTZ
    Blend: AUG-CC-PVTZ
  Basis Set: (AUG-CC-PVTZ AUX)
    Blend: AUG-CC-PVTZ-JKFIT

    Orbital Energies [Eh]
    ---------------------

    Doubly Occupied:

       1A    -20.543977     2A    -11.327873     3A    -11.286057
       4A    -11.248026     5A    -11.243838     6A    -11.237587
       7A     -1.366668     8A     -1.123745     9A     -0.984339
      10A     -0.968285    11A     -0.828680    12A     -0.742904
      13A     -0.668642    14A     -0.638942    15A     -0.618235
      16A     -0.599728    17A     -0.561113    18A     -0.556889
      19A     -0.544136    20A     -0.522205    21A     -0.516053
      22A     -0.417827    23A     -0.366915

  @DF-RHF Final Energy:  -268.93046828298850

   => Energetics <=

    Nuclear Repulsion Energy =            216.4807809012540929
    One-Electron Energy =                -792.9971699659108708
    Two-Electron Energy =                 307.5859207816682783
    Total Energy =                       -268.9304682829884996
  Basis Set: (AUG-CC-PVTZ AUX)
    Blend: AUG-CC-PVTZ-RI
    Molecular point group: c1

    Geometry (in Angstrom), charge = 0, multiplicity = 1:

       Center              X                  Y                   Z               Mass
    ------------   -----------------  -----------------  -----------------  -----------------
         O           -2.636452478407    -0.231357917514    -0.021706664453    15.994914619570
         C            0.977859521593    -0.033821917514    -0.021309664453    12.000000000000
         C            2.146108521593    -0.979395917514    -0.021199664453    12.000000000000
         C            1.358215521593     1.421851082486    -0.021228664453    12.000000000000
         C           -0.286586278407    -0.513010617514     0.128539335547    12.000000000000
         C           -1.517457478407     0.283168082486    -0.021576664453    12.000000000000
         H            2.776664521593    -0.809913917514     0.859304335547     1.007825032230
         H            2.776833521593    -0.809906917514    -0.901581664453     1.007825032230
         H            1.822865521593    -2.022915917514    -0.021235664453     1.007825032230
         H            1.972791521593     1.644042082486    -0.900835664453     1.007825032230
         H            1.972533521593     1.644011082486     0.858567335547     1.007825032230
         H            0.506709521593     2.101635082486    -0.021341664453     1.007825032230
         H           -0.454187478407    -1.588729917514    -0.021501664453     1.007825032230
         H           -1.419948478407     1.384766082486    -0.021543664453     1.007825032230

  Basis Set: AUG-CC-PVTZ
    Blend: AUG-CC-PVTZ
  Basis Set: (AUG-CC-PVTZ AUX)
    Blend: AUG-CC-PVTZ-JKFIT
	 Reference Energy          =    -268.9304682829884996 [Eh]
	 Singles Energy            =      -0.0000000000000000 [Eh]
	 Same-Spin Energy          =      -0.2714919040060250 [Eh]
	 Opposite-Spin Energy      =      -0.9165823252785092 [Eh]
	 Correlation Energy        =      -1.1880742292845343 [Eh]
	 Total Energy              =    -270.1185425122730521 [Eh]

	 ================> DF-SCS-MP2 Energies <==================
	-----------------------------------------------------------
	 SCS Same-Spin Scale       =       0.3333333333333333 [-]
	 SCS Opposite-Spin Scale   =       1.2000000000000000 [-]
	 SCS Same-Spin Energy      =      -0.0904973013353416 [Eh]
	 SCS Opposite-Spin Energy  =      -1.0998987903342110 [Eh]
	 SCS Correlation Energy    =      -1.1903960916695526 [Eh]
	 SCS Total Energy          =    -270.1208643746580265 [Eh]
	-----------------------------------------------------------

  Dipole Moment: [D]
     X:     4.1318      Y:     1.0008      Z:    -0.0969     Total:     4.2524

*** Psi4 exiting successfully. Buy a developer a beer!
