                               Psi4 1.3.2 release

  ==> Input File <==

--------------------------------------------------------------------------
#psi4
#
memory 32 gb

molecule  {
0 1
  O       -2.7436610    -0.2479860    -0.0003050
  C        0.8706510    -0.0504500     0.0000920
  C        2.0389000    -0.9960240     0.0002020
  C        1.2510070     1.4052230     0.0001730
  C       -0.3937780    -0.5296350    -0.0000590
  C       -1.6246660     0.2665400    -0.0001750
  H        2.6694560    -0.8265420     0.8807060
  H        2.6696250    -0.8265350    -0.8801800
  H        1.7156570    -2.0395440     0.0001660
  H        1.8655830     1.6274140    -0.8794340
  H        1.8653250     1.6273830     0.8799690
  H        0.3995010     2.0850070     0.0000600
  H       -0.5613960    -1.6053580    -0.0001000
  H       -1.5271570     1.3681380    -0.0001420
units angstrom
no_reorient  #important for SAPT in psi4, default
symmetry c1  #important for SAPT in psi4, default
}

set PROPERTIES_ORIGIN ["COM"]
properties('MP2/aug-cc-pvtz', properties = ['dipole'])
--------------------------------------------------------------------------

    Molecular point group: c1
  Charge       = 0
  Multiplicity = 1
  Basis Set: AUG-CC-PVTZ
    Blend: AUG-CC-PVTZ
  Basis Set: (AUG-CC-PVTZ AUX)
    Blend: AUG-CC-PVTZ-JKFIT

    Orbital Energies [Eh]
    ---------------------

    Doubly Occupied:

       1A    -20.544368     2A    -11.327470     3A    -11.283244
       4A    -11.247388     5A    -11.243231     6A    -11.235835
       7A     -1.367171     8A     -1.124351     9A     -0.985696
      10A     -0.967677    11A     -0.830603    12A     -0.744867
      13A     -0.669126    14A     -0.640693    15A     -0.617620
      16A     -0.600469    17A     -0.560434    18A     -0.557308
      19A     -0.545577    20A     -0.522561    21A     -0.516994
      22A     -0.419076    23A     -0.367478

  @DF-RHF Final Energy:  -268.93630540655442

   => Energetics <=

    Nuclear Repulsion Energy =            216.7204673158357764
    One-Electron Energy =                -793.4750745527585423
    Two-Electron Energy =                 307.8183018303683411
    Total Energy =                       -268.9363054065544247
  Basis Set: (AUG-CC-PVTZ AUX)
    Blend: AUG-CC-PVTZ-RI
    Molecular point group: c1

    Geometry (in Angstrom), charge = 0, multiplicity = 1:

       Center              X                  Y                   Z               Mass
    ------------   -----------------  -----------------  -----------------  -----------------
         O           -2.636454876765    -0.231358445724    -0.000292755148    15.994914619570
         C            0.977857123235    -0.033822445724     0.000104244852    12.000000000000
         C            2.146106123235    -0.979396445724     0.000214244852    12.000000000000
         C            1.358213123235     1.421850554276     0.000185244852    12.000000000000
         C           -0.286571876765    -0.513007445724    -0.000046755148    12.000000000000
         C           -1.517459876765     0.283167554276    -0.000162755148    12.000000000000
         H            2.776662123235    -0.809914445724     0.880718244852     1.007825032230
         H            2.776831123235    -0.809907445724    -0.880167755148     1.007825032230
         H            1.822863123235    -2.022916445724     0.000178244852     1.007825032230
         H            1.972789123235     1.644041554276    -0.879421755148     1.007825032230
         H            1.972531123235     1.644010554276     0.879981244852     1.007825032230
         H            0.506707123235     2.101634554276     0.000072244852     1.007825032230
         H           -0.454189876765    -1.588730445724    -0.000087755148     1.007825032230
         H           -1.419950876765     1.384765554276    -0.000129755148     1.007825032230

  Basis Set: AUG-CC-PVTZ
    Blend: AUG-CC-PVTZ
  Basis Set: (AUG-CC-PVTZ AUX)
    Blend: AUG-CC-PVTZ-JKFIT
	 Reference Energy          =    -268.9363054065544247 [Eh]
	 Singles Energy            =      -0.0000000000000000 [Eh]
	 Same-Spin Energy          =      -0.2712030429003467 [Eh]
	 Opposite-Spin Energy      =      -0.9159054405364343 [Eh]
	 Correlation Energy        =      -1.1871084834367811 [Eh]
	 Total Energy              =    -270.1234138899911841 [Eh]

	 ================> DF-SCS-MP2 Energies <==================
	-----------------------------------------------------------
	 SCS Same-Spin Scale       =       0.3333333333333333 [-]
	 SCS Opposite-Spin Scale   =       1.2000000000000000 [-]
	 SCS Same-Spin Energy      =      -0.0904010143001156 [Eh]
	 SCS Opposite-Spin Energy  =      -1.0990865286437210 [Eh]
	 SCS Correlation Energy    =      -1.1894875429438365 [Eh]
	 SCS Total Energy          =    -270.1257929494982477 [Eh]
	-----------------------------------------------------------

  Dipole Moment: [D]
     X:     4.1135      Y:     0.9767      Z:     0.0005     Total:     4.2279

*** Psi4 exiting successfully. Buy a developer a beer!
