                               Psi4 1.4a3.dev225

  ==> Input File <==

--------------------------------------------------------------------------
#psi4
#
memory 32 gb

molecule  {
0 1
  S       -0.8474370    -0.1634740     0.0000030
  O        0.5903562     0.5085193    -0.0000086
  O       -1.0489550    -0.8659360     1.2656300
  O       -1.0489590    -0.8659660    -1.2656070
  C        1.7327780    -0.4363370    -0.0000100
  C       -1.7660460     1.3512030    -0.0000130
  C        3.0069280     0.3742480     0.0000060
  H        1.6435610    -1.0619840     0.8923650
  H        1.6435710    -1.0619680    -0.8923970
  H       -2.8228660     1.0799920    -0.0000030
  H       -1.5165640     1.9135900     0.8989700
  H       -1.5165740     1.9135660    -0.8990130
  H        3.8695390    -0.2981460     0.0000030
  H        3.0572260     1.0067830    -0.8883720
  H        3.0572160     1.0067630     0.8883970
units angstrom
no_reorient  #important for SAPT in psi4, default
symmetry c1  #important for SAPT in psi4, default
}

set PROPERTIES_ORIGIN ["COM"]
properties('MP2/aug-cc-pvtz', properties = ['dipole'])
--------------------------------------------------------------------------

    Molecular point group: c1
  Charge       = 0
  Multiplicity = 1
  Basis Set: AUG-CC-PVTZ
    Blend: AUG-CC-PVTZ
  Basis Set: (AUG-CC-PVTZ AUX)
    Blend: AUG-CC-PVTZ-JKFIT

    Orbital Energies [Eh]
    ---------------------

    Doubly Occupied:

       1A    -92.217444     2A    -20.620503     3A    -20.552922
       4A    -20.552899     5A    -11.312258     6A    -11.279909
       7A    -11.240355     8A     -9.181349     9A     -6.867093
      10A     -6.865638    11A     -6.865296    12A     -1.495248
      13A     -1.380692    14A     -1.339048    15A     -1.073948
      16A     -1.029543    17A     -0.885541    18A     -0.827803
      19A     -0.726976    20A     -0.701088    21A     -0.689554
      22A     -0.653652    23A     -0.621072    24A     -0.604944
      25A     -0.600402    26A     -0.567274    27A     -0.563967
      28A     -0.544879    29A     -0.506294    30A     -0.504901
      31A     -0.489903    32A     -0.474861    33A     -0.463722

  @DF-RHF Final Energy:  -740.48789494853895

   => Energetics <=

    Nuclear Repulsion Energy =            440.9753351725241259
    One-Electron Energy =               -1894.3245083000090290
    Two-Electron Energy =                 712.8612781789458950
    Total Energy =                       -740.4878949485389512
  Basis Set: (AUG-CC-PVTZ AUX)
    Blend: AUG-CC-PVTZ-RI
    Molecular point group: c1

    Geometry (in Angstrom), charge = 0, multiplicity = 1:

       Center              X                  Y                   Z               Mass
    ------------   -----------------  -----------------  -----------------  -----------------
         S           -0.782523600037    -0.124840222161     0.000002420641    31.972071174400
         O            0.655269599963     0.547153077839    -0.000009179359    15.994914619570
         O           -0.984041600037    -0.827302222161     1.265629420641    15.994914619570
         O           -0.984045600037    -0.827332222161    -1.265607579359    15.994914619570
         C            1.797691399963    -0.397703222161    -0.000010579359    12.000000000000
         C           -1.701132600037     1.389836777839    -0.000013579359    12.000000000000
         C            3.071841399963     0.412881777839     0.000005420641    12.000000000000
         H            1.708474399963    -1.023350222161     0.892364420641     1.007825032230
         H            1.708484399963    -1.023334222161    -0.892397579359     1.007825032230
         H           -2.757952600037     1.118625777839    -0.000003579359     1.007825032230
         H           -1.451650600037     1.952223777839     0.898969420641     1.007825032230
         H           -1.451660600037     1.952199777839    -0.899013579359     1.007825032230
         H            3.934452399963    -0.259512222161     0.000002420641     1.007825032230
         H            3.122139399963     1.045416777839    -0.888372579359     1.007825032230
         H            3.122129399963     1.045396777839     0.888396420641     1.007825032230

  Basis Set: AUG-CC-PVTZ
    Blend: AUG-CC-PVTZ
  Basis Set: (AUG-CC-PVTZ AUX)
    Blend: AUG-CC-PVTZ-JKFIT
	 Reference Energy          =    -740.4878949485389512 [Eh]
	 Singles Energy            =      -0.0000000000000000 [Eh]
	 Same-Spin Energy          =      -0.3933861628712262 [Eh]
	 Opposite-Spin Energy      =      -1.2113656274776718 [Eh]
	 Correlation Energy        =      -1.6047517903488981 [Eh]
	 Total Energy              =    -742.0926467388878791 [Eh]

	 ================> DF-SCS-MP2 Energies <==================
	-----------------------------------------------------------
	 SCS Same-Spin Scale       =       0.3333333333333333 [-]
	 SCS Opposite-Spin Scale   =       1.2000000000000000 [-]
	 SCS Same-Spin Energy      =      -0.1311287209570754 [Eh]
	 SCS Opposite-Spin Energy  =      -1.4536387529732062 [Eh]
	 SCS Correlation Energy    =      -1.5847674739302817 [Eh]
	 SCS Total Energy          =    -742.0726624224691932 [Eh]
	-----------------------------------------------------------

  Dipole Moment: [D]
     X:     1.8457      Y:     2.9173      Z:    -0.0000     Total:     3.4521

*** Psi4 exiting successfully. Buy a developer a beer!
