                               Psi4 1.3.2 release

  ==> Input File <==

--------------------------------------------------------------------------
#psi4
#
memory 32 gb

molecule  {
0 1
  S       -0.8476060    -0.1637020     0.0000030
  O        0.5985953     0.5878163    -0.1569644
  O       -1.0489850    -0.8657660     1.2662050
  O       -1.0490000    -0.8658060    -1.2661730
  C        1.7325050    -0.4363530    -0.0000120
  C       -1.7653290     1.3514860    -0.0000140
  C        3.0067930     0.3740820     0.0000060
  H        1.6431710    -1.0620260     0.8923500
  H        1.6431890    -1.0620130    -0.8923850
  H       -2.8222650     1.0809220     0.0000090
  H       -1.5154150     1.9136800     0.8990170
  H       -1.5154440     1.9136410    -0.8990780
  H        3.8691330    -0.2986670     0.0000080
  H        3.0571710     1.0063710    -0.8885170
  H        3.0571560     1.0063550     0.8885430
units angstrom
no_reorient  #important for SAPT in psi4, default
symmetry c1  #important for SAPT in psi4, default
}

set PROPERTIES_ORIGIN ["COM"]
properties('MP2/aug-cc-pvtz', properties = ['dipole'])
--------------------------------------------------------------------------

    Molecular point group: c1
  Charge       = 0
  Multiplicity = 1
  Basis Set: AUG-CC-PVTZ
    Blend: AUG-CC-PVTZ
  Basis Set: (AUG-CC-PVTZ AUX)
    Blend: AUG-CC-PVTZ-JKFIT

    Orbital Energies [Eh]
    ---------------------

    Doubly Occupied:

       1A    -92.218107     2A    -20.620421     3A    -20.565678
       4A    -20.549989     5A    -11.314655     6A    -11.277741
       7A    -11.239563     8A     -9.181992     9A     -6.867613
      10A     -6.866118    11A     -6.865920    12A     -1.481872
      13A     -1.369764    14A     -1.340179    15A     -1.068365
      16A     -1.028041    17A     -0.873300    18A     -0.831739
      19A     -0.719541    20A     -0.691035    21A     -0.684979
      22A     -0.653423    23A     -0.618226    24A     -0.603248
      25A     -0.600597    26A     -0.564310    27A     -0.554450
      28A     -0.545472    29A     -0.512221    30A     -0.504758
      31A     -0.492654    32A     -0.471413    33A     -0.466562

  @DF-RHF Final Energy:  -740.47396061046686

   => Energetics <=

    Nuclear Repulsion Energy =            438.4824418035544795
    One-Electron Energy =               -1889.4249131342671717
    Two-Electron Energy =                 710.4685107202457175
    Total Energy =                       -740.4739606104668610
  Basis Set: (AUG-CC-PVTZ AUX)
    Blend: AUG-CC-PVTZ-RI
    Molecular point group: c1

    Geometry (in Angstrom), charge = 0, multiplicity = 1:

       Center              X                  Y                   Z               Mass
    ------------   -----------------  -----------------  -----------------  -----------------
         S           -0.783745275540    -0.135286088658     0.020244329405    31.972071174400
         O            0.662456024460     0.616232211342    -0.136723070595    15.994914619570
         O           -0.985124275540    -0.837350088658     1.286446329405    15.994914619570
         O           -0.985139275540    -0.837390088658    -1.245931670595    15.994914619570
         C            1.796365724460    -0.407937088658     0.020229329405    12.000000000000
         C           -1.701468275540     1.379901911342     0.020227329405    12.000000000000
         C            3.070653724460     0.402497911342     0.020247329405    12.000000000000
         H            1.707031724460    -1.033610088658     0.912591329405     1.007825032230
         H            1.707049724460    -1.033597088658    -0.872143670595     1.007825032230
         H           -2.758404275540     1.109337911342     0.020250329405     1.007825032230
         H           -1.451554275540     1.942095911342     0.919258329405     1.007825032230
         H           -1.451583275540     1.942056911342    -0.878836670595     1.007825032230
         H            3.932993724460    -0.270251088658     0.020249329405     1.007825032230
         H            3.121031724460     1.034786911342    -0.868275670595     1.007825032230
         H            3.121016724460     1.034770911342     0.908784329405     1.007825032230

  Basis Set: AUG-CC-PVTZ
    Blend: AUG-CC-PVTZ
  Basis Set: (AUG-CC-PVTZ AUX)
    Blend: AUG-CC-PVTZ-JKFIT
	 Reference Energy          =    -740.4739606104668610 [Eh]
	 Singles Energy            =      -0.0000000000000000 [Eh]
	 Same-Spin Energy          =      -0.3951204981483361 [Eh]
	 Opposite-Spin Energy      =      -1.2163588668364531 [Eh]
	 Correlation Energy        =      -1.6114793649847892 [Eh]
	 Total Energy              =    -742.0854399754516635 [Eh]

	 ================> DF-SCS-MP2 Energies <==================
	-----------------------------------------------------------
	 SCS Same-Spin Scale       =       0.3333333333333333 [-]
	 SCS Opposite-Spin Scale   =       1.2000000000000000 [-]
	 SCS Same-Spin Energy      =      -0.1317068327161120 [Eh]
	 SCS Opposite-Spin Energy  =      -1.4596306402037438 [Eh]
	 SCS Correlation Energy    =      -1.5913374729198557 [Eh]
	 SCS Total Energy          =    -742.0652980833866650 [Eh]
	-----------------------------------------------------------

  Dipole Moment: [D]
     X:     1.7221      Y:     2.6717      Z:     0.3286     Total:     3.1956

*** Psi4 exiting successfully. Buy a developer a beer!
