                               Psi4 1.4a3.dev225

  ==> Input File <==

--------------------------------------------------------------------------
#psi4
#
memory 32 gb

molecule  {
0 1
  S       -0.8474370    -0.1634740     0.0000030
  O        0.6356530     0.5296900    -0.0000090
  O       -1.0489550    -0.8659360     1.2656300
  O       -1.0489590    -0.8659660    -1.2656070
  C        1.7477885    -0.4495539    -0.0000100
  C       -1.7660460     1.3512030    -0.0000130
  C        3.0069280     0.3742480     0.0000060
  H        1.6435610    -1.0619840     0.8923650
  H        1.6435710    -1.0619680    -0.8923970
  H       -2.8228660     1.0799920    -0.0000030
  H       -1.5165640     1.9135900     0.8989700
  H       -1.5165740     1.9135660    -0.8990130
  H        3.8695390    -0.2981460     0.0000030
  H        3.0572260     1.0067830    -0.8883720
  H        3.0572160     1.0067630     0.8883970
units angstrom
no_reorient  #important for SAPT in psi4, default
symmetry c1  #important for SAPT in psi4, default
}

set PROPERTIES_ORIGIN ["COM"]
properties('MP2/aug-cc-pvtz', properties = ['dipole'])
--------------------------------------------------------------------------

    Molecular point group: c1
  Charge       = 0
  Multiplicity = 1
  Basis Set: AUG-CC-PVTZ
    Blend: AUG-CC-PVTZ
  Basis Set: (AUG-CC-PVTZ AUX)
    Blend: AUG-CC-PVTZ-JKFIT

    Orbital Energies [Eh]
    ---------------------

    Doubly Occupied:

       1A    -92.220119     2A    -20.617459     3A    -20.557429
       4A    -20.557406     5A    -11.306462     6A    -11.282633
       7A    -11.236660     8A     -9.183840     9A     -6.869390
      10A     -6.868053    11A     -6.867769    12A     -1.484648
      13A     -1.375712    14A     -1.342129    15A     -1.071483
      16A     -1.029197    17A     -0.878701    18A     -0.829558
      19A     -0.724566    20A     -0.696466    21A     -0.686161
      22A     -0.655746    23A     -0.620402    24A     -0.606259
      25A     -0.601422    26A     -0.563186    27A     -0.559552
      28A     -0.545547    29A     -0.504915    30A     -0.504101
      31A     -0.492545    32A     -0.475057    33A     -0.466634

  @DF-RHF Final Energy:  -740.48441266727184

   => Energetics <=

    Nuclear Repulsion Energy =            439.1904086094303352
    One-Electron Energy =               -1890.7872302072539696
    Two-Electron Energy =                 711.1124089305518510
    Total Energy =                       -740.4844126672718403
  Basis Set: (AUG-CC-PVTZ AUX)
    Blend: AUG-CC-PVTZ-RI
    Molecular point group: c1

    Geometry (in Angstrom), charge = 0, multiplicity = 1:

       Center              X                  Y                   Z               Mass
    ------------   -----------------  -----------------  -----------------  -----------------
         S           -0.789817977667    -0.126291775037     0.000002472230    31.972071174400
         O            0.693272022333     0.566872224963    -0.000009527770    15.994914619570
         O           -0.991335977667    -0.828753775037     1.265629472230    15.994914619570
         O           -0.991339977667    -0.828783775037    -1.265607527770    15.994914619570
         C            1.805407522333    -0.412371675037    -0.000010527770    12.000000000000
         C           -1.708426977667     1.388385224963    -0.000013527770    12.000000000000
         C            3.064547022333     0.411430224963     0.000005472230    12.000000000000
         H            1.701180022333    -1.024801775037     0.892364472230     1.007825032230
         H            1.701190022333    -1.024785775037    -0.892397527770     1.007825032230
         H           -2.765246977667     1.117174224963    -0.000003527770     1.007825032230
         H           -1.458944977667     1.950772224963     0.898969472230     1.007825032230
         H           -1.458954977667     1.950748224963    -0.899013527770     1.007825032230
         H            3.927158022333    -0.260963775037     0.000002472230     1.007825032230
         H            3.114845022333     1.043965224963    -0.888372527770     1.007825032230
         H            3.114835022333     1.043945224963     0.888396472230     1.007825032230

  Basis Set: AUG-CC-PVTZ
    Blend: AUG-CC-PVTZ
  Basis Set: (AUG-CC-PVTZ AUX)
    Blend: AUG-CC-PVTZ-JKFIT
	 Reference Energy          =    -740.4844126672718403 [Eh]
	 Singles Energy            =      -0.0000000000000000 [Eh]
	 Same-Spin Energy          =      -0.3943187747642900 [Eh]
	 Opposite-Spin Energy      =      -1.2138775284971479 [Eh]
	 Correlation Energy        =      -1.6081963032614379 [Eh]
	 Total Energy              =    -742.0926089705333197 [Eh]

	 ================> DF-SCS-MP2 Energies <==================
	-----------------------------------------------------------
	 SCS Same-Spin Scale       =       0.3333333333333333 [-]
	 SCS Opposite-Spin Scale   =       1.2000000000000000 [-]
	 SCS Same-Spin Energy      =      -0.1314395915880966 [Eh]
	 SCS Opposite-Spin Energy  =      -1.4566530341965775 [Eh]
	 SCS Correlation Energy    =      -1.5880926257846741 [Eh]
	 SCS Total Energy          =    -742.0725052930565653 [Eh]
	-----------------------------------------------------------

  Dipole Moment: [D]
     X:     1.5153      Y:     2.8349      Z:    -0.0000     Total:     3.2145

*** Psi4 exiting successfully. Buy a developer a beer!
