                               Psi4 1.3.2 release

  ==> Input File <==

--------------------------------------------------------------------------
#psi4
#
memory 32 gb

molecule  {
0 1
  S       -0.7956180    -0.2654782     0.0000039
  O        0.6356330     0.5297810    -0.0000160
  O       -1.0489850    -0.8657660     1.2662050
  O       -1.0490000    -0.8658060    -1.2661730
  C        1.7325050    -0.4363530    -0.0000120
  C       -1.7653290     1.3514860    -0.0000140
  C        3.0067930     0.3740820     0.0000060
  H        1.6431710    -1.0620260     0.8923500
  H        1.6431890    -1.0620130    -0.8923850
  H       -2.8222650     1.0809220     0.0000090
  H       -1.5154150     1.9136800     0.8990170
  H       -1.5154440     1.9136410    -0.8990780
  H        3.8691330    -0.2986670     0.0000080
  H        3.0571710     1.0063710    -0.8885170
  H        3.0571560     1.0063550     0.8885430
units angstrom
no_reorient  #important for SAPT in psi4, default
symmetry c1  #important for SAPT in psi4, default
}

set PROPERTIES_ORIGIN ["COM"]
properties('MP2/aug-cc-pvtz', properties = ['dipole'])
--------------------------------------------------------------------------

    Molecular point group: c1
  Charge       = 0
  Multiplicity = 1
  Basis Set: AUG-CC-PVTZ
    Blend: AUG-CC-PVTZ
  Basis Set: (AUG-CC-PVTZ AUX)
    Blend: AUG-CC-PVTZ-JKFIT

    Orbital Energies [Eh]
    ---------------------

    Doubly Occupied:

       1A    -92.218177     2A    -20.623423     3A    -20.568290
       4A    -20.568267     5A    -11.308192     6A    -11.267695
       7A    -11.237726     8A     -9.182380     9A     -6.867930
      10A     -6.866804    11A     -6.866369    12A     -1.506449
      13A     -1.394040    14A     -1.374502    15A     -1.057352
      16A     -1.000370    17A     -0.877609    18A     -0.835137
      19A     -0.728743    20A     -0.702365    21A     -0.691238
      22A     -0.658254    23A     -0.620149    24A     -0.598377
      25A     -0.596618    26A     -0.570217    27A     -0.561562
      28A     -0.549374    29A     -0.513501    30A     -0.512883
      31A     -0.508710    32A     -0.479527    33A     -0.453868

  @DF-RHF Final Energy:  -740.47330777696754

   => Energetics <=

    Nuclear Repulsion Energy =            440.6025749033029797
    One-Electron Energy =               -1893.4195731862869252
    Two-Electron Energy =                 712.3436905060165145
    Total Energy =                       -740.4733077769675447
  Basis Set: (AUG-CC-PVTZ AUX)
    Blend: AUG-CC-PVTZ-RI
    Molecular point group: c1

    Geometry (in Angstrom), charge = 0, multiplicity = 1:

       Center              X                  Y                   Z               Mass
    ------------   -----------------  -----------------  -----------------  -----------------
         S           -0.749936516912    -0.203339620567     0.000003196925    31.972071174400
         O            0.681314483088     0.591919579433    -0.000016703075    15.994914619570
         O           -1.003303516912    -0.803627420567     1.266204296925    15.994914619570
         O           -1.003318516912    -0.803667420567    -1.266173703075    15.994914619570
         C            1.778186483088    -0.374214420567    -0.000012703075    12.000000000000
         C           -1.719647516912     1.413624579433    -0.000014703075    12.000000000000
         C            3.052474483088     0.436220579433     0.000005296925    12.000000000000
         H            1.688852483088    -0.999887420567     0.892349296925     1.007825032230
         H            1.688870483088    -0.999874420567    -0.892385703075     1.007825032230
         H           -2.776583516912     1.143060579433     0.000008296925     1.007825032230
         H           -1.469733516912     1.975818579433     0.899016296925     1.007825032230
         H           -1.469762516912     1.975779579433    -0.899078703075     1.007825032230
         H            3.914814483088    -0.236528420567     0.000007296925     1.007825032230
         H            3.102852483088     1.068509579433    -0.888517703075     1.007825032230
         H            3.102837483088     1.068493579433     0.888542296925     1.007825032230

  Basis Set: AUG-CC-PVTZ
    Blend: AUG-CC-PVTZ
  Basis Set: (AUG-CC-PVTZ AUX)
    Blend: AUG-CC-PVTZ-JKFIT
	 Reference Energy          =    -740.4733077769675447 [Eh]
	 Singles Energy            =      -0.0000000000000000 [Eh]
	 Same-Spin Energy          =      -0.3935734993691703 [Eh]
	 Opposite-Spin Energy      =      -1.2134737753809306 [Eh]
	 Correlation Energy        =      -1.6070472747501010 [Eh]
	 Total Energy              =    -742.0803550517176745 [Eh]

	 ================> DF-SCS-MP2 Energies <==================
	-----------------------------------------------------------
	 SCS Same-Spin Scale       =       0.3333333333333333 [-]
	 SCS Opposite-Spin Scale   =       1.2000000000000000 [-]
	 SCS Same-Spin Energy      =      -0.1311911664563901 [Eh]
	 SCS Opposite-Spin Energy  =      -1.4561685304571166 [Eh]
	 SCS Correlation Energy    =      -1.5873596969135066 [Eh]
	 SCS Total Energy          =    -742.0606674738810398 [Eh]
	-----------------------------------------------------------

  Dipole Moment: [D]
     X:     1.8449      Y:     1.9607      Z:    -0.0001     Total:     2.6922

*** Psi4 exiting successfully. Buy a developer a beer!
