                               Psi4 1.3.2 release

  ==> Input File <==

--------------------------------------------------------------------------
#psi4
#
memory 32 gb

molecule  {
0 1
  S       -0.8476060    -0.1637020     0.0000030
  O        0.6356330     0.5297810    -0.0000160
  O       -1.0489850    -0.8657660     1.2662050
  O       -1.0490000    -0.8658060    -1.2661730
  C        1.8075463    -0.5024500    -0.0000117
  C       -1.7653290     1.3514860    -0.0000140
  C        3.0067930     0.3740820     0.0000060
  H        1.6431710    -1.0620260     0.8923500
  H        1.6431890    -1.0620130    -0.8923850
  H       -2.8222650     1.0809220     0.0000090
  H       -1.5154150     1.9136800     0.8990170
  H       -1.5154440     1.9136410    -0.8990780
  H        3.8691330    -0.2986670     0.0000080
  H        3.0571710     1.0063710    -0.8885170
  H        3.0571560     1.0063550     0.8885430
units angstrom
no_reorient  #important for SAPT in psi4, default
symmetry c1  #important for SAPT in psi4, default
}

set PROPERTIES_ORIGIN ["COM"]
properties('MP2/aug-cc-pvtz', properties = ['dipole'])
--------------------------------------------------------------------------

    Molecular point group: c1
  Charge       = 0
  Multiplicity = 1
  Basis Set: AUG-CC-PVTZ
    Blend: AUG-CC-PVTZ
  Basis Set: (AUG-CC-PVTZ AUX)
    Blend: AUG-CC-PVTZ-JKFIT

    Orbital Energies [Eh]
    ---------------------

    Doubly Occupied:

       1A    -92.214707     2A    -20.607582     3A    -20.553162
       4A    -20.553139     5A    -11.311867     6A    -11.278509
       7A    -11.240452     8A     -9.178334     9A     -6.863821
      10A     -6.862608    11A     -6.862345    12A     -1.475123
      13A     -1.357185    14A     -1.338015    15A     -1.072800
      16A     -1.032130    17A     -0.878263    18A     -0.826903
      19A     -0.714354    20A     -0.694754    21A     -0.680743
      22A     -0.657765    23A     -0.614763    24A     -0.603061
      25A     -0.597895    26A     -0.566207    27A     -0.560560
      28A     -0.539703    29A     -0.514594    30A     -0.503510
      31A     -0.488459    32A     -0.469752    33A     -0.463168

  @DF-RHF Final Energy:  -740.47693829580919

   => Energetics <=

    Nuclear Repulsion Energy =            437.7490673531480638
    One-Electron Energy =               -1888.0995452392369316
    Two-Electron Energy =                 709.8735395902796199
    Total Energy =                       -740.4769382958091910
  Basis Set: (AUG-CC-PVTZ AUX)
    Blend: AUG-CC-PVTZ-RI
    Molecular point group: c1

    Geometry (in Angstrom), charge = 0, multiplicity = 1:

       Center              X                  Y                   Z               Mass
    ------------   -----------------  -----------------  -----------------  -----------------
         S           -0.795782991132    -0.121405732390     0.000002499916    31.972071174400
         O            0.687456008868     0.572077267610    -0.000016500084    15.994914619570
         O           -0.997161991132    -0.823469732390     1.266204499916    15.994914619570
         O           -0.997176991132    -0.823509732390    -1.266173500084    15.994914619570
         C            1.859369308868    -0.460153732390    -0.000012200084    12.000000000000
         C           -1.713505991132     1.393782267610    -0.000014500084    12.000000000000
         C            3.058616008868     0.416378267610     0.000005499916    12.000000000000
         H            1.694994008868    -1.019729732390     0.892349499916     1.007825032230
         H            1.695012008868    -1.019716732390    -0.892385500084     1.007825032230
         H           -2.770441991132     1.123218267610     0.000008499916     1.007825032230
         H           -1.463591991132     1.955976267610     0.899016499916     1.007825032230
         H           -1.463620991132     1.955937267610    -0.899078500084     1.007825032230
         H            3.920956008868    -0.256370732390     0.000007499916     1.007825032230
         H            3.108994008868     1.048667267610    -0.888517500084     1.007825032230
         H            3.108979008868     1.048651267610     0.888542499916     1.007825032230

  Basis Set: AUG-CC-PVTZ
    Blend: AUG-CC-PVTZ
  Basis Set: (AUG-CC-PVTZ AUX)
    Blend: AUG-CC-PVTZ-JKFIT
	 Reference Energy          =    -740.4769382958091910 [Eh]
	 Singles Energy            =      -0.0000000000000000 [Eh]
	 Same-Spin Energy          =      -0.3945748760791812 [Eh]
	 Opposite-Spin Energy      =      -1.2148247838075603 [Eh]
	 Correlation Energy        =      -1.6093996598867415 [Eh]
	 Total Energy              =    -742.0863379556959671 [Eh]

	 ================> DF-SCS-MP2 Energies <==================
	-----------------------------------------------------------
	 SCS Same-Spin Scale       =       0.3333333333333333 [-]
	 SCS Opposite-Spin Scale   =       1.2000000000000000 [-]
	 SCS Same-Spin Energy      =      -0.1315249586930604 [Eh]
	 SCS Opposite-Spin Energy  =      -1.4577897405690723 [Eh]
	 SCS Correlation Energy    =      -1.5893146992621328 [Eh]
	 SCS Total Energy          =    -742.0662529950712951 [Eh]
	-----------------------------------------------------------

  Dipole Moment: [D]
     X:     1.9019      Y:     2.7195      Z:    -0.0001     Total:     3.3185

*** Psi4 exiting successfully. Buy a developer a beer!
