                               Psi4 1.3.2 release

  ==> Input File <==

--------------------------------------------------------------------------
#psi4
#
memory 32 gb

molecule  {
0 1
  S       -0.8594830    -0.1377103     0.0000028
  O        0.6356330     0.5297810    -0.0000160
  O       -1.0489850    -0.8657660     1.2662050
  O       -1.0490000    -0.8658060    -1.2661730
  C        1.7325050    -0.4363530    -0.0000120
  C       -1.7653290     1.3514860    -0.0000140
  C        3.0067930     0.3740820     0.0000060
  H        1.6431710    -1.0620260     0.8923500
  H        1.6431890    -1.0620130    -0.8923850
  H       -2.8222650     1.0809220     0.0000090
  H       -1.5154150     1.9136800     0.8990170
  H       -1.5154440     1.9136410    -0.8990780
  H        3.8691330    -0.2986670     0.0000080
  H        3.0571710     1.0063710    -0.8885170
  H        3.0571560     1.0063550     0.8885430
units angstrom
no_reorient  #important for SAPT in psi4, default
symmetry c1  #important for SAPT in psi4, default
}

set PROPERTIES_ORIGIN ["COM"]
properties('MP2/aug-cc-pvtz', properties = ['dipole'])
--------------------------------------------------------------------------

    Molecular point group: c1
  Charge       = 0
  Multiplicity = 1
  Basis Set: AUG-CC-PVTZ
    Blend: AUG-CC-PVTZ
  Basis Set: (AUG-CC-PVTZ AUX)
    Blend: AUG-CC-PVTZ-JKFIT

    Orbital Energies [Eh]
    ---------------------

    Doubly Occupied:

       1A    -92.222546     2A    -20.619026     3A    -20.556297
       4A    -20.556274     5A    -11.304946     6A    -11.287035
       7A    -11.235476     8A     -9.186332     9A     -6.871874
      10A     -6.870559    11A     -6.870090    12A     -1.482610
      13A     -1.376466    14A     -1.334507    15A     -1.079211
      16A     -1.031992    17A     -0.880129    18A     -0.828970
      19A     -0.727603    20A     -0.696932    21A     -0.686734
      22A     -0.656363    23A     -0.624312    24A     -0.607001
      25A     -0.603142    26A     -0.562044    27A     -0.560403
      28A     -0.542161    29A     -0.502101    30A     -0.499130
      31A     -0.488795    32A     -0.478841    33A     -0.463469

  @DF-RHF Final Energy:  -740.48266090522839

   => Energetics <=

    Nuclear Repulsion Energy =            439.2308012109338620
    One-Electron Energy =               -1890.8401801861343756
    Two-Electron Energy =                 711.1267180699721848
    Total Energy =                       -740.4826609052283857
  Basis Set: (AUG-CC-PVTZ AUX)
    Blend: AUG-CC-PVTZ-RI
    Molecular point group: c1

    Geometry (in Angstrom), charge = 0, multiplicity = 1:

       Center              X                  Y                   Z               Mass
    ------------   -----------------  -----------------  -----------------  -----------------
         S           -0.797337188962    -0.108510147047     0.000002380504    31.972071174400
         O            0.697778811038     0.558981152953    -0.000016419496    15.994914619570
         O           -0.986839188962    -0.836565847047     1.266204580504    15.994914619570
         O           -0.986854188962    -0.836605847047    -1.266173419496    15.994914619570
         C            1.794650811038    -0.407152847047    -0.000012419496    12.000000000000
         C           -1.703183188962     1.380686152953    -0.000014419496    12.000000000000
         C            3.068938811038     0.403282152953     0.000005580504    12.000000000000
         H            1.705316811038    -1.032825847047     0.892349580504     1.007825032230
         H            1.705334811038    -1.032812847047    -0.892385419496     1.007825032230
         H           -2.760119188962     1.110122152953     0.000008580504     1.007825032230
         H           -1.453269188962     1.942880152953     0.899016580504     1.007825032230
         H           -1.453298188962     1.942841152953    -0.899078419496     1.007825032230
         H            3.931278811038    -0.269466847047     0.000007580504     1.007825032230
         H            3.119316811038     1.035571152953    -0.888517419496     1.007825032230
         H            3.119301811038     1.035555152953     0.888542580504     1.007825032230

  Basis Set: AUG-CC-PVTZ
    Blend: AUG-CC-PVTZ
  Basis Set: (AUG-CC-PVTZ AUX)
    Blend: AUG-CC-PVTZ-JKFIT
	 Reference Energy          =    -740.4826609052283857 [Eh]
	 Singles Energy            =      -0.0000000000000000 [Eh]
	 Same-Spin Energy          =      -0.3947454008711496 [Eh]
	 Opposite-Spin Energy      =      -1.2143111004024245 [Eh]
	 Correlation Energy        =      -1.6090565012735740 [Eh]
	 Total Energy              =    -742.0917174065019708 [Eh]

	 ================> DF-SCS-MP2 Energies <==================
	-----------------------------------------------------------
	 SCS Same-Spin Scale       =       0.3333333333333333 [-]
	 SCS Opposite-Spin Scale   =       1.2000000000000000 [-]
	 SCS Same-Spin Energy      =      -0.1315818002903832 [Eh]
	 SCS Opposite-Spin Energy  =      -1.4571733204829094 [Eh]
	 SCS Correlation Energy    =      -1.5887551207732926 [Eh]
	 SCS Total Energy          =    -742.0714160260016570 [Eh]
	-----------------------------------------------------------

  Dipole Moment: [D]
     X:     1.3257      Y:     3.0853      Z:    -0.0001     Total:     3.3581

*** Psi4 exiting successfully. Buy a developer a beer!
