                               Psi4 1.3.2 release

  ==> Input File <==

--------------------------------------------------------------------------
#psi4
#
memory 32 gb

molecule  {
0 1
  S       -0.8476060    -0.1637020     0.0000030
  O        0.6402344     0.5193513     0.0261886
  O       -1.0489850    -0.8657660     1.2662050
  O       -1.0490000    -0.8658060    -1.2661730
  C        1.7325050    -0.4363530    -0.0000120
  C       -1.7653290     1.3514860    -0.0000140
  C        3.0067930     0.3740820     0.0000060
  H        1.6431710    -1.0620260     0.8923500
  H        1.6431890    -1.0620130    -0.8923850
  H       -2.8222650     1.0809220     0.0000090
  H       -1.5154150     1.9136800     0.8990170
  H       -1.5154440     1.9136410    -0.8990780
  H        3.8691330    -0.2986670     0.0000080
  H        3.0571710     1.0063710    -0.8885170
  H        3.0571560     1.0063550     0.8885430
units angstrom
no_reorient  #important for SAPT in psi4, default
symmetry c1  #important for SAPT in psi4, default
}

set PROPERTIES_ORIGIN ["COM"]
properties('MP2/aug-cc-pvtz', properties = ['dipole'])
--------------------------------------------------------------------------

    Molecular point group: c1
  Charge       = 0
  Multiplicity = 1
  Basis Set: AUG-CC-PVTZ
    Blend: AUG-CC-PVTZ
  Basis Set: (AUG-CC-PVTZ AUX)
    Blend: AUG-CC-PVTZ-JKFIT

    Orbital Energies [Eh]
    ---------------------

    Doubly Occupied:

       1A    -92.222015     2A    -20.619334     3A    -20.559992
       4A    -20.557329     5A    -11.304130     6A    -11.284530
       7A    -11.235333     8A     -9.185731     9A     -6.871293
      10A     -6.869935    11A     -6.869625    12A     -1.488101
      13A     -1.382207    14A     -1.343192    15A     -1.072179
      16A     -1.027997    17A     -0.880655    18A     -0.829394
      19A     -0.728282    20A     -0.698427    21A     -0.687851
      22A     -0.655526    23A     -0.622645    24A     -0.607445
      25A     -0.603383    26A     -0.563800    27A     -0.561544
      28A     -0.543378    29A     -0.503674    30A     -0.500760
      31A     -0.493148    32A     -0.476537    33A     -0.466674

  @DF-RHF Final Energy:  -740.48514422072253

   => Energetics <=

    Nuclear Repulsion Energy =            439.6841601410034741
    One-Electron Energy =               -1891.7065156149924405
    Two-Electron Energy =                 711.5372112532663778
    Total Energy =                       -740.4851442207225318
  Basis Set: (AUG-CC-PVTZ AUX)
    Blend: AUG-CC-PVTZ-RI
    Molecular point group: c1

    Geometry (in Angstrom), charge = 0, multiplicity = 1:

       Center              X                  Y                   Z               Mass
    ------------   -----------------  -----------------  -----------------  -----------------
         S           -0.789115514126    -0.126456085494    -0.003377105920    31.972071174400
         O            0.698724885874     0.556597214506     0.022808494080    15.994914619570
         O           -0.990494514126    -0.828520085494     1.262824894080    15.994914619570
         O           -0.990509514126    -0.828560085494    -1.269553105920    15.994914619570
         C            1.790995485874    -0.399107085494    -0.003392105920    12.000000000000
         C           -1.706838514126     1.388731914506    -0.003394105920    12.000000000000
         C            3.065283485874     0.411327914506    -0.003374105920    12.000000000000
         H            1.701661485874    -1.024780085494     0.888969894080     1.007825032230
         H            1.701679485874    -1.024767085494    -0.895765105920     1.007825032230
         H           -2.763774514126     1.118167914506    -0.003371105920     1.007825032230
         H           -1.456924514126     1.950925914506     0.895636894080     1.007825032230
         H           -1.456953514126     1.950886914506    -0.902458105920     1.007825032230
         H            3.927623485874    -0.261421085494    -0.003372105920     1.007825032230
         H            3.115661485874     1.043616914506    -0.891897105920     1.007825032230
         H            3.115646485874     1.043600914506     0.885162894080     1.007825032230

  Basis Set: AUG-CC-PVTZ
    Blend: AUG-CC-PVTZ
  Basis Set: (AUG-CC-PVTZ AUX)
    Blend: AUG-CC-PVTZ-JKFIT
	 Reference Energy          =    -740.4851442207225318 [Eh]
	 Singles Energy            =      -0.0000000000000000 [Eh]
	 Same-Spin Energy          =      -0.3942579988090062 [Eh]
	 Opposite-Spin Energy      =      -1.2134906837879755 [Eh]
	 Correlation Energy        =      -1.6077486825969818 [Eh]
	 Total Energy              =    -742.0928929033194663 [Eh]

	 ================> DF-SCS-MP2 Energies <==================
	-----------------------------------------------------------
	 SCS Same-Spin Scale       =       0.3333333333333333 [-]
	 SCS Opposite-Spin Scale   =       1.2000000000000000 [-]
	 SCS Same-Spin Energy      =      -0.1314193329363354 [Eh]
	 SCS Opposite-Spin Energy  =      -1.4561888205455706 [Eh]
	 SCS Correlation Energy    =      -1.5876081534819060 [Eh]
	 SCS Total Energy          =    -742.0727523742044696 [Eh]
	-----------------------------------------------------------

  Dipole Moment: [D]
     X:     1.3724      Y:     2.8956      Z:    -0.0563     Total:     3.2049

*** Psi4 exiting successfully. Buy a developer a beer!
