                               Psi4 1.3.2 release

  ==> Input File <==

--------------------------------------------------------------------------
#psi4
#
memory 32 gb

molecule  {
0 1
  S       -0.8476060    -0.1637020     0.0000030
  O        0.6999964     0.3709413    -0.0000140
  O       -1.0489850    -0.8657660     1.2662050
  O       -1.0490000    -0.8658060    -1.2661730
  C        1.7325050    -0.4363530    -0.0000120
  C       -1.7653290     1.3514860    -0.0000140
  C        3.0067930     0.3740820     0.0000060
  H        1.6431710    -1.0620260     0.8923500
  H        1.6431890    -1.0620130    -0.8923850
  H       -2.8222650     1.0809220     0.0000090
  H       -1.5154150     1.9136800     0.8990170
  H       -1.5154440     1.9136410    -0.8990780
  H        3.8691330    -0.2986670     0.0000080
  H        3.0571710     1.0063710    -0.8885170
  H        3.0571560     1.0063550     0.8885430
units angstrom
no_reorient  #important for SAPT in psi4, default
symmetry c1  #important for SAPT in psi4, default
}

set PROPERTIES_ORIGIN ["COM"]
properties('MP2/aug-cc-pvtz', properties = ['dipole'])
--------------------------------------------------------------------------

    Molecular point group: c1
  Charge       = 0
  Multiplicity = 1
  Basis Set: AUG-CC-PVTZ
    Blend: AUG-CC-PVTZ
  Basis Set: (AUG-CC-PVTZ AUX)
    Blend: AUG-CC-PVTZ-JKFIT

    Orbital Energies [Eh]
    ---------------------

    Doubly Occupied:

       1A    -92.230420     2A    -20.611534     3A    -20.560007
       4A    -20.559984     5A    -11.297508     6A    -11.286302
       7A    -11.228137     8A     -9.193615     9A     -6.879192
      10A     -6.877889    11A     -6.877383    12A     -1.505718
      13A     -1.408937    14A     -1.345644    15A     -1.081021
      16A     -1.028107    17A     -0.902089    18A     -0.820721
      19A     -0.745188    20A     -0.715869    21A     -0.692887
      22A     -0.661799    23A     -0.632692    24A     -0.615722
      25A     -0.614082    26A     -0.567526    27A     -0.562500
      28A     -0.538687    29A     -0.500304    30A     -0.493461
      31A     -0.487213    32A     -0.474580    33A     -0.453585

  @DF-RHF Final Energy:  -740.47164365528738

   => Energetics <=

    Nuclear Repulsion Energy =            442.0511707795057532
    One-Electron Energy =               -1896.1450211691189907
    Two-Electron Energy =                 713.6222067343258004
    Total Energy =                       -740.4716436552873802
  Basis Set: (AUG-CC-PVTZ AUX)
    Blend: AUG-CC-PVTZ-RI
    Molecular point group: c1

    Geometry (in Angstrom), charge = 0, multiplicity = 1:

       Center              X                  Y                   Z               Mass
    ------------   -----------------  -----------------  -----------------  -----------------
         S           -0.796823082213    -0.107315491474     0.000002271002    31.972071174400
         O            0.750779317787     0.427327808526    -0.000014728998    15.994914619570
         O           -0.998202082213    -0.809379491474     1.266204271002    15.994914619570
         O           -0.998217082213    -0.809419491474    -1.266173728998    15.994914619570
         C            1.783287917787    -0.379966491474    -0.000012728998    12.000000000000
         C           -1.714546082213     1.407872508526    -0.000014728998    12.000000000000
         C            3.057575917787     0.430468508526     0.000005271002    12.000000000000
         H            1.693953917787    -1.005639491474     0.892349271002     1.007825032230
         H            1.693971917787    -1.005626491474    -0.892385728998     1.007825032230
         H           -2.771482082213     1.137308508526     0.000008271002     1.007825032230
         H           -1.464632082213     1.970066508526     0.899016271002     1.007825032230
         H           -1.464661082213     1.970027508526    -0.899078728998     1.007825032230
         H            3.919915917787    -0.242280491474     0.000007271002     1.007825032230
         H            3.107953917787     1.062757508526    -0.888517728998     1.007825032230
         H            3.107938917787     1.062741508526     0.888542271002     1.007825032230

  Basis Set: AUG-CC-PVTZ
    Blend: AUG-CC-PVTZ
  Basis Set: (AUG-CC-PVTZ AUX)
    Blend: AUG-CC-PVTZ-JKFIT
	 Reference Energy          =    -740.4716436552873802 [Eh]
	 Singles Energy            =      -0.0000000000000000 [Eh]
	 Same-Spin Energy          =      -0.3938332878972308 [Eh]
	 Opposite-Spin Energy      =      -1.2105675429763985 [Eh]
	 Correlation Energy        =      -1.6044008308736293 [Eh]
	 Total Energy              =    -742.0760444861609813 [Eh]

	 ================> DF-SCS-MP2 Energies <==================
	-----------------------------------------------------------
	 SCS Same-Spin Scale       =       0.3333333333333333 [-]
	 SCS Opposite-Spin Scale   =       1.2000000000000000 [-]
	 SCS Same-Spin Energy      =      -0.1312777626324103 [Eh]
	 SCS Opposite-Spin Energy  =      -1.4526810515716782 [Eh]
	 SCS Correlation Energy    =      -1.5839588142040884 [Eh]
	 SCS Total Energy          =    -742.0556024694914186 [Eh]
	-----------------------------------------------------------

  Dipole Moment: [D]
     X:     0.6884      Y:     3.3819      Z:    -0.0001     Total:     3.4513

*** Psi4 exiting successfully. Buy a developer a beer!
