                               Psi4 1.3.2 release

  ==> Input File <==

--------------------------------------------------------------------------
#psi4
#
memory 32 gb

molecule  {
0 1
  S       -0.8476060    -0.1637020     0.0000030
  O        0.4544575     0.4450731    -0.0000137
  O       -1.0489850    -0.8657660     1.2662050
  O       -1.0490000    -0.8658060    -1.2661730
  C        1.7325050    -0.4363530    -0.0000120
  C       -1.7653290     1.3514860    -0.0000140
  C        3.0067930     0.3740820     0.0000060
  H        1.6431710    -1.0620260     0.8923500
  H        1.6431890    -1.0620130    -0.8923850
  H       -2.8222650     1.0809220     0.0000090
  H       -1.5154150     1.9136800     0.8990170
  H       -1.5154440     1.9136410    -0.8990780
  H        3.8691330    -0.2986670     0.0000080
  H        3.0571710     1.0063710    -0.8885170
  H        3.0571560     1.0063550     0.8885430
units angstrom
no_reorient  #important for SAPT in psi4, default
symmetry c1  #important for SAPT in psi4, default
}

set PROPERTIES_ORIGIN ["COM"]
properties('MP2/aug-cc-pvtz', properties = ['dipole'])
--------------------------------------------------------------------------

    Molecular point group: c1
  Charge       = 0
  Multiplicity = 1
  Basis Set: AUG-CC-PVTZ
    Blend: AUG-CC-PVTZ
  Basis Set: (AUG-CC-PVTZ AUX)
    Blend: AUG-CC-PVTZ-JKFIT

    Orbital Energies [Eh]
    ---------------------

    Doubly Occupied:

       1A    -92.199346     2A    -20.620411     3A    -20.533945
       4A    -20.533922     5A    -11.336412     6A    -11.266391
       7A    -11.255912     8A     -9.165435     9A     -6.852119
      10A     -6.849668    11A     -6.849183    12A     -1.537901
      13A     -1.375748    14A     -1.325056    15A     -1.085600
      16A     -1.027904    17A     -0.903853    18A     -0.823271
      19A     -0.724942    20A     -0.716929    21A     -0.701821
      22A     -0.653845    23A     -0.614219    24A     -0.601304
      25A     -0.597674    26A     -0.576078    27A     -0.571150
      28A     -0.548496    29A     -0.520659    30A     -0.506975
      31A     -0.476042    32A     -0.462549    33A     -0.449251

  @DF-RHF Final Energy:  -740.47122861086928

   => Energetics <=

    Nuclear Repulsion Energy =            445.8269557533691341
    One-Electron Energy =               -1904.0683433457161300
    Two-Electron Energy =                 717.7701589814778345
    Total Energy =                       -740.4712286108692751
  Basis Set: (AUG-CC-PVTZ AUX)
    Blend: AUG-CC-PVTZ-RI
    Molecular point group: c1

    Geometry (in Angstrom), charge = 0, multiplicity = 1:

       Center              X                  Y                   Z               Mass
    ------------   -----------------  -----------------  -----------------  -----------------
         S           -0.765155671654    -0.116876347803     0.000002232310    31.972071174400
         O            0.536907828346     0.491898752197    -0.000014467690    15.994914619570
         O           -0.966534671654    -0.818940347803     1.266204232310    15.994914619570
         O           -0.966549671654    -0.818980347803    -1.266173767690    15.994914619570
         C            1.814955328346    -0.389527347803    -0.000012767690    12.000000000000
         C           -1.682878671654     1.398311652197    -0.000014767690    12.000000000000
         C            3.089243328346     0.420907652197     0.000005232310    12.000000000000
         H            1.725621328346    -1.015200347803     0.892349232310     1.007825032230
         H            1.725639328346    -1.015187347803    -0.892385767690     1.007825032230
         H           -2.739814671654     1.127747652197     0.000008232310     1.007825032230
         H           -1.432964671654     1.960505652197     0.899016232310     1.007825032230
         H           -1.432993671654     1.960466652197    -0.899078767690     1.007825032230
         H            3.951583328346    -0.251841347803     0.000007232310     1.007825032230
         H            3.139621328346     1.053196652197    -0.888517767690     1.007825032230
         H            3.139606328346     1.053180652197     0.888542232310     1.007825032230

  Basis Set: AUG-CC-PVTZ
    Blend: AUG-CC-PVTZ
  Basis Set: (AUG-CC-PVTZ AUX)
    Blend: AUG-CC-PVTZ-JKFIT
	 Reference Energy          =    -740.4712286108692751 [Eh]
	 Singles Energy            =      -0.0000000000000000 [Eh]
	 Same-Spin Energy          =      -0.3909735774490812 [Eh]
	 Opposite-Spin Energy      =      -1.2050423844134825 [Eh]
	 Correlation Energy        =      -1.5960159618625638 [Eh]
	 Total Energy              =    -742.0672445727318518 [Eh]

	 ================> DF-SCS-MP2 Energies <==================
	-----------------------------------------------------------
	 SCS Same-Spin Scale       =       0.3333333333333333 [-]
	 SCS Opposite-Spin Scale   =       1.2000000000000000 [-]
	 SCS Same-Spin Energy      =      -0.1303245258163604 [Eh]
	 SCS Opposite-Spin Energy  =      -1.4460508612961791 [Eh]
	 SCS Correlation Energy    =      -1.5763753871125394 [Eh]
	 SCS Total Energy          =    -742.0476039979818097 [Eh]
	-----------------------------------------------------------

  Dipole Moment: [D]
     X:     3.2916      Y:     3.0757      Z:    -0.0001     Total:     4.5050

*** Psi4 exiting successfully. Buy a developer a beer!
