                               Psi4 1.4a3.dev225

  ==> Input File <==

--------------------------------------------------------------------------
#psi4
#
memory 32 gb

molecule  {
0 1
  S       -0.8474370    -0.1634740     0.0000030
  O        0.6537717     0.5381583    -0.0000091
  O       -1.0489550    -0.8659360     1.2656300
  O       -1.0489590    -0.8659660    -1.2656070
  C        1.7327780    -0.4363370    -0.0000100
  C       -1.7660460     1.3512030    -0.0000130
  C        3.0069280     0.3742480     0.0000060
  H        1.6435610    -1.0619840     0.8923650
  H        1.6435710    -1.0619680    -0.8923970
  H       -2.8228660     1.0799920    -0.0000030
  H       -1.5165640     1.9135900     0.8989700
  H       -1.5165740     1.9135660    -0.8990130
  H        3.8695390    -0.2981460     0.0000030
  H        3.0572260     1.0067830    -0.8883720
  H        3.0572160     1.0067630     0.8883970
units angstrom
no_reorient  #important for SAPT in psi4, default
symmetry c1  #important for SAPT in psi4, default
}

set PROPERTIES_ORIGIN ["COM"]
properties('MP2/aug-cc-pvtz', properties = ['dipole'])
--------------------------------------------------------------------------

    Molecular point group: c1
  Charge       = 0
  Multiplicity = 1
  Basis Set: AUG-CC-PVTZ
    Blend: AUG-CC-PVTZ
  Basis Set: (AUG-CC-PVTZ AUX)
    Blend: AUG-CC-PVTZ-JKFIT

    Orbital Energies [Eh]
    ---------------------

    Doubly Occupied:

       1A    -92.222799     2A    -20.619328     3A    -20.560631
       4A    -20.560607     5A    -11.302955     6A    -11.284998
       7A    -11.234152     8A     -9.186533     9A     -6.872039
      10A     -6.870684    11A     -6.870416    12A     -1.484929
      13A     -1.380360    14A     -1.344672    15A     -1.071011
      16A     -1.027096    17A     -0.877204    18A     -0.830648
      19A     -0.727142    20A     -0.696316    21A     -0.686983
      22A     -0.655980    23A     -0.622273    24A     -0.607839
      25A     -0.603978    26A     -0.562201    27A     -0.559766
      28A     -0.543406    29A     -0.503769    30A     -0.500668
      31A     -0.494254    32A     -0.476102    33A     -0.468157

  @DF-RHF Final Energy:  -740.48292802265701

   => Energetics <=

    Nuclear Repulsion Energy =            439.0109649323165399
    One-Electron Energy =               -1890.3679952775605670
    Two-Electron Energy =                 710.8741023225870777
    Total Energy =                       -740.4829280226570063
  Basis Set: (AUG-CC-PVTZ AUX)
    Blend: AUG-CC-PVTZ-RI
    Molecular point group: c1

    Geometry (in Angstrom), charge = 0, multiplicity = 1:

       Center              X                  Y                   Z               Mass
    ------------   -----------------  -----------------  -----------------  -----------------
         S           -0.790702363867    -0.128662795210     0.000002485127    31.972071174400
         O            0.710506336133     0.572969504790    -0.000009614873    15.994914619570
         O           -0.992220363867    -0.831124795210     1.265629485127    15.994914619570
         O           -0.992224363867    -0.831154795210    -1.265607514873    15.994914619570
         C            1.789512636133    -0.401525795210    -0.000010514873    12.000000000000
         C           -1.709311363867     1.386014204790    -0.000013514873    12.000000000000
         C            3.063662636133     0.409059204790     0.000005485127    12.000000000000
         H            1.700295636133    -1.027172795210     0.892364485127     1.007825032230
         H            1.700305636133    -1.027156795210    -0.892397514873     1.007825032230
         H           -2.766131363867     1.114803204790    -0.000003514873     1.007825032230
         H           -1.459829363867     1.948401204790     0.898969485127     1.007825032230
         H           -1.459839363867     1.948377204790    -0.899013514873     1.007825032230
         H            3.926273636133    -0.263334795210     0.000002485127     1.007825032230
         H            3.113960636133     1.041594204790    -0.888372514873     1.007825032230
         H            3.113950636133     1.041574204790     0.888396485127     1.007825032230

  Basis Set: AUG-CC-PVTZ
    Blend: AUG-CC-PVTZ
  Basis Set: (AUG-CC-PVTZ AUX)
    Blend: AUG-CC-PVTZ-JKFIT
	 Reference Energy          =    -740.4829280226570063 [Eh]
	 Singles Energy            =      -0.0000000000000000 [Eh]
	 Same-Spin Energy          =      -0.3946867429825489 [Eh]
	 Opposite-Spin Energy      =      -1.2146841577914163 [Eh]
	 Correlation Energy        =      -1.6093709007739652 [Eh]
	 Total Energy              =    -742.0922989234309171 [Eh]

	 ================> DF-SCS-MP2 Energies <==================
	-----------------------------------------------------------
	 SCS Same-Spin Scale       =       0.3333333333333333 [-]
	 SCS Opposite-Spin Scale   =       1.2000000000000000 [-]
	 SCS Same-Spin Energy      =      -0.1315622476608496 [Eh]
	 SCS Opposite-Spin Energy  =      -1.4576209893496994 [Eh]
	 SCS Correlation Energy    =      -1.5891832370105490 [Eh]
	 SCS Total Energy          =    -742.0721112596675084 [Eh]
	-----------------------------------------------------------

  Dipole Moment: [D]
     X:     1.2561      Y:     2.8438      Z:    -0.0000     Total:     3.1089

*** Psi4 exiting successfully. Buy a developer a beer!
