                               Psi4 1.3.2 release

  ==> Input File <==

--------------------------------------------------------------------------
#psi4
#
memory 32 gb

molecule  {
0 1
  S       -0.8476060    -0.1637020     0.0000030
  O        0.6443826     0.5087136     0.0523853
  O       -1.0489850    -0.8657660     1.2662050
  O       -1.0490000    -0.8658060    -1.2661730
  C        1.7325050    -0.4363530    -0.0000120
  C       -1.7653290     1.3514860    -0.0000140
  C        3.0067930     0.3740820     0.0000060
  H        1.6431710    -1.0620260     0.8923500
  H        1.6431890    -1.0620130    -0.8923850
  H       -2.8222650     1.0809220     0.0000090
  H       -1.5154150     1.9136800     0.8990170
  H       -1.5154440     1.9136410    -0.8990780
  H        3.8691330    -0.2986670     0.0000080
  H        3.0571710     1.0063710    -0.8885170
  H        3.0571560     1.0063550     0.8885430
units angstrom
no_reorient  #important for SAPT in psi4, default
symmetry c1  #important for SAPT in psi4, default
}

set PROPERTIES_ORIGIN ["COM"]
properties('MP2/aug-cc-pvtz', properties = ['dipole'])
--------------------------------------------------------------------------

    Molecular point group: c1
  Charge       = 0
  Multiplicity = 1
  Basis Set: AUG-CC-PVTZ
    Blend: AUG-CC-PVTZ
  Basis Set: (AUG-CC-PVTZ AUX)
    Blend: AUG-CC-PVTZ-JKFIT

    Orbital Energies [Eh]
    ---------------------

    Doubly Occupied:

       1A    -92.222473     2A    -20.618926     3A    -20.561343
       4A    -20.556009     5A    -11.302905     6A    -11.285397
       7A    -11.234871     8A     -9.186170     9A     -6.871728
      10A     -6.870384    11A     -6.870053    12A     -1.488952
      13A     -1.383859    14A     -1.343202    15A     -1.072646
      16A     -1.028028    17A     -0.881805    18A     -0.828920
      19A     -0.729387    20A     -0.699249    21A     -0.688195
      22A     -0.655775    23A     -0.623231    24A     -0.607891
      25A     -0.603889    26A     -0.563979    27A     -0.562172
      28A     -0.542969    29A     -0.503211    30A     -0.500206
      31A     -0.492767    32A     -0.476678    33A     -0.466008

  @DF-RHF Final Energy:  -740.48502325758568

   => Energetics <=

    Nuclear Repulsion Energy =            439.8300786594497254
    One-Electron Energy =               -1891.9836487542947907
    Two-Electron Energy =                 711.6685468372593277
    Total Energy =                       -740.4850232575856808
  Basis Set: (AUG-CC-PVTZ AUX)
    Blend: AUG-CC-PVTZ-RI
    Molecular point group: c1

    Geometry (in Angstrom), charge = 0, multiplicity = 1:

       Center              X                  Y                   Z               Mass
    ------------   -----------------  -----------------  -----------------  -----------------
         S           -0.789650511849    -0.125084130120    -0.006755721911    31.972071174400
         O            0.702338088151     0.547331469880     0.045626578089    15.994914619570
         O           -0.991029511849    -0.827148130120     1.259446278089    15.994914619570
         O           -0.991044511849    -0.827188130120    -1.272931721911    15.994914619570
         C            1.790460488151    -0.397735130120    -0.006770721911    12.000000000000
         C           -1.707373511849     1.390103869880    -0.006772721911    12.000000000000
         C            3.064748488151     0.412699869880    -0.006752721911    12.000000000000
         H            1.701126488151    -1.023408130120     0.885591278089     1.007825032230
         H            1.701144488151    -1.023395130120    -0.899143721911     1.007825032230
         H           -2.764309511849     1.119539869880    -0.006749721911     1.007825032230
         H           -1.457459511849     1.952297869880     0.892258278089     1.007825032230
         H           -1.457488511849     1.952258869880    -0.905836721911     1.007825032230
         H            3.927088488151    -0.260049130120    -0.006750721911     1.007825032230
         H            3.115126488151     1.044988869880    -0.895275721911     1.007825032230
         H            3.115111488151     1.044972869880     0.881784278089     1.007825032230

  Basis Set: AUG-CC-PVTZ
    Blend: AUG-CC-PVTZ
  Basis Set: (AUG-CC-PVTZ AUX)
    Blend: AUG-CC-PVTZ-JKFIT
	 Reference Energy          =    -740.4850232575856808 [Eh]
	 Singles Energy            =      -0.0000000000000000 [Eh]
	 Same-Spin Energy          =      -0.3942076717368272 [Eh]
	 Opposite-Spin Energy      =      -1.2132571969707768 [Eh]
	 Correlation Energy        =      -1.6074648687076041 [Eh]
	 Total Energy              =    -742.0924881262932331 [Eh]

	 ================> DF-SCS-MP2 Energies <==================
	-----------------------------------------------------------
	 SCS Same-Spin Scale       =       0.3333333333333333 [-]
	 SCS Opposite-Spin Scale   =       1.2000000000000000 [-]
	 SCS Same-Spin Energy      =      -0.1314025572456091 [Eh]
	 SCS Opposite-Spin Energy  =      -1.4559086363649321 [Eh]
	 SCS Correlation Energy    =      -1.5873111936105411 [Eh]
	 SCS Total Energy          =    -742.0723344511961841 [Eh]
	-----------------------------------------------------------

  Dipole Moment: [D]
     X:     1.3304      Y:     2.9279      Z:    -0.1127     Total:     3.2179

*** Psi4 exiting successfully. Buy a developer a beer!
