                               Psi4 1.3.2 release

  ==> Input File <==

--------------------------------------------------------------------------
#psi4
#
memory 32 gb

molecule  {
0 1
  S       -0.8476060    -0.1637020     0.0000030
  O        0.5450452     0.4874270    -0.0000148
  O       -1.0489850    -0.8657660     1.2662050
  O       -1.0490000    -0.8658060    -1.2661730
  C        1.7325050    -0.4363530    -0.0000120
  C       -1.7653290     1.3514860    -0.0000140
  C        3.0067930     0.3740820     0.0000060
  H        1.6431710    -1.0620260     0.8923500
  H        1.6431890    -1.0620130    -0.8923850
  H       -2.8222650     1.0809220     0.0000090
  H       -1.5154150     1.9136800     0.8990170
  H       -1.5154440     1.9136410    -0.8990780
  H        3.8691330    -0.2986670     0.0000080
  H        3.0571710     1.0063710    -0.8885170
  H        3.0571560     1.0063550     0.8885430
units angstrom
no_reorient  #important for SAPT in psi4, default
symmetry c1  #important for SAPT in psi4, default
}

set PROPERTIES_ORIGIN ["COM"]
properties('MP2/aug-cc-pvtz', properties = ['dipole'])
--------------------------------------------------------------------------

    Molecular point group: c1
  Charge       = 0
  Multiplicity = 1
  Basis Set: AUG-CC-PVTZ
    Blend: AUG-CC-PVTZ
  Basis Set: (AUG-CC-PVTZ AUX)
    Blend: AUG-CC-PVTZ-JKFIT

    Orbital Energies [Eh]
    ---------------------

    Doubly Occupied:

       1A    -92.212578     2A    -20.620949     3A    -20.547067
       4A    -20.547044     5A    -11.319641     6A    -11.275814
       7A    -11.245188     8A     -9.176864     9A     -6.862836
      10A     -6.861205    11A     -6.860808    12A     -1.506024
      13A     -1.379990    14A     -1.334647    15A     -1.077099
      16A     -1.029942    17A     -0.891618    18A     -0.826035
      19A     -0.726464    20A     -0.705422    21A     -0.692571
      22A     -0.652632    23A     -0.619474    24A     -0.603265
      25A     -0.598296    26A     -0.569954    27A     -0.567851
      28A     -0.546040    29A     -0.509586    30A     -0.507714
      31A     -0.485763    32A     -0.471711    33A     -0.459549

  @DF-RHF Final Energy:  -740.48716419189259

   => Energetics <=

    Nuclear Repulsion Energy =            442.4668803667284465
    One-Electron Energy =               -1897.3248075908195460
    Two-Electron Energy =                 714.3707630321985107
    Total Energy =                       -740.4871641918925889
  Basis Set: (AUG-CC-PVTZ AUX)
    Blend: AUG-CC-PVTZ-RI
    Molecular point group: c1

    Geometry (in Angstrom), charge = 0, multiplicity = 1:

       Center              X                  Y                   Z               Mass
    ------------   -----------------  -----------------  -----------------  -----------------
         S           -0.776838862739    -0.122338774897     0.000002374178    31.972071174400
         O            0.615812337261     0.528790225103    -0.000015425822    15.994914619570
         O           -0.978217862739    -0.824402774897     1.266204374178    15.994914619570
         O           -0.978232862739    -0.824442774897    -1.266173625822    15.994914619570
         C            1.803272137261    -0.394989774897    -0.000012625822    12.000000000000
         C           -1.694561862739     1.392849225103    -0.000014625822    12.000000000000
         C            3.077560137261     0.415445225103     0.000005374178    12.000000000000
         H            1.713938137261    -1.020662774897     0.892349374178     1.007825032230
         H            1.713956137261    -1.020649774897    -0.892385625822     1.007825032230
         H           -2.751497862739     1.122285225103     0.000008374178     1.007825032230
         H           -1.444647862739     1.955043225103     0.899016374178     1.007825032230
         H           -1.444676862739     1.955004225103    -0.899078625822     1.007825032230
         H            3.939900137261    -0.257303774897     0.000007374178     1.007825032230
         H            3.127938137261     1.047734225103    -0.888517625822     1.007825032230
         H            3.127923137261     1.047718225103     0.888542374178     1.007825032230

  Basis Set: AUG-CC-PVTZ
    Blend: AUG-CC-PVTZ
  Basis Set: (AUG-CC-PVTZ AUX)
    Blend: AUG-CC-PVTZ-JKFIT
	 Reference Energy          =    -740.4871641918925889 [Eh]
	 Singles Energy            =      -0.0000000000000000 [Eh]
	 Same-Spin Energy          =      -0.3925512130681545 [Eh]
	 Opposite-Spin Energy      =      -1.2091936659234250 [Eh]
	 Correlation Energy        =      -1.6017448789915796 [Eh]
	 Total Energy              =    -742.0889090708841422 [Eh]

	 ================> DF-SCS-MP2 Energies <==================
	-----------------------------------------------------------
	 SCS Same-Spin Scale       =       0.3333333333333333 [-]
	 SCS Opposite-Spin Scale   =       1.2000000000000000 [-]
	 SCS Same-Spin Energy      =      -0.1308504043560515 [Eh]
	 SCS Opposite-Spin Energy  =      -1.4510323991081100 [Eh]
	 SCS Correlation Energy    =      -1.5818828034641614 [Eh]
	 SCS Total Energy          =    -742.0690469953567572 [Eh]
	-----------------------------------------------------------

  Dipole Moment: [D]
     X:     2.2991      Y:     2.9689      Z:    -0.0001     Total:     3.7550

*** Psi4 exiting successfully. Buy a developer a beer!
