                               Psi4 1.3.2 release

  ==> Input File <==

--------------------------------------------------------------------------
#psi4
#
memory 32 gb

molecule  {
0 1
  S       -0.8476060    -0.1637020     0.0000030
  O        0.6250763     0.5500035    -0.0524173
  O       -1.0489850    -0.8657660     1.2662050
  O       -1.0490000    -0.8658060    -1.2661730
  C        1.7325050    -0.4363530    -0.0000120
  C       -1.7653290     1.3514860    -0.0000140
  C        3.0067930     0.3740820     0.0000060
  H        1.6431710    -1.0620260     0.8923500
  H        1.6431890    -1.0620130    -0.8923850
  H       -2.8222650     1.0809220     0.0000090
  H       -1.5154150     1.9136800     0.8990170
  H       -1.5154440     1.9136410    -0.8990780
  H        3.8691330    -0.2986670     0.0000080
  H        3.0571710     1.0063710    -0.8885170
  H        3.0571560     1.0063550     0.8885430
units angstrom
no_reorient  #important for SAPT in psi4, default
symmetry c1  #important for SAPT in psi4, default
}

set PROPERTIES_ORIGIN ["COM"]
properties('MP2/aug-cc-pvtz', properties = ['dipole'])
--------------------------------------------------------------------------

    Molecular point group: c1
  Charge       = 0
  Multiplicity = 1
  Basis Set: AUG-CC-PVTZ
    Blend: AUG-CC-PVTZ
  Basis Set: (AUG-CC-PVTZ AUX)
    Blend: AUG-CC-PVTZ-JKFIT

    Orbital Energies [Eh]
    ---------------------

    Doubly Occupied:

       1A    -92.220476     2A    -20.620228     3A    -20.561103
       4A    -20.555813     5A    -11.308240     6A    -11.281753
       7A    -11.236931     8A     -9.184258     9A     -6.869838
      10A     -6.868431    11A     -6.868175    12A     -1.485451
      13A     -1.376899    14A     -1.342633    15A     -1.070599
      16A     -1.027977    17A     -0.877233    18A     -0.830679
      19A     -0.724721    20A     -0.695542    21A     -0.686721
      22A     -0.654666    23A     -0.620788    24A     -0.605884
      25A     -0.601946    26A     -0.563874    27A     -0.558754
      28A     -0.544570    29A     -0.506498    30A     -0.502670
      31A     -0.493379    32A     -0.475142    33A     -0.467562

  @DF-RHF Final Energy:  -740.48294078672086

   => Energetics <=

    Nuclear Repulsion Energy =            439.2029154448446775
    One-Electron Energy =               -1890.7928389386340768
    Two-Electron Energy =                 711.1069827070685960
    Total Energy =                       -740.4829407867208602
  Basis Set: (AUG-CC-PVTZ AUX)
    Blend: AUG-CC-PVTZ-RI
    Molecular point group: c1

    Geometry (in Angstrom), charge = 0, multiplicity = 1:

       Center              X                  Y                   Z               Mass
    ------------   -----------------  -----------------  -----------------  -----------------
         S           -0.787160558003    -0.130409332014     0.006760779799    31.972071174400
         O            0.685521741997     0.583296167986    -0.045659520201    15.994914619570
         O           -0.988539558003    -0.832473332014     1.272962779799    15.994914619570
         O           -0.988554558003    -0.832513332014    -1.259415220201    15.994914619570
         C            1.792950441997    -0.403060332014     0.006745779799    12.000000000000
         C           -1.704883558003     1.384778667986     0.006743779799    12.000000000000
         C            3.067238441997     0.407374667986     0.006763779799    12.000000000000
         H            1.703616441997    -1.028733332014     0.899107779799     1.007825032230
         H            1.703634441997    -1.028720332014    -0.885627220201     1.007825032230
         H           -2.761819558003     1.114214667986     0.006766779799     1.007825032230
         H           -1.454969558003     1.946972667986     0.905774779799     1.007825032230
         H           -1.454998558003     1.946933667986    -0.892320220201     1.007825032230
         H            3.929578441997    -0.265374332014     0.006765779799     1.007825032230
         H            3.117616441997     1.039663667986    -0.881759220201     1.007825032230
         H            3.117601441997     1.039647667986     0.895300779799     1.007825032230

  Basis Set: AUG-CC-PVTZ
    Blend: AUG-CC-PVTZ
  Basis Set: (AUG-CC-PVTZ AUX)
    Blend: AUG-CC-PVTZ-JKFIT
	 Reference Energy          =    -740.4829407867208602 [Eh]
	 Singles Energy            =      -0.0000000000000000 [Eh]
	 Same-Spin Energy          =      -0.3945183719596068 [Eh]
	 Opposite-Spin Energy      =      -1.2144590849638199 [Eh]
	 Correlation Energy        =      -1.6089774569234268 [Eh]
	 Total Energy              =    -742.0919182436442725 [Eh]

	 ================> DF-SCS-MP2 Energies <==================
	-----------------------------------------------------------
	 SCS Same-Spin Scale       =       0.3333333333333333 [-]
	 SCS Opposite-Spin Scale   =       1.2000000000000000 [-]
	 SCS Same-Spin Energy      =      -0.1315061239865356 [Eh]
	 SCS Opposite-Spin Energy  =      -1.4573509019565838 [Eh]
	 SCS Correlation Energy    =      -1.5888570259431194 [Eh]
	 SCS Total Energy          =    -742.0717978126639309 [Eh]
	-----------------------------------------------------------

  Dipole Moment: [D]
     X:     1.5116      Y:     2.7983      Z:     0.1114     Total:     3.1825

*** Psi4 exiting successfully. Buy a developer a beer!
