                               Psi4 1.3.2 release

  ==> Input File <==

--------------------------------------------------------------------------
#psi4
#
memory 32 gb

molecule  {
0 1
  S       -0.8476060    -0.1637020     0.0000030
  O        0.6233041     0.5555615    -0.0000163
  O       -1.0489850    -0.8657660     1.2662050
  O       -1.0490000    -0.8658060    -1.2661730
  C        1.7325050    -0.4363530    -0.0000120
  C       -1.7653290     1.3514860    -0.0000140
  C        3.0067930     0.3740820     0.0000060
  H        1.6431710    -1.0620260     0.8923500
  H        1.6431890    -1.0620130    -0.8923850
  H       -2.8222650     1.0809220     0.0000090
  H       -1.5154150     1.9136800     0.8990170
  H       -1.5154440     1.9136410    -0.8990780
  H        3.8691330    -0.2986670     0.0000080
  H        3.0571710     1.0063710    -0.8885170
  H        3.0571560     1.0063550     0.8885430
units angstrom
no_reorient  #important for SAPT in psi4, default
symmetry c1  #important for SAPT in psi4, default
}

set PROPERTIES_ORIGIN ["COM"]
properties('MP2/aug-cc-pvtz', properties = ['dipole'])
--------------------------------------------------------------------------

    Molecular point group: c1
  Charge       = 0
  Multiplicity = 1
  Basis Set: AUG-CC-PVTZ
    Blend: AUG-CC-PVTZ
  Basis Set: (AUG-CC-PVTZ AUX)
    Blend: AUG-CC-PVTZ-JKFIT

    Orbital Energies [Eh]
    ---------------------

    Doubly Occupied:

       1A    -92.220303     2A    -20.620424     3A    -20.558502
       4A    -20.558479     5A    -11.308790     6A    -11.281346
       7A    -11.237129     8A     -9.184088     9A     -6.869670
      10A     -6.868255    11A     -6.868012    12A     -1.485130
      13A     -1.376177    14A     -1.342769    15A     -1.070448
      16A     -1.027921    17A     -0.876813    18A     -0.830854
      19A     -0.724222    20A     -0.695297    21A     -0.686562
      22A     -0.654633    23A     -0.620555    24A     -0.605690
      25A     -0.601787    26A     -0.563744    27A     -0.558380
      28A     -0.544777    29A     -0.506320    30A     -0.503326
      31A     -0.493482    32A     -0.475166    33A     -0.467964

  @DF-RHF Final Energy:  -740.48307555235363

   => Energetics <=

    Nuclear Repulsion Energy =            439.1412808121205558
    One-Electron Energy =               -1890.6746826356240945
    Two-Electron Energy =                 711.0503262711498564
    Total Energy =                       -740.4830755523536254
  Basis Set: (AUG-CC-PVTZ AUX)
    Blend: AUG-CC-PVTZ-RI
    Molecular point group: c1

    Geometry (in Angstrom), charge = 0, multiplicity = 1:

       Center              X                  Y                   Z               Mass
    ------------   -----------------  -----------------  -----------------  -----------------
         S           -0.786931995502    -0.131126153128     0.000002567635    31.972071174400
         O            0.683978104498     0.588137346872    -0.000016732365    15.994914619570
         O           -0.988310995502    -0.833190153128     1.266204567635    15.994914619570
         O           -0.988325995502    -0.833230153128    -1.266173432365    15.994914619570
         C            1.793179004498    -0.403777153128    -0.000012432365    12.000000000000
         C           -1.704654995502     1.384061846872    -0.000014432365    12.000000000000
         C            3.067467004498     0.406657846872     0.000005567635    12.000000000000
         H            1.703845004498    -1.029450153128     0.892349567635     1.007825032230
         H            1.703863004498    -1.029437153128    -0.892385432365     1.007825032230
         H           -2.761590995502     1.113497846872     0.000008567635     1.007825032230
         H           -1.454740995502     1.946255846872     0.899016567635     1.007825032230
         H           -1.454769995502     1.946216846872    -0.899078432365     1.007825032230
         H            3.929807004498    -0.266091153128     0.000007567635     1.007825032230
         H            3.117845004498     1.038946846872    -0.888517432365     1.007825032230
         H            3.117830004498     1.038930846872     0.888542567635     1.007825032230

  Basis Set: AUG-CC-PVTZ
    Blend: AUG-CC-PVTZ
  Basis Set: (AUG-CC-PVTZ AUX)
    Blend: AUG-CC-PVTZ-JKFIT
	 Reference Energy          =    -740.4830755523536254 [Eh]
	 Singles Energy            =      -0.0000000000000000 [Eh]
	 Same-Spin Energy          =      -0.3945379565197237 [Eh]
	 Opposite-Spin Energy      =      -1.2145548304670641 [Eh]
	 Correlation Energy        =      -1.6090927869867877 [Eh]
	 Total Energy              =    -742.0921683393404464 [Eh]

	 ================> DF-SCS-MP2 Energies <==================
	-----------------------------------------------------------
	 SCS Same-Spin Scale       =       0.3333333333333333 [-]
	 SCS Opposite-Spin Scale   =       1.2000000000000000 [-]
	 SCS Same-Spin Energy      =      -0.1315126521732412 [Eh]
	 SCS Opposite-Spin Energy  =      -1.4574657965604769 [Eh]
	 SCS Correlation Energy    =      -1.5889784487337182 [Eh]
	 SCS Total Energy          =    -742.0720540010873947 [Eh]
	-----------------------------------------------------------

  Dipole Moment: [D]
     X:     1.5296      Y:     2.7827      Z:    -0.0001     Total:     3.1754

*** Psi4 exiting successfully. Buy a developer a beer!
