                               Psi4 1.3.2 release

  ==> Input File <==

--------------------------------------------------------------------------
#psi4
#
memory 32 gb

molecule  {
0 1
  S       -0.8476060    -0.1637020     0.0000030
  O        0.6526614     0.5487769    -0.0000157
  O       -1.0489850    -0.8657660     1.2662050
  O       -1.0490000    -0.8658060    -1.2661730
  C        1.7325050    -0.4363530    -0.0000120
  C       -1.7653290     1.3514860    -0.0000140
  C        3.0067930     0.3740820     0.0000060
  H        1.6431710    -1.0620260     0.8923500
  H        1.6431890    -1.0620130    -0.8923850
  H       -2.8222650     1.0809220     0.0000090
  H       -1.5154150     1.9136800     0.8990170
  H       -1.5154440     1.9136410    -0.8990780
  H        3.8691330    -0.2986670     0.0000080
  H        3.0571710     1.0063710    -0.8885170
  H        3.0571560     1.0063550     0.8885430
units angstrom
no_reorient  #important for SAPT in psi4, default
symmetry c1  #important for SAPT in psi4, default
}

set PROPERTIES_ORIGIN ["COM"]
properties('MP2/aug-cc-pvtz', properties = ['dipole'])
--------------------------------------------------------------------------

    Molecular point group: c1
  Charge       = 0
  Multiplicity = 1
  Basis Set: AUG-CC-PVTZ
    Blend: AUG-CC-PVTZ
  Basis Set: (AUG-CC-PVTZ AUX)
    Blend: AUG-CC-PVTZ-JKFIT

    Orbital Energies [Eh]
    ---------------------

    Doubly Occupied:

       1A    -92.222680     2A    -20.619539     3A    -20.561062
       4A    -20.561039     5A    -11.303661     6A    -11.284450
       7A    -11.234290     8A     -9.186421     9A     -6.871923
      10A     -6.870553    11A     -6.870303    12A     -1.483693
      13A     -1.378557    14A     -1.344789    15A     -1.070446
      16A     -1.026943    17A     -0.875799    18A     -0.831222
      19A     -0.726075    20A     -0.695296    21A     -0.686536
      22A     -0.655841    23A     -0.621750    24A     -0.607546
      25A     -0.603677    26A     -0.561948    27A     -0.558737
      28A     -0.543620    29A     -0.504329    30A     -0.500996
      31A     -0.494642    32A     -0.475732    33A     -0.468759

  @DF-RHF Final Energy:  -740.48194738619634

   => Energetics <=

    Nuclear Repulsion Energy =            438.7530879644045854
    One-Electron Energy =               -1889.8643615778528329
    Two-Electron Energy =                 710.6293262272519087
    Total Energy =                       -740.4819473861963388
  Basis Set: (AUG-CC-PVTZ AUX)
    Blend: AUG-CC-PVTZ-RI
    Molecular point group: c1

    Geometry (in Angstrom), charge = 0, multiplicity = 1:

       Center              X                  Y                   Z               Mass
    ------------   -----------------  -----------------  -----------------  -----------------
         S           -0.790718237405    -0.130251136120     0.000002490252    31.972071174400
         O            0.709549162595     0.582227763880    -0.000016209748    15.994914619570
         O           -0.992097237405    -0.832315136120     1.266204490252    15.994914619570
         O           -0.992112237405    -0.832355136120    -1.266173509748    15.994914619570
         C            1.789392762595    -0.402902136120    -0.000012509748    12.000000000000
         C           -1.708441237405     1.384936863880    -0.000014509748    12.000000000000
         C            3.063680762595     0.407532863880     0.000005490252    12.000000000000
         H            1.700058762595    -1.028575136120     0.892349490252     1.007825032230
         H            1.700076762595    -1.028562136120    -0.892385509748     1.007825032230
         H           -2.765377237405     1.114372863880     0.000008490252     1.007825032230
         H           -1.458527237405     1.947130863880     0.899016490252     1.007825032230
         H           -1.458556237405     1.947091863880    -0.899078509748     1.007825032230
         H            3.926020762595    -0.265216136120     0.000007490252     1.007825032230
         H            3.114058762595     1.039821863880    -0.888517509748     1.007825032230
         H            3.114043762595     1.039805863880     0.888542490252     1.007825032230

  Basis Set: AUG-CC-PVTZ
    Blend: AUG-CC-PVTZ
  Basis Set: (AUG-CC-PVTZ AUX)
    Blend: AUG-CC-PVTZ-JKFIT
	 Reference Energy          =    -740.4819473861963388 [Eh]
	 Singles Energy            =      -0.0000000000000000 [Eh]
	 Same-Spin Energy          =      -0.3948492076553355 [Eh]
	 Opposite-Spin Energy      =      -1.2151865180254404 [Eh]
	 Correlation Energy        =      -1.6100357256807758 [Eh]
	 Total Energy              =    -742.0919831118770844 [Eh]

	 ================> DF-SCS-MP2 Energies <==================
	-----------------------------------------------------------
	 SCS Same-Spin Scale       =       0.3333333333333333 [-]
	 SCS Opposite-Spin Scale   =       1.2000000000000000 [-]
	 SCS Same-Spin Energy      =      -0.1316164025517785 [Eh]
	 SCS Opposite-Spin Energy  =      -1.4582238216305285 [Eh]
	 SCS Correlation Energy    =      -1.5898402241823071 [Eh]
	 SCS Total Energy          =    -742.0717876103786921 [Eh]
	-----------------------------------------------------------

  Dipole Moment: [D]
     X:     1.2660      Y:     2.8101      Z:    -0.0001     Total:     3.0821

*** Psi4 exiting successfully. Buy a developer a beer!
