                               Psi4 1.3.2 release

  ==> Input File <==

--------------------------------------------------------------------------
#psi4
#
memory 32 gb

molecule  {
0 1
  S       -0.8923678    -0.0585472     0.0000020
  O        0.6356330     0.5297810    -0.0000160
  O       -1.0489850    -0.8657660     1.2662050
  O       -1.0490000    -0.8658060    -1.2661730
  C        1.7325050    -0.4363530    -0.0000120
  C       -1.7653290     1.3514860    -0.0000140
  C        3.0067930     0.3740820     0.0000060
  H        1.6431710    -1.0620260     0.8923500
  H        1.6431890    -1.0620130    -0.8923850
  H       -2.8222650     1.0809220     0.0000090
  H       -1.5154150     1.9136800     0.8990170
  H       -1.5154440     1.9136410    -0.8990780
  H        3.8691330    -0.2986670     0.0000080
  H        3.0571710     1.0063710    -0.8885170
  H        3.0571560     1.0063550     0.8885430
units angstrom
no_reorient  #important for SAPT in psi4, default
symmetry c1  #important for SAPT in psi4, default
}

set PROPERTIES_ORIGIN ["COM"]
properties('MP2/aug-cc-pvtz', properties = ['dipole'])
--------------------------------------------------------------------------

    Molecular point group: c1
  Charge       = 0
  Multiplicity = 1
  Basis Set: AUG-CC-PVTZ
    Blend: AUG-CC-PVTZ
  Basis Set: (AUG-CC-PVTZ AUX)
    Blend: AUG-CC-PVTZ-JKFIT

    Orbital Energies [Eh]
    ---------------------

    Doubly Occupied:

       1A    -92.224869     2A    -20.617401     3A    -20.549228
       4A    -20.549205     5A    -11.303842     6A    -11.296127
       7A    -11.234595     8A     -9.189442     9A     -6.874823
      10A     -6.873715    11A     -6.872726    12A     -1.469918
      13A     -1.362447    14A     -1.307332    15A     -1.109531
      16A     -1.038283    17A     -0.882232    18A     -0.827263
      19A     -0.731192    20A     -0.697696    21A     -0.685794
      22A     -0.663485    23A     -0.632461    24A     -0.602010
      25A     -0.601968    26A     -0.559626    27A     -0.556113
      28A     -0.536963    29A     -0.495688    30A     -0.493137
      31A     -0.478972    32A     -0.474308    33A     -0.451071

  @DF-RHF Final Energy:  -740.46275003098981

   => Energetics <=

    Nuclear Repulsion Energy =            438.3030145576101404
    One-Electron Energy =               -1889.0446073080404403
    Two-Electron Energy =                 710.2788427194404903
    Total Energy =                       -740.4627500309898096
  Basis Set: (AUG-CC-PVTZ AUX)
    Blend: AUG-CC-PVTZ-RI
    Molecular point group: c1

    Geometry (in Angstrom), charge = 0, multiplicity = 1:

       Center              X                  Y                   Z               Mass
    ------------   -----------------  -----------------  -----------------  -----------------
         S           -0.821744323077    -0.049755208637     0.000001786743    31.972071174400
         O            0.706256476923     0.538572991363    -0.000016213257    15.994914619570
         O           -0.978361523077    -0.856974008637     1.266204786743    15.994914619570
         O           -0.978376523077    -0.857014008637    -1.266173213257    15.994914619570
         C            1.803128476923    -0.427561008637    -0.000012213257    12.000000000000
         C           -1.694705523077     1.360277991363    -0.000014213257    12.000000000000
         C            3.077416476923     0.382873991363     0.000005786743    12.000000000000
         H            1.713794476923    -1.053234008637     0.892349786743     1.007825032230
         H            1.713812476923    -1.053221008637    -0.892385213257     1.007825032230
         H           -2.751641523077     1.089713991363     0.000008786743     1.007825032230
         H           -1.444791523077     1.922471991363     0.899016786743     1.007825032230
         H           -1.444820523077     1.922432991363    -0.899078213257     1.007825032230
         H            3.939756476923    -0.289875008637     0.000007786743     1.007825032230
         H            3.127794476923     1.015162991363    -0.888517213257     1.007825032230
         H            3.127779476923     1.015146991363     0.888542786743     1.007825032230

  Basis Set: AUG-CC-PVTZ
    Blend: AUG-CC-PVTZ
  Basis Set: (AUG-CC-PVTZ AUX)
    Blend: AUG-CC-PVTZ-JKFIT
	 Reference Energy          =    -740.4627500309898096 [Eh]
	 Singles Energy            =      -0.0000000000000000 [Eh]
	 Same-Spin Energy          =      -0.3964174303033773 [Eh]
	 Opposite-Spin Energy      =      -1.2168253811048277 [Eh]
	 Correlation Energy        =      -1.6132428114082051 [Eh]
	 Total Energy              =    -742.0759928423980227 [Eh]

	 ================> DF-SCS-MP2 Energies <==================
	-----------------------------------------------------------
	 SCS Same-Spin Scale       =       0.3333333333333333 [-]
	 SCS Opposite-Spin Scale   =       1.2000000000000000 [-]
	 SCS Same-Spin Energy      =      -0.1321391434344591 [Eh]
	 SCS Opposite-Spin Energy  =      -1.4601904573257933 [Eh]
	 SCS Correlation Energy    =      -1.5923296007602525 [Eh]
	 SCS Total Energy          =    -742.0550796317501181 [Eh]
	-----------------------------------------------------------

  Dipole Moment: [D]
     X:     1.0825      Y:     3.7528      Z:    -0.0001     Total:     3.9058

*** Psi4 exiting successfully. Buy a developer a beer!
