                               Psi4 1.3.2 release

  ==> Input File <==

--------------------------------------------------------------------------
#psi4
#
memory 32 gb

molecule  {
0 1
  S       -0.7669919    -0.3149437     0.0000043
  O        0.6356330     0.5297810    -0.0000160
  O       -1.0489850    -0.8657660     1.2662050
  O       -1.0490000    -0.8658060    -1.2661730
  C        1.7325050    -0.4363530    -0.0000120
  C       -1.7653290     1.3514860    -0.0000140
  C        3.0067930     0.3740820     0.0000060
  H        1.6431710    -1.0620260     0.8923500
  H        1.6431890    -1.0620130    -0.8923850
  H       -2.8222650     1.0809220     0.0000090
  H       -1.5154150     1.9136800     0.8990170
  H       -1.5154440     1.9136410    -0.8990780
  H        3.8691330    -0.2986670     0.0000080
  H        3.0571710     1.0063710    -0.8885170
  H        3.0571560     1.0063550     0.8885430
units angstrom
no_reorient  #important for SAPT in psi4, default
symmetry c1  #important for SAPT in psi4, default
}

set PROPERTIES_ORIGIN ["COM"]
properties('MP2/aug-cc-pvtz', properties = ['dipole'])
--------------------------------------------------------------------------

    Molecular point group: c1
  Charge       = 0
  Multiplicity = 1
  Basis Set: AUG-CC-PVTZ
    Blend: AUG-CC-PVTZ
  Basis Set: (AUG-CC-PVTZ AUX)
    Blend: AUG-CC-PVTZ-JKFIT

    Orbital Energies [Eh]
    ---------------------

    Doubly Occupied:

       1A    -92.217864     2A    -20.626150     3A    -20.573599
       4A    -20.573576     5A    -11.310214     6A    -11.258084
       7A    -11.239055     8A     -9.182502     9A     -6.867995
      10A     -6.867141    11A     -6.866356    12A     -1.515891
      13A     -1.399875    14A     -1.388188    15A     -1.055822
      16A     -0.983629    17A     -0.877190    18A     -0.838938
      19A     -0.731259    20A     -0.705925    21A     -0.693361
      22A     -0.662308    23A     -0.622534    24A     -0.592842
      25A     -0.591412    26A     -0.573407    27A     -0.560541
      28A     -0.551350    29A     -0.519138    30A     -0.517869
      31A     -0.514748    32A     -0.484660    33A     -0.436902

  @DF-RHF Final Energy:  -740.45669496470646

   => Energetics <=

    Nuclear Repulsion Energy =            441.0215189824369304
    One-Electron Energy =               -1894.1557700718612978
    Two-Electron Energy =                 712.6775561247179667
    Total Energy =                       -740.4566949647064575
  Basis Set: (AUG-CC-PVTZ AUX)
    Blend: AUG-CC-PVTZ-RI
    Molecular point group: c1

    Geometry (in Angstrom), charge = 0, multiplicity = 1:

       Center              X                  Y                   Z               Mass
    ------------   -----------------  -----------------  -----------------  -----------------
         S           -0.728690194542    -0.240052968148     0.000003493805    31.972071174400
         O            0.673934705458     0.604671731852    -0.000016806195    15.994914619570
         O           -1.010683294542    -0.790875268148     1.266204193805    15.994914619570
         O           -1.010698294542    -0.790915268148    -1.266173806195    15.994914619570
         C            1.770806705458    -0.361462268148    -0.000012806195    12.000000000000
         C           -1.727027294542     1.426376731852    -0.000014806195    12.000000000000
         C            3.045094705458     0.448972731852     0.000005193805    12.000000000000
         H            1.681472705458    -0.987135268148     0.892349193805     1.007825032230
         H            1.681490705458    -0.987122268148    -0.892385806195     1.007825032230
         H           -2.783963294542     1.155812731852     0.000008193805     1.007825032230
         H           -1.477113294542     1.988570731852     0.899016193805     1.007825032230
         H           -1.477142294542     1.988531731852    -0.899078806195     1.007825032230
         H            3.907434705458    -0.223776268148     0.000007193805     1.007825032230
         H            3.095472705458     1.081261731852    -0.888517806195     1.007825032230
         H            3.095457705458     1.081245731852     0.888542193805     1.007825032230

  Basis Set: AUG-CC-PVTZ
    Blend: AUG-CC-PVTZ
  Basis Set: (AUG-CC-PVTZ AUX)
    Blend: AUG-CC-PVTZ-JKFIT
	 Reference Energy          =    -740.4566949647064575 [Eh]
	 Singles Energy            =      -0.0000000000000000 [Eh]
	 Same-Spin Energy          =      -0.3938307316271190 [Eh]
	 Opposite-Spin Energy      =      -1.2145955975893059 [Eh]
	 Correlation Energy        =      -1.6084263292164249 [Eh]
	 Total Energy              =    -742.0651212939228571 [Eh]

	 ================> DF-SCS-MP2 Energies <==================
	-----------------------------------------------------------
	 SCS Same-Spin Scale       =       0.3333333333333333 [-]
	 SCS Opposite-Spin Scale   =       1.2000000000000000 [-]
	 SCS Same-Spin Energy      =      -0.1312769105423730 [Eh]
	 SCS Opposite-Spin Energy  =      -1.4575147171071670 [Eh]
	 SCS Correlation Energy    =      -1.5887916276495400 [Eh]
	 SCS Total Energy          =    -742.0454865923560419 [Eh]
	-----------------------------------------------------------

  Dipole Moment: [D]
     X:     2.1037      Y:     1.4944      Z:    -0.0000     Total:     2.5805

*** Psi4 exiting successfully. Buy a developer a beer!
