                               Psi4 1.3.2 release

  ==> Input File <==

--------------------------------------------------------------------------
#psi4
#
memory 32 gb

molecule  {
0 1
  S       -0.8476060    -0.1637020     0.0000030
  O        0.6589317     0.4775943    -0.0000154
  O       -1.0489850    -0.8657660     1.2662050
  O       -1.0490000    -0.8658060    -1.2661730
  C        1.7325050    -0.4363530    -0.0000120
  C       -1.7653290     1.3514860    -0.0000140
  C        3.0067930     0.3740820     0.0000060
  H        1.6431710    -1.0620260     0.8923500
  H        1.6431890    -1.0620130    -0.8923850
  H       -2.8222650     1.0809220     0.0000090
  H       -1.5154150     1.9136800     0.8990170
  H       -1.5154440     1.9136410    -0.8990780
  H        3.8691330    -0.2986670     0.0000080
  H        3.0571710     1.0063710    -0.8885170
  H        3.0571560     1.0063550     0.8885430
units angstrom
no_reorient  #important for SAPT in psi4, default
symmetry c1  #important for SAPT in psi4, default
}

set PROPERTIES_ORIGIN ["COM"]
properties('MP2/aug-cc-pvtz', properties = ['dipole'])
--------------------------------------------------------------------------

    Molecular point group: c1
  Charge       = 0
  Multiplicity = 1
  Basis Set: AUG-CC-PVTZ
    Blend: AUG-CC-PVTZ
  Basis Set: (AUG-CC-PVTZ AUX)
    Blend: AUG-CC-PVTZ-JKFIT

    Orbital Energies [Eh]
    ---------------------

    Doubly Occupied:

       1A    -92.224171     2A    -20.617664     3A    -20.558952
       4A    -20.558929     5A    -11.298810     6A    -11.288223
       7A    -11.233271     8A     -9.187778     9A     -6.873325
      10A     -6.872017    11A     -6.871637    12A     -1.492118
      13A     -1.389576    14A     -1.343824    15A     -1.074488
      16A     -1.027976    17A     -0.885994    18A     -0.827246
      19A     -0.733059    20A     -0.702648    21A     -0.689323
      22A     -0.656952    23A     -0.625300    24A     -0.609411
      25A     -0.605985    26A     -0.564481    27A     -0.563591
      28A     -0.541823    29A     -0.500028    30A     -0.499338
      31A     -0.491786    32A     -0.477702    33A     -0.464536

  @DF-RHF Final Energy:  -740.48538078188517

   => Energetics <=

    Nuclear Repulsion Energy =            440.3372756585841330
    One-Electron Energy =               -1892.9413902458841221
    Two-Electron Energy =                 712.1187338054148768
    Total Energy =                       -740.4853807818851692
  Basis Set: (AUG-CC-PVTZ AUX)
    Blend: AUG-CC-PVTZ-RI
    Molecular point group: c1

    Geometry (in Angstrom), charge = 0, multiplicity = 1:

       Center              X                  Y                   Z               Mass
    ------------   -----------------  -----------------  -----------------  -----------------
         S           -0.791526924600    -0.121070641221     0.000002451561    31.972071174400
         O            0.715010775400     0.520225658779    -0.000015948439    15.994914619570
         O           -0.992905924600    -0.823134641221     1.266204451561    15.994914619570
         O           -0.992920924600    -0.823174641221    -1.266173548439    15.994914619570
         C            1.788584075400    -0.393721641221    -0.000012548439    12.000000000000
         C           -1.709249924600     1.394117358779    -0.000014548439    12.000000000000
         C            3.062872075400     0.416713358779     0.000005451561    12.000000000000
         H            1.699250075400    -1.019394641221     0.892349451561     1.007825032230
         H            1.699268075400    -1.019381641221    -0.892385548439     1.007825032230
         H           -2.766185924600     1.123553358779     0.000008451561     1.007825032230
         H           -1.459335924600     1.956311358779     0.899016451561     1.007825032230
         H           -1.459364924600     1.956272358779    -0.899078548439     1.007825032230
         H            3.925212075400    -0.256035641221     0.000007451561     1.007825032230
         H            3.113250075400     1.049002358779    -0.888517548439     1.007825032230
         H            3.113235075400     1.048986358779     0.888542451561     1.007825032230

  Basis Set: AUG-CC-PVTZ
    Blend: AUG-CC-PVTZ
  Basis Set: (AUG-CC-PVTZ AUX)
    Blend: AUG-CC-PVTZ-JKFIT
	 Reference Energy          =    -740.4853807818851692 [Eh]
	 Singles Energy            =      -0.0000000000000000 [Eh]
	 Same-Spin Energy          =      -0.3940077395774153 [Eh]
	 Opposite-Spin Energy      =      -1.2123979245463459 [Eh]
	 Correlation Energy        =      -1.6064056641237612 [Eh]
	 Total Energy              =    -742.0917864460088822 [Eh]

	 ================> DF-SCS-MP2 Energies <==================
	-----------------------------------------------------------
	 SCS Same-Spin Scale       =       0.3333333333333333 [-]
	 SCS Opposite-Spin Scale   =       1.2000000000000000 [-]
	 SCS Same-Spin Energy      =      -0.1313359131924718 [Eh]
	 SCS Opposite-Spin Energy  =      -1.4548775094556150 [Eh]
	 SCS Correlation Energy    =      -1.5862134226480868 [Eh]
	 SCS Total Energy          =    -742.0715942045333122 [Eh]
	-----------------------------------------------------------

  Dipole Moment: [D]
     X:     1.1846      Y:     3.0295      Z:    -0.0001     Total:     3.2529

*** Psi4 exiting successfully. Buy a developer a beer!
