                               Psi4 1.3.2 release

  ==> Input File <==

--------------------------------------------------------------------------
#psi4
#
memory 32 gb

molecule  {
0 1
  S       -0.8476060    -0.1637020     0.0000030
  O        0.7262208     0.5721350    -0.0000172
  O       -1.0489850    -0.8657660     1.2662050
  O       -1.0490000    -0.8658060    -1.2661730
  C        1.7325050    -0.4363530    -0.0000120
  C       -1.7653290     1.3514860    -0.0000140
  C        3.0067930     0.3740820     0.0000060
  H        1.6431710    -1.0620260     0.8923500
  H        1.6431890    -1.0620130    -0.8923850
  H       -2.8222650     1.0809220     0.0000090
  H       -1.5154150     1.9136800     0.8990170
  H       -1.5154440     1.9136410    -0.8990780
  H        3.8691330    -0.2986670     0.0000080
  H        3.0571710     1.0063710    -0.8885170
  H        3.0571560     1.0063550     0.8885430
units angstrom
no_reorient  #important for SAPT in psi4, default
symmetry c1  #important for SAPT in psi4, default
}

set PROPERTIES_ORIGIN ["COM"]
properties('MP2/aug-cc-pvtz', properties = ['dipole'])
--------------------------------------------------------------------------

    Molecular point group: c1
  Charge       = 0
  Multiplicity = 1
  Basis Set: AUG-CC-PVTZ
    Blend: AUG-CC-PVTZ
  Basis Set: (AUG-CC-PVTZ AUX)
    Blend: AUG-CC-PVTZ-JKFIT

    Orbital Energies [Eh]
    ---------------------

    Doubly Occupied:

       1A    -92.227018     2A    -20.617570     3A    -20.568596
       4A    -20.568573     5A    -11.293911     6A    -11.289892
       7A    -11.227938     8A     -9.190924     9A     -6.876235
      10A     -6.874875    11A     -6.874686    12A     -1.478404
      13A     -1.379254    14A     -1.350321    15A     -1.069533
      16A     -1.021992    17A     -0.868311    18A     -0.834186
      19A     -0.726555    20A     -0.692450    21A     -0.685885
      22A     -0.659165    23A     -0.622535    24A     -0.611321
      25A     -0.608322    26A     -0.557124    27A     -0.555751
      28A     -0.541653    29A     -0.503403    30A     -0.502588
      31A     -0.494784    32A     -0.470448    33A     -0.470285

  @DF-RHF Final Energy:  -740.47070351691548

   => Energetics <=

    Nuclear Repulsion Energy =            436.9402745043561822
    One-Electron Energy =               -1886.1929815210860397
    Two-Electron Energy =                 708.7820034998143228
    Total Energy =                       -740.4707035169154778
  Basis Set: (AUG-CC-PVTZ AUX)
    Blend: AUG-CC-PVTZ-RI
    Molecular point group: c1

    Geometry (in Angstrom), charge = 0, multiplicity = 1:

       Center              X                  Y                   Z               Mass
    ------------   -----------------  -----------------  -----------------  -----------------
         S           -0.800205270703    -0.133263654880     0.000002683709    31.972071174400
         O            0.773621529297     0.602573345120    -0.000017516291    15.994914619570
         O           -1.001584270703    -0.835327654880     1.266204683709    15.994914619570
         O           -1.001599270703    -0.835367654880    -1.266173316291    15.994914619570
         C            1.779905729297    -0.405914654880    -0.000012316291    12.000000000000
         C           -1.717928270703     1.381924345120    -0.000014316291    12.000000000000
         C            3.054193729297     0.404520345120     0.000005683709    12.000000000000
         H            1.690571729297    -1.031587654880     0.892349683709     1.007825032230
         H            1.690589729297    -1.031574654880    -0.892385316291     1.007825032230
         H           -2.774864270703     1.111360345120     0.000008683709     1.007825032230
         H           -1.468014270703     1.944118345120     0.899016683709     1.007825032230
         H           -1.468043270703     1.944079345120    -0.899078316291     1.007825032230
         H            3.916533729297    -0.268228654880     0.000007683709     1.007825032230
         H            3.104571729297     1.036809345120    -0.888517316291     1.007825032230
         H            3.104556729297     1.036793345120     0.888542683709     1.007825032230

  Basis Set: AUG-CC-PVTZ
    Blend: AUG-CC-PVTZ
  Basis Set: (AUG-CC-PVTZ AUX)
    Blend: AUG-CC-PVTZ-JKFIT
	 Reference Energy          =    -740.4707035169154778 [Eh]
	 Singles Energy            =      -0.0000000000000000 [Eh]
	 Same-Spin Energy          =      -0.3963557122668379 [Eh]
	 Opposite-Spin Energy      =      -1.2188472526235059 [Eh]
	 Correlation Energy        =      -1.6152029648903437 [Eh]
	 Total Energy              =    -742.0859064818058641 [Eh]

	 ================> DF-SCS-MP2 Energies <==================
	-----------------------------------------------------------
	 SCS Same-Spin Scale       =       0.3333333333333333 [-]
	 SCS Opposite-Spin Scale   =       1.2000000000000000 [-]
	 SCS Same-Spin Energy      =      -0.1321185707556126 [Eh]
	 SCS Opposite-Spin Energy  =      -1.4626167031482071 [Eh]
	 SCS Correlation Energy    =      -1.5947352739038196 [Eh]
	 SCS Total Energy          =    -742.0654387908192575 [Eh]
	-----------------------------------------------------------

  Dipole Moment: [D]
     X:     0.6532      Y:     2.7604      Z:    -0.0001     Total:     2.8366

*** Psi4 exiting successfully. Buy a developer a beer!
