                               Psi4 1.3.2 release

  ==> Input File <==

--------------------------------------------------------------------------
#psi4
#
memory 32 gb

molecule  {
0 1
  S       -0.8476060    -0.1637020     0.0000030
  O        0.6356330     0.5297810    -0.0000160
  O       -1.0489850    -0.8657660     1.2662050
  O       -1.0490000    -0.8658060    -1.2661730
  C        1.6574637    -0.3702560    -0.0000123
  C       -1.7653290     1.3514860    -0.0000140
  C        3.0067930     0.3740820     0.0000060
  H        1.6431710    -1.0620260     0.8923500
  H        1.6431890    -1.0620130    -0.8923850
  H       -2.8222650     1.0809220     0.0000090
  H       -1.5154150     1.9136800     0.8990170
  H       -1.5154440     1.9136410    -0.8990780
  H        3.8691330    -0.2986670     0.0000080
  H        3.0571710     1.0063710    -0.8885170
  H        3.0571560     1.0063550     0.8885430
units angstrom
no_reorient  #important for SAPT in psi4, default
symmetry c1  #important for SAPT in psi4, default
}

set PROPERTIES_ORIGIN ["COM"]
properties('MP2/aug-cc-pvtz', properties = ['dipole'])
--------------------------------------------------------------------------

    Molecular point group: c1
  Charge       = 0
  Multiplicity = 1
  Basis Set: AUG-CC-PVTZ
    Blend: AUG-CC-PVTZ
  Basis Set: (AUG-CC-PVTZ AUX)
    Blend: AUG-CC-PVTZ-JKFIT

    Orbital Energies [Eh]
    ---------------------

    Doubly Occupied:

       1A    -92.227985     2A    -20.629852     3A    -20.564045
       4A    -20.564022     5A    -11.302860     6A    -11.288419
       7A    -11.232536     8A     -9.191872     9A     -6.877524
      10A     -6.875965    11A     -6.875658    12A     -1.504603
      13A     -1.405651    14A     -1.348042    15A     -1.075167
      16A     -1.020386    17A     -0.888376    18A     -0.828951
      19A     -0.740237    20A     -0.706279    21A     -0.694566
      22A     -0.654602    23A     -0.632468    24A     -0.612121
      25A     -0.610289    26A     -0.568003    27A     -0.565257
      28A     -0.536320    29A     -0.500217    30A     -0.494972
      31A     -0.488364    32A     -0.479939    33A     -0.462362

  @DF-RHF Final Energy:  -740.47708482520613

   => Energetics <=

    Nuclear Repulsion Energy =            441.4317174697081327
    One-Electron Energy =               -1894.9217837964997670
    Two-Electron Energy =                 713.0129815015856138
    Total Energy =                       -740.4770848252061342
  Basis Set: (AUG-CC-PVTZ AUX)
    Blend: AUG-CC-PVTZ-RI
    Molecular point group: c1

    Geometry (in Angstrom), charge = 0, multiplicity = 1:

       Center              X                  Y                   Z               Mass
    ------------   -----------------  -----------------  -----------------  -----------------
         S           -0.781261142309    -0.134196697387     0.000002557971    31.972071174400
         O            0.701977857691     0.559286302613    -0.000016442029    15.994914619570
         O           -0.982640142309    -0.836260697387     1.266204557971    15.994914619570
         O           -0.982655142309    -0.836300697387    -1.266173442029    15.994914619570
         C            1.723808557691    -0.340750697387    -0.000012742029    12.000000000000
         C           -1.698984142309     1.380991302613    -0.000014442029    12.000000000000
         C            3.073137857691     0.403587302613     0.000005557971    12.000000000000
         H            1.709515857691    -1.032520697387     0.892349557971     1.007825032230
         H            1.709533857691    -1.032507697387    -0.892385442029     1.007825032230
         H           -2.755920142309     1.110427302613     0.000008557971     1.007825032230
         H           -1.449070142309     1.943185302613     0.899016557971     1.007825032230
         H           -1.449099142309     1.943146302613    -0.899078442029     1.007825032230
         H            3.935477857691    -0.269161697387     0.000007557971     1.007825032230
         H            3.123515857691     1.035876302613    -0.888517442029     1.007825032230
         H            3.123500857691     1.035860302613     0.888542557971     1.007825032230

  Basis Set: AUG-CC-PVTZ
    Blend: AUG-CC-PVTZ
  Basis Set: (AUG-CC-PVTZ AUX)
    Blend: AUG-CC-PVTZ-JKFIT
	 Reference Energy          =    -740.4770848252061342 [Eh]
	 Singles Energy            =      -0.0000000000000000 [Eh]
	 Same-Spin Energy          =      -0.3945839713658658 [Eh]
	 Opposite-Spin Energy      =      -1.2134492348700630 [Eh]
	 Correlation Energy        =      -1.6080332062359288 [Eh]
	 Total Energy              =    -742.0851180314421072 [Eh]

	 ================> DF-SCS-MP2 Energies <==================
	-----------------------------------------------------------
	 SCS Same-Spin Scale       =       0.3333333333333333 [-]
	 SCS Opposite-Spin Scale   =       1.2000000000000000 [-]
	 SCS Same-Spin Energy      =      -0.1315279904552886 [Eh]
	 SCS Opposite-Spin Energy  =      -1.4561390818440756 [Eh]
	 SCS Correlation Energy    =      -1.5876670722993642 [Eh]
	 SCS Total Energy          =    -742.0647518975055164 [Eh]
	-----------------------------------------------------------

  Dipole Moment: [D]
     X:     0.9293      Y:     3.0245      Z:    -0.0001     Total:     3.1640

*** Psi4 exiting successfully. Buy a developer a beer!
