                               Psi4 1.3.2 release

  ==> Input File <==

--------------------------------------------------------------------------
#psi4
#
memory 32 gb

molecule  {
0 1
  S       -0.8476060    -0.1637020     0.0000030
  O        0.6272070     0.5198781     0.0219327
  O       -1.0489850    -0.8657660     1.2662050
  O       -1.0490000    -0.8658060    -1.2661730
  C        1.7325050    -0.4363530    -0.0000120
  C       -1.7653290     1.3514860    -0.0000140
  C        3.0067930     0.3740820     0.0000060
  H        1.6431710    -1.0620260     0.8923500
  H        1.6431890    -1.0620130    -0.8923850
  H       -2.8222650     1.0809220     0.0000090
  H       -1.5154150     1.9136800     0.8990170
  H       -1.5154440     1.9136410    -0.8990780
  H        3.8691330    -0.2986670     0.0000080
  H        3.0571710     1.0063710    -0.8885170
  H        3.0571560     1.0063550     0.8885430
units angstrom
no_reorient  #important for SAPT in psi4, default
symmetry c1  #important for SAPT in psi4, default
}

set PROPERTIES_ORIGIN ["COM"]
properties('MP2/aug-cc-pvtz', properties = ['dipole'])
--------------------------------------------------------------------------

    Molecular point group: c1
  Charge       = 0
  Multiplicity = 1
  Basis Set: AUG-CC-PVTZ
    Blend: AUG-CC-PVTZ
  Basis Set: (AUG-CC-PVTZ AUX)
    Blend: AUG-CC-PVTZ-JKFIT

    Orbital Energies [Eh]
    ---------------------

    Doubly Occupied:

       1A    -92.220904     2A    -20.619738     3A    -20.558494
       4A    -20.556236     5A    -11.306344     6A    -11.283225
       7A    -11.236616     8A     -9.184651     9A     -6.870252
      10A     -6.868874    11A     -6.868561    12A     -1.489239
      13A     -1.381328    14A     -1.342207    15A     -1.072350
      16A     -1.028468    17A     -0.881424    18A     -0.829158
      19A     -0.727656    20A     -0.698699    21A     -0.688047
      22A     -0.654957    23A     -0.622142    24A     -0.606695
      25A     -0.602489    26A     -0.564665    27A     -0.561771
      28A     -0.543822    29A     -0.504509    30A     -0.501662
      31A     -0.492602    32A     -0.476266    33A     -0.466238

  @DF-RHF Final Energy:  -740.48595537394738

   => Energetics <=

    Nuclear Repulsion Energy =            439.9249431018851624
    One-Electron Energy =               -1892.2012199565076571
    Two-Electron Energy =                 711.7903214806750611
    Total Energy =                       -740.4859553739473768
  Basis Set: (AUG-CC-PVTZ AUX)
    Blend: AUG-CC-PVTZ-RI
    Molecular point group: c1

    Geometry (in Angstrom), charge = 0, multiplicity = 1:

       Center              X                  Y                   Z               Mass
    ------------   -----------------  -----------------  -----------------  -----------------
         S           -0.787435356626    -0.126524027445    -0.002828218014    31.972071174400
         O            0.687377643374     0.557056072555     0.019101481986    15.994914619570
         O           -0.988814356626    -0.828588027445     1.263373781986    15.994914619570
         O           -0.988829356626    -0.828628027445    -1.269004218014    15.994914619570
         C            1.792675643374    -0.399175027445    -0.002843218014    12.000000000000
         C           -1.705158356626     1.388663972555    -0.002845218014    12.000000000000
         C            3.066963643374     0.411259972555    -0.002825218014    12.000000000000
         H            1.703341643374    -1.024848027445     0.889518781986     1.007825032230
         H            1.703359643374    -1.024835027445    -0.895216218014     1.007825032230
         H           -2.762094356626     1.118099972555    -0.002822218014     1.007825032230
         H           -1.455244356626     1.950857972555     0.896185781986     1.007825032230
         H           -1.455273356626     1.950818972555    -0.901909218014     1.007825032230
         H            3.929303643374    -0.261489027445    -0.002823218014     1.007825032230
         H            3.117341643374     1.043548972555    -0.891348218014     1.007825032230
         H            3.117326643374     1.043532972555     0.885711781986     1.007825032230

  Basis Set: AUG-CC-PVTZ
    Blend: AUG-CC-PVTZ
  Basis Set: (AUG-CC-PVTZ AUX)
    Blend: AUG-CC-PVTZ-JKFIT
	 Reference Energy          =    -740.4859553739473768 [Eh]
	 Singles Energy            =      -0.0000000000000000 [Eh]
	 Same-Spin Energy          =      -0.3940754500623260 [Eh]
	 Opposite-Spin Energy      =      -1.2130824116228380 [Eh]
	 Correlation Energy        =      -1.6071578616851641 [Eh]
	 Total Energy              =    -742.0931132356325861 [Eh]

	 ================> DF-SCS-MP2 Energies <==================
	-----------------------------------------------------------
	 SCS Same-Spin Scale       =       0.3333333333333333 [-]
	 SCS Opposite-Spin Scale   =       1.2000000000000000 [-]
	 SCS Same-Spin Energy      =      -0.1313584833541087 [Eh]
	 SCS Opposite-Spin Energy  =      -1.4556988939474056 [Eh]
	 SCS Correlation Energy    =      -1.5870573773015142 [Eh]
	 SCS Total Energy          =    -742.0730127512489389 [Eh]
	-----------------------------------------------------------

  Dipole Moment: [D]
     X:     1.4931      Y:     2.8906      Z:    -0.0471     Total:     3.2538

*** Psi4 exiting successfully. Buy a developer a beer!
