                               Psi4 1.3.2 release

  ==> Input File <==

--------------------------------------------------------------------------
#psi4
#
memory 32 gb

molecule  {
0 1
  S       -0.8476060    -0.1637020     0.0000030
  O        0.6726509     0.5664209    -0.0877441
  O       -1.0489850    -0.8657660     1.2662050
  O       -1.0490000    -0.8658060    -1.2661730
  C        1.7325050    -0.4363530    -0.0000120
  C       -1.7653290     1.3514860    -0.0000140
  C        3.0067930     0.3740820     0.0000060
  H        1.6431710    -1.0620260     0.8923500
  H        1.6431890    -1.0620130    -0.8923850
  H       -2.8222650     1.0809220     0.0000090
  H       -1.5154150     1.9136800     0.8990170
  H       -1.5154440     1.9136410    -0.8990780
  H        3.8691330    -0.2986670     0.0000080
  H        3.0571710     1.0063710    -0.8885170
  H        3.0571560     1.0063550     0.8885430
units angstrom
no_reorient  #important for SAPT in psi4, default
symmetry c1  #important for SAPT in psi4, default
}

set PROPERTIES_ORIGIN ["COM"]
properties('MP2/aug-cc-pvtz', properties = ['dipole'])
--------------------------------------------------------------------------

    Molecular point group: c1
  Charge       = 0
  Multiplicity = 1
  Basis Set: AUG-CC-PVTZ
    Blend: AUG-CC-PVTZ
  Basis Set: (AUG-CC-PVTZ AUX)
    Blend: AUG-CC-PVTZ-JKFIT

    Orbital Energies [Eh]
    ---------------------

    Doubly Occupied:

       1A    -92.223856     2A    -20.619072     3A    -20.567868
       4A    -20.559505     5A    -11.301623     6A    -11.285538
       7A    -11.232538     8A     -9.187646     9A     -6.873084
      10A     -6.871702    11A     -6.871489    12A     -1.480319
      13A     -1.376072    14A     -1.346232    15A     -1.069149
      16A     -1.025694    17A     -0.871766    18A     -0.832735
      19A     -0.724906    20A     -0.692676    21A     -0.685705
      22A     -0.656416    23A     -0.621309    24A     -0.608263
      25A     -0.604634    26A     -0.560165    27A     -0.556476
      28A     -0.543169    29A     -0.505155    30A     -0.500946
      31A     -0.495179    32A     -0.474143    33A     -0.469506

  @DF-RHF Final Energy:  -740.47653208059364

   => Energetics <=

    Nuclear Repulsion Energy =            437.8601410156486509
    One-Electron Energy =               -1888.0842717376579003
    Two-Electron Energy =                 709.7475986414156068
    Total Energy =                       -740.4765320805936426
  Basis Set: (AUG-CC-PVTZ AUX)
    Blend: AUG-CC-PVTZ-RI
    Molecular point group: c1

    Geometry (in Angstrom), charge = 0, multiplicity = 1:

       Center              X                  Y                   Z               Mass
    ------------   -----------------  -----------------  -----------------  -----------------
         S           -0.793296304275    -0.132526701384     0.011316914405    31.972071174400
         O            0.726960595725     0.597596198616    -0.076430185595    15.994914619570
         O           -0.994675304275    -0.834590701384     1.277518914405    15.994914619570
         O           -0.994690304275    -0.834630701384    -1.254859085595    15.994914619570
         C            1.786814695725    -0.405177701384     0.011301914405    12.000000000000
         C           -1.711019304275     1.382661298616     0.011299914405    12.000000000000
         C            3.061102695725     0.405257298616     0.011319914405    12.000000000000
         H            1.697480695725    -1.030850701384     0.903663914405     1.007825032230
         H            1.697498695725    -1.030837701384    -0.881071085595     1.007825032230
         H           -2.767955304275     1.112097298616     0.011322914405     1.007825032230
         H           -1.461105304275     1.944855298616     0.910330914405     1.007825032230
         H           -1.461134304275     1.944816298616    -0.887764085595     1.007825032230
         H            3.923442695725    -0.267491701384     0.011321914405     1.007825032230
         H            3.111480695725     1.037546298616    -0.877203085595     1.007825032230
         H            3.111465695725     1.037530298616     0.899856914405     1.007825032230

  Basis Set: AUG-CC-PVTZ
    Blend: AUG-CC-PVTZ
  Basis Set: (AUG-CC-PVTZ AUX)
    Blend: AUG-CC-PVTZ-JKFIT
	 Reference Energy          =    -740.4765320805936426 [Eh]
	 Singles Energy            =      -0.0000000000000000 [Eh]
	 Same-Spin Energy          =      -0.3955278112381034 [Eh]
	 Opposite-Spin Energy      =      -1.2169879539912574 [Eh]
	 Correlation Energy        =      -1.6125157652293609 [Eh]
	 Total Energy              =    -742.0890478458229609 [Eh]

	 ================> DF-SCS-MP2 Energies <==================
	-----------------------------------------------------------
	 SCS Same-Spin Scale       =       0.3333333333333333 [-]
	 SCS Opposite-Spin Scale   =       1.2000000000000000 [-]
	 SCS Same-Spin Energy      =      -0.1318426037460345 [Eh]
	 SCS Opposite-Spin Energy  =      -1.4603855447895089 [Eh]
	 SCS Correlation Energy    =      -1.5922281485355434 [Eh]
	 SCS Total Energy          =    -742.0687602291292251 [Eh]
	-----------------------------------------------------------

  Dipole Moment: [D]
     X:     1.0899      Y:     2.7582      Z:     0.1851     Total:     2.9715

*** Psi4 exiting successfully. Buy a developer a beer!
