                               Psi4 1.3.2 release

  ==> Input File <==

--------------------------------------------------------------------------
#psi4
#
memory 32 gb

molecule  {
0 1
  S       -0.8476060    -0.1637020     0.0000030
  O        0.6356330     0.5297810    -0.0000160
  O       -1.0489850    -0.8657660     1.2662050
  O       -1.0490000    -0.8658060    -1.2661730
  C        1.8825875    -0.5685469    -0.0000115
  C       -1.7653290     1.3514860    -0.0000140
  C        3.0067930     0.3740820     0.0000060
  H        1.6431710    -1.0620260     0.8923500
  H        1.6431890    -1.0620130    -0.8923850
  H       -2.8222650     1.0809220     0.0000090
  H       -1.5154150     1.9136800     0.8990170
  H       -1.5154440     1.9136410    -0.8990780
  H        3.8691330    -0.2986670     0.0000080
  H        3.0571710     1.0063710    -0.8885170
  H        3.0571560     1.0063550     0.8885430
units angstrom
no_reorient  #important for SAPT in psi4, default
symmetry c1  #important for SAPT in psi4, default
}

set PROPERTIES_ORIGIN ["COM"]
properties('MP2/aug-cc-pvtz', properties = ['dipole'])
--------------------------------------------------------------------------

    Molecular point group: c1
  Charge       = 0
  Multiplicity = 1
  Basis Set: AUG-CC-PVTZ
    Blend: AUG-CC-PVTZ
  Basis Set: (AUG-CC-PVTZ AUX)
    Blend: AUG-CC-PVTZ-JKFIT

    Orbital Energies [Eh]
    ---------------------

    Doubly Occupied:

       1A    -92.207361     2A    -20.593414     3A    -20.547434
       4A    -20.547411     5A    -11.321818     6A    -11.272908
       7A    -11.246562     8A     -9.170904     9A     -6.856315
      10A     -6.855241    11A     -6.855021    12A     -1.465236
      13A     -1.336146    14A     -1.332615    15A     -1.078970
      16A     -1.031508    17A     -0.882526    18A     -0.820672
      19A     -0.702157    20A     -0.698655    21A     -0.674267
      22A     -0.657578    23A     -0.610223    24A     -0.600927
      25A     -0.598314    26A     -0.578121    27A     -0.558393
      28A     -0.522723    29A     -0.521777    30A     -0.496744
      31A     -0.482645    32A     -0.462263    33A     -0.456901

  @DF-RHF Final Energy:  -740.45922560846259

   => Energetics <=

    Nuclear Repulsion Energy =            436.0396941881319890
    One-Electron Energy =               -1884.9103354228748231
    Two-Electron Energy =                 708.4114156262802453
    Total Energy =                       -740.4592256084625888
  Basis Set: (AUG-CC-PVTZ AUX)
    Blend: AUG-CC-PVTZ-RI
    Molecular point group: c1

    Geometry (in Angstrom), charge = 0, multiplicity = 1:

       Center              X                  Y                   Z               Mass
    ------------   -----------------  -----------------  -----------------  -----------------
         S           -0.803043905868    -0.115010259567     0.000002480564    31.972071174400
         O            0.680195094132     0.578472740433    -0.000016519436    15.994914619570
         O           -1.004422905868    -0.817074259567     1.266204480564    15.994914619570
         O           -1.004437905868    -0.817114259567    -1.266173519436    15.994914619570
         C            1.927149594132    -0.519855159567    -0.000012019436    12.000000000000
         C           -1.720766905868     1.400177740433    -0.000014519436    12.000000000000
         C            3.051355094132     0.422773740433     0.000005480564    12.000000000000
         H            1.687733094132    -1.013334259567     0.892349480564     1.007825032230
         H            1.687751094132    -1.013321259567    -0.892385519436     1.007825032230
         H           -2.777702905868     1.129613740433     0.000008480564     1.007825032230
         H           -1.470852905868     1.962371740433     0.899016480564     1.007825032230
         H           -1.470881905868     1.962332740433    -0.899078519436     1.007825032230
         H            3.913695094132    -0.249975259567     0.000007480564     1.007825032230
         H            3.101733094132     1.055062740433    -0.888517519436     1.007825032230
         H            3.101718094132     1.055046740433     0.888542480564     1.007825032230

  Basis Set: AUG-CC-PVTZ
    Blend: AUG-CC-PVTZ
  Basis Set: (AUG-CC-PVTZ AUX)
    Blend: AUG-CC-PVTZ-JKFIT
	 Reference Energy          =    -740.4592256084625888 [Eh]
	 Singles Energy            =      -0.0000000000000000 [Eh]
	 Same-Spin Energy          =      -0.3951128393243017 [Eh]
	 Opposite-Spin Energy      =      -1.2161796554053199 [Eh]
	 Correlation Energy        =      -1.6112924947296217 [Eh]
	 Total Energy              =    -742.0705181031921711 [Eh]

	 ================> DF-SCS-MP2 Energies <==================
	-----------------------------------------------------------
	 SCS Same-Spin Scale       =       0.3333333333333333 [-]
	 SCS Opposite-Spin Scale   =       1.2000000000000000 [-]
	 SCS Same-Spin Energy      =      -0.1317042797747672 [Eh]
	 SCS Opposite-Spin Energy  =      -1.4594155864863838 [Eh]
	 SCS Correlation Energy    =      -1.5911198662611510 [Eh]
	 SCS Total Energy          =    -742.0503454747237129 [Eh]
	-----------------------------------------------------------

  Dipole Moment: [D]
     X:     2.3934      Y:     2.5858      Z:    -0.0001     Total:     3.5235

*** Psi4 exiting successfully. Buy a developer a beer!
