                               Psi4 1.3.2 release

  ==> Input File <==

--------------------------------------------------------------------------
#psi4
#
memory 32 gb

molecule  {
0 1
  S       -0.8476060    -0.1637020     0.0000030
  O        0.6513144     0.4868270     0.1047227
  O       -1.0489850    -0.8657660     1.2662050
  O       -1.0490000    -0.8658060    -1.2661730
  C        1.7325050    -0.4363530    -0.0000120
  C       -1.7653290     1.3514860    -0.0000140
  C        3.0067930     0.3740820     0.0000060
  H        1.6431710    -1.0620260     0.8923500
  H        1.6431890    -1.0620130    -0.8923850
  H       -2.8222650     1.0809220     0.0000090
  H       -1.5154150     1.9136800     0.8990170
  H       -1.5154440     1.9136410    -0.8990780
  H        3.8691330    -0.2986670     0.0000080
  H        3.0571710     1.0063710    -0.8885170
  H        3.0571560     1.0063550     0.8885430
units angstrom
no_reorient  #important for SAPT in psi4, default
symmetry c1  #important for SAPT in psi4, default
}

set PROPERTIES_ORIGIN ["COM"]
properties('MP2/aug-cc-pvtz', properties = ['dipole'])
--------------------------------------------------------------------------

    Molecular point group: c1
  Charge       = 0
  Multiplicity = 1
  Basis Set: AUG-CC-PVTZ
    Blend: AUG-CC-PVTZ
  Basis Set: (AUG-CC-PVTZ AUX)
    Blend: AUG-CC-PVTZ-JKFIT

    Orbital Energies [Eh]
    ---------------------

    Doubly Occupied:

       1A    -92.223289     2A    -20.617983     3A    -20.563977
       4A    -20.553277     5A    -11.300685     6A    -11.287029
       7A    -11.234051     8A     -9.186957     9A     -6.872509
      10A     -6.871189    11A     -6.870816    12A     -1.490570
      13A     -1.386896    14A     -1.343000    15A     -1.073454
      16A     -1.028133    17A     -0.884041    18A     -0.827946
      19A     -0.731453    20A     -0.700637    21A     -0.688830
      22A     -0.656196    23A     -0.624331    24A     -0.608690
      25A     -0.604858    26A     -0.564921    27A     -0.562728
      28A     -0.542144    29A     -0.502734    30A     -0.499747
      31A     -0.491422    32A     -0.476473    33A     -0.464067

  @DF-RHF Final Energy:  -740.48353856535414

   => Energetics <=

    Nuclear Repulsion Energy =            440.0967921105225855
    One-Electron Energy =               -1892.4905949560140925
    Two-Electron Energy =                 711.9102642801374259
    Total Energy =                       -740.4835385653541380
  Basis Set: (AUG-CC-PVTZ AUX)
    Blend: AUG-CC-PVTZ-RI
    Molecular point group: c1

    Geometry (in Angstrom), charge = 0, multiplicity = 1:

       Center              X                  Y                   Z               Mass
    ------------   -----------------  -----------------  -----------------  -----------------
         S           -0.790544513396    -0.122261392265    -0.013505731516    31.972071174400
         O            0.708375886604     0.528267607735     0.091213968484    15.994914619570
         O           -0.991923513396    -0.824325392265     1.252696268484    15.994914619570
         O           -0.991938513396    -0.824365392265    -1.279681731516    15.994914619570
         C            1.789566486604    -0.394912392265    -0.013520731516    12.000000000000
         C           -1.708267513396     1.392926607735    -0.013522731516    12.000000000000
         C            3.063854486604     0.415522607735    -0.013502731516    12.000000000000
         H            1.700232486604    -1.020585392265     0.878841268484     1.007825032230
         H            1.700250486604    -1.020572392265    -0.905893731516     1.007825032230
         H           -2.765203513396     1.122362607735    -0.013499731516     1.007825032230
         H           -1.458353513396     1.955120607735     0.885508268484     1.007825032230
         H           -1.458382513396     1.955081607735    -0.912586731516     1.007825032230
         H            3.926194486604    -0.257226392265    -0.013500731516     1.007825032230
         H            3.114232486604     1.047811607735    -0.902025731516     1.007825032230
         H            3.114217486604     1.047795607735     0.875034268484     1.007825032230

  Basis Set: AUG-CC-PVTZ
    Blend: AUG-CC-PVTZ
  Basis Set: (AUG-CC-PVTZ AUX)
    Blend: AUG-CC-PVTZ-JKFIT
	 Reference Energy          =    -740.4835385653541380 [Eh]
	 Singles Energy            =      -0.0000000000000000 [Eh]
	 Same-Spin Energy          =      -0.3941614421137108 [Eh]
	 Opposite-Spin Energy      =      -1.2129251766879738 [Eh]
	 Correlation Energy        =      -1.6070866188016848 [Eh]
	 Total Energy              =    -742.0906251841557832 [Eh]

	 ================> DF-SCS-MP2 Energies <==================
	-----------------------------------------------------------
	 SCS Same-Spin Scale       =       0.3333333333333333 [-]
	 SCS Opposite-Spin Scale   =       1.2000000000000000 [-]
	 SCS Same-Spin Energy      =      -0.1313871473712369 [Eh]
	 SCS Opposite-Spin Energy  =      -1.4555102120255685 [Eh]
	 SCS Correlation Energy    =      -1.5868973593968054 [Eh]
	 SCS Total Energy          =    -742.0704359247509956 [Eh]
	-----------------------------------------------------------

  Dipole Moment: [D]
     X:     1.2538      Y:     2.9917      Z:    -0.2257     Total:     3.2516

*** Psi4 exiting successfully. Buy a developer a beer!
