                               Psi4 1.3.2 release

  ==> Input File <==

--------------------------------------------------------------------------
#psi4
#
memory 32 gb

molecule  {
0 1
  S       -0.8476060    -0.1637020     0.0000030
  O        0.6189387     0.5104908    -0.0000158
  O       -1.0489850    -0.8657660     1.2662050
  O       -1.0490000    -0.8658060    -1.2661730
  C        1.7325050    -0.4363530    -0.0000120
  C       -1.7653290     1.3514860    -0.0000140
  C        3.0067930     0.3740820     0.0000060
  H        1.6431710    -1.0620260     0.8923500
  H        1.6431890    -1.0620130    -0.8923850
  H       -2.8222650     1.0809220     0.0000090
  H       -1.5154150     1.9136800     0.8990170
  H       -1.5154440     1.9136410    -0.8990780
  H        3.8691330    -0.2986670     0.0000080
  H        3.0571710     1.0063710    -0.8885170
  H        3.0571560     1.0063550     0.8885430
units angstrom
no_reorient  #important for SAPT in psi4, default
symmetry c1  #important for SAPT in psi4, default
}

set PROPERTIES_ORIGIN ["COM"]
properties('MP2/aug-cc-pvtz', properties = ['dipole'])
--------------------------------------------------------------------------

    Molecular point group: c1
  Charge       = 0
  Multiplicity = 1
  Basis Set: AUG-CC-PVTZ
    Blend: AUG-CC-PVTZ
  Basis Set: (AUG-CC-PVTZ AUX)
    Blend: AUG-CC-PVTZ-JKFIT

    Orbital Energies [Eh]
    ---------------------

    Doubly Occupied:

       1A    -92.220254     2A    -20.619809     3A    -20.556126
       4A    -20.556103     5A    -11.307292     6A    -11.282796
       7A    -11.237409     8A     -9.184017     9A     -6.869656
      10A     -6.868267    11A     -6.867934    12A     -1.491402
      13A     -1.382058    14A     -1.341364    15A     -1.073077
      16A     -1.028915    17A     -0.883374    18A     -0.828481
      19A     -0.728148    20A     -0.699943    21A     -0.688649
      22A     -0.654681    23A     -0.622205    24A     -0.606447
      25A     -0.602099    26A     -0.565478    27A     -0.562868
      28A     -0.543859    29A     -0.504478    30A     -0.502074
      31A     -0.491866    32A     -0.476274    33A     -0.465410

  @DF-RHF Final Energy:  -740.48707298777128

   => Energetics <=

    Nuclear Repulsion Energy =            440.3210617668632949
    One-Electron Energy =               -1892.9906406532038545
    Two-Electron Energy =                 712.1825058985692749
    Total Energy =                       -740.4870729877712847
  Basis Set: (AUG-CC-PVTZ AUX)
    Blend: AUG-CC-PVTZ-RI
    Molecular point group: c1

    Geometry (in Angstrom), charge = 0, multiplicity = 1:

       Center              X                  Y                   Z               Mass
    ------------   -----------------  -----------------  -----------------  -----------------
         S           -0.786368985266    -0.125313337476     0.000002503150    31.972071174400
         O            0.680175714734     0.548879462524    -0.000016296850    15.994914619570
         O           -0.987747985266    -0.827377337476     1.266204503150    15.994914619570
         O           -0.987762985266    -0.827417337476    -1.266173496850    15.994914619570
         C            1.793742014734    -0.397964337476    -0.000012496850    12.000000000000
         C           -1.704091985266     1.389874662524    -0.000014496850    12.000000000000
         C            3.068030014734     0.412470662524     0.000005503150    12.000000000000
         H            1.704408014734    -1.023637337476     0.892349503150     1.007825032230
         H            1.704426014734    -1.023624337476    -0.892385496850     1.007825032230
         H           -2.761027985266     1.119310662524     0.000008503150     1.007825032230
         H           -1.454177985266     1.952068662524     0.899016503150     1.007825032230
         H           -1.454206985266     1.952029662524    -0.899078496850     1.007825032230
         H            3.930370014734    -0.260278337476     0.000007503150     1.007825032230
         H            3.118408014734     1.044759662524    -0.888517496850     1.007825032230
         H            3.118393014734     1.044743662524     0.888542503150     1.007825032230

  Basis Set: AUG-CC-PVTZ
    Blend: AUG-CC-PVTZ
  Basis Set: (AUG-CC-PVTZ AUX)
    Blend: AUG-CC-PVTZ-JKFIT
	 Reference Energy          =    -740.4870729877712847 [Eh]
	 Singles Energy            =      -0.0000000000000000 [Eh]
	 Same-Spin Energy          =      -0.3938239333836044 [Eh]
	 Opposite-Spin Energy      =      -1.2123969848250449 [Eh]
	 Correlation Energy        =      -1.6062209182086493 [Eh]
	 Total Energy              =    -742.0932939059799764 [Eh]

	 ================> DF-SCS-MP2 Energies <==================
	-----------------------------------------------------------
	 SCS Same-Spin Scale       =       0.3333333333333333 [-]
	 SCS Opposite-Spin Scale   =       1.2000000000000000 [-]
	 SCS Same-Spin Energy      =      -0.1312746444612015 [Eh]
	 SCS Opposite-Spin Energy  =      -1.4548763817900539 [Eh]
	 SCS Correlation Energy    =      -1.5861510262512553 [Eh]
	 SCS Total Energy          =    -742.0732240140225713 [Eh]
	-----------------------------------------------------------

  Dipole Moment: [D]
     X:     1.5701      Y:     2.9171      Z:    -0.0001     Total:     3.3129

*** Psi4 exiting successfully. Buy a developer a beer!
