                               Psi4 1.3.2 release

  ==> Input File <==

--------------------------------------------------------------------------
#psi4
#
memory 32 gb

molecule  {
0 1
  S       -0.8476060    -0.1637020     0.0000030
  O        0.6564200     0.4641478     0.1569326
  O       -1.0489850    -0.8657660     1.2662050
  O       -1.0490000    -0.8658060    -1.2661730
  C        1.7325050    -0.4363530    -0.0000120
  C       -1.7653290     1.3514860    -0.0000140
  C        3.0067930     0.3740820     0.0000060
  H        1.6431710    -1.0620260     0.8923500
  H        1.6431890    -1.0620130    -0.8923850
  H       -2.8222650     1.0809220     0.0000090
  H       -1.5154150     1.9136800     0.8990170
  H       -1.5154440     1.9136410    -0.8990780
  H        3.8691330    -0.2986670     0.0000080
  H        3.0571710     1.0063710    -0.8885170
  H        3.0571560     1.0063550     0.8885430
units angstrom
no_reorient  #important for SAPT in psi4, default
symmetry c1  #important for SAPT in psi4, default
}

set PROPERTIES_ORIGIN ["COM"]
properties('MP2/aug-cc-pvtz', properties = ['dipole'])
--------------------------------------------------------------------------

    Molecular point group: c1
  Charge       = 0
  Multiplicity = 1
  Basis Set: AUG-CC-PVTZ
    Blend: AUG-CC-PVTZ
  Basis Set: (AUG-CC-PVTZ AUX)
    Blend: AUG-CC-PVTZ-JKFIT

    Orbital Energies [Eh]
    ---------------------

    Doubly Occupied:

       1A    -92.223954     2A    -20.616921     3A    -20.566510
       4A    -20.550422     5A    -11.298777     6A    -11.288506
       7A    -11.233371     8A     -9.187606     9A     -6.873154
      10A     -6.871853    11A     -6.871436    12A     -1.492034
      13A     -1.389507    14A     -1.342531    15A     -1.074059
      16A     -1.028292    17A     -0.886116    18A     -0.826981
      19A     -0.733302    20A     -0.701639    21A     -0.689384
      22A     -0.656501    23A     -0.625316    24A     -0.609400
      25A     -0.605663    26A     -0.566185    27A     -0.562852
      28A     -0.541304    29A     -0.502634    30A     -0.500114
      31A     -0.489573    32A     -0.475692    33A     -0.461318

  @DF-RHF Final Energy:  -740.48046580806033

   => Energetics <=

    Nuclear Repulsion Energy =            440.3266604726746891
    One-Electron Energy =               -1892.9284408543551308
    Two-Electron Energy =                 712.1213145736199976
    Total Energy =                       -740.4804658080603303
  Basis Set: (AUG-CC-PVTZ AUX)
    Blend: AUG-CC-PVTZ-RI
    Molecular point group: c1

    Geometry (in Angstrom), charge = 0, multiplicity = 1:

       Center              X                  Y                   Z               Mass
    ------------   -----------------  -----------------  -----------------  -----------------
         S           -0.791202988006    -0.119336431953    -0.020239297312    31.972071174400
         O            0.712823011994     0.508513368047     0.136690302688    15.994914619570
         O           -0.992581988006    -0.821400431953     1.245962702688    15.994914619570
         O           -0.992596988006    -0.821440431953    -1.286415297312    15.994914619570
         C            1.788908011994    -0.391987431953    -0.020254297312    12.000000000000
         C           -1.708925988006     1.395851568047    -0.020256297312    12.000000000000
         C            3.063196011994     0.418447568047    -0.020236297312    12.000000000000
         H            1.699574011994    -1.017660431953     0.872107702688     1.007825032230
         H            1.699592011994    -1.017647431953    -0.912627297312     1.007825032230
         H           -2.765861988006     1.125287568047    -0.020233297312     1.007825032230
         H           -1.459011988006     1.958045568047     0.878774702688     1.007825032230
         H           -1.459040988006     1.958006568047    -0.919320297312     1.007825032230
         H            3.925536011994    -0.254301431953    -0.020234297312     1.007825032230
         H            3.113574011994     1.050736568047    -0.908759297312     1.007825032230
         H            3.113559011994     1.050720568047     0.868300702688     1.007825032230

  Basis Set: AUG-CC-PVTZ
    Blend: AUG-CC-PVTZ
  Basis Set: (AUG-CC-PVTZ AUX)
    Blend: AUG-CC-PVTZ-JKFIT
	 Reference Energy          =    -740.4804658080603303 [Eh]
	 Singles Energy            =      -0.0000000000000000 [Eh]
	 Same-Spin Energy          =      -0.3941874273454046 [Eh]
	 Opposite-Spin Energy      =      -1.2127732242908125 [Eh]
	 Correlation Energy        =      -1.6069606516362169 [Eh]
	 Total Energy              =    -742.0874264596965304 [Eh]

	 ================> DF-SCS-MP2 Energies <==================
	-----------------------------------------------------------
	 SCS Same-Spin Scale       =       0.3333333333333333 [-]
	 SCS Opposite-Spin Scale   =       1.2000000000000000 [-]
	 SCS Same-Spin Energy      =      -0.1313958091151348 [Eh]
	 SCS Opposite-Spin Energy  =      -1.4553278691489748 [Eh]
	 SCS Correlation Energy    =      -1.5867236782641096 [Eh]
	 SCS Total Energy          =    -742.0671894863244233 [Eh]
	-----------------------------------------------------------

  Dipole Moment: [D]
     X:     1.1882      Y:     3.0536      Z:    -0.3384     Total:     3.2940

*** Psi4 exiting successfully. Buy a developer a beer!
