                               Psi4 1.3.2 release

  ==> Input File <==

--------------------------------------------------------------------------
#psi4
#
memory 32 gb

molecule  {
0 1
  S       -0.8476060    -0.1637020     0.0000030
  O        0.6534846     0.5487010    -0.0439068
  O       -1.0489850    -0.8657660     1.2662050
  O       -1.0490000    -0.8658060    -1.2661730
  C        1.7325050    -0.4363530    -0.0000120
  C       -1.7653290     1.3514860    -0.0000140
  C        3.0067930     0.3740820     0.0000060
  H        1.6431710    -1.0620260     0.8923500
  H        1.6431890    -1.0620130    -0.8923850
  H       -2.8222650     1.0809220     0.0000090
  H       -1.5154150     1.9136800     0.8990170
  H       -1.5154440     1.9136410    -0.8990780
  H        3.8691330    -0.2986670     0.0000080
  H        3.0571710     1.0063710    -0.8885170
  H        3.0571560     1.0063550     0.8885430
units angstrom
no_reorient  #important for SAPT in psi4, default
symmetry c1  #important for SAPT in psi4, default
}

set PROPERTIES_ORIGIN ["COM"]
properties('MP2/aug-cc-pvtz', properties = ['dipole'])
--------------------------------------------------------------------------

    Molecular point group: c1
  Charge       = 0
  Multiplicity = 1
  Basis Set: AUG-CC-PVTZ
    Blend: AUG-CC-PVTZ
  Basis Set: (AUG-CC-PVTZ AUX)
    Blend: AUG-CC-PVTZ-JKFIT

    Orbital Energies [Eh]
    ---------------------

    Doubly Occupied:

       1A    -92.222731     2A    -20.619466     3A    -20.563306
       4A    -20.558988     5A    -11.303547     6A    -11.284531
       7A    -11.234209     8A     -9.186476     9A     -6.871975
      10A     -6.870605    11A     -6.870355    12A     -1.483524
      13A     -1.378483    14A     -1.344760    15A     -1.070365
      16A     -1.026910    17A     -0.875625    18A     -0.831272
      19A     -0.726050    20A     -0.695120    21A     -0.686501
      22A     -0.655841    23A     -0.621740    24A     -0.607573
      25A     -0.603724    26A     -0.561957    27A     -0.558605
      28A     -0.543569    29A     -0.504581    30A     -0.500900
      31A     -0.494571    32A     -0.475564    33A     -0.468615

  @DF-RHF Final Energy:  -740.48144499973534

   => Energetics <=

    Nuclear Repulsion Energy =            438.7122148742604395
    One-Electron Energy =               -1889.7832427633327370
    Two-Electron Energy =                 710.5895828893370663
    Total Energy =                       -740.4814449997353449
  Basis Set: (AUG-CC-PVTZ AUX)
    Blend: AUG-CC-PVTZ-RI
    Molecular point group: c1

    Geometry (in Angstrom), charge = 0, multiplicity = 1:

       Center              X                  Y                   Z               Mass
    ------------   -----------------  -----------------  -----------------  -----------------
         S           -0.790824406376    -0.130241347217     0.005663171650    31.972071174400
         O            0.710266193624     0.582161652783    -0.038246628350    15.994914619570
         O           -0.992203406376    -0.832305347217     1.271865171650    15.994914619570
         O           -0.992218406376    -0.832345347217    -1.260512828350    15.994914619570
         C            1.789286593624    -0.402892347217     0.005648171650    12.000000000000
         C           -1.708547406376     1.384946652783     0.005646171650    12.000000000000
         C            3.063574593624     0.407542652783     0.005666171650    12.000000000000
         H            1.699952593624    -1.028565347217     0.898010171650     1.007825032230
         H            1.699970593624    -1.028552347217    -0.886724828350     1.007825032230
         H           -2.765483406376     1.114382652783     0.005669171650     1.007825032230
         H           -1.458633406376     1.947140652783     0.904677171650     1.007825032230
         H           -1.458662406376     1.947101652783    -0.893417828350     1.007825032230
         H            3.925914593624    -0.265206347217     0.005668171650     1.007825032230
         H            3.113952593624     1.039831652783    -0.882856828350     1.007825032230
         H            3.113937593624     1.039815652783     0.894203171650     1.007825032230

  Basis Set: AUG-CC-PVTZ
    Blend: AUG-CC-PVTZ
  Basis Set: (AUG-CC-PVTZ AUX)
    Blend: AUG-CC-PVTZ-JKFIT
	 Reference Energy          =    -740.4814449997353449 [Eh]
	 Singles Energy            =      -0.0000000000000000 [Eh]
	 Same-Spin Energy          =      -0.3948888631137732 [Eh]
	 Opposite-Spin Energy      =      -1.2152861392904022 [Eh]
	 Correlation Energy        =      -1.6101750024041754 [Eh]
	 Total Energy              =    -742.0916200021395071 [Eh]

	 ================> DF-SCS-MP2 Energies <==================
	-----------------------------------------------------------
	 SCS Same-Spin Scale       =       0.3333333333333333 [-]
	 SCS Opposite-Spin Scale   =       1.2000000000000000 [-]
	 SCS Same-Spin Energy      =      -0.1316296210379244 [Eh]
	 SCS Opposite-Spin Energy  =      -1.4583433671484827 [Eh]
	 SCS Correlation Energy    =      -1.5899729881864071 [Eh]
	 SCS Total Energy          =    -742.0714179879217909 [Eh]
	-----------------------------------------------------------

  Dipole Moment: [D]
     X:     1.2573      Y:     2.8096      Z:     0.0933     Total:     3.0795

*** Psi4 exiting successfully. Buy a developer a beer!
