                               Psi4 1.3.2 release

  ==> Input File <==

--------------------------------------------------------------------------
#psi4
#
memory 32 gb

molecule  {
0 1
  S       -0.9119694    -0.0048623     0.0000015
  O        0.6356330     0.5297810    -0.0000160
  O       -1.0489850    -0.8657660     1.2662050
  O       -1.0490000    -0.8658060    -1.2661730
  C        1.7325050    -0.4363530    -0.0000120
  C       -1.7653290     1.3514860    -0.0000140
  C        3.0067930     0.3740820     0.0000060
  H        1.6431710    -1.0620260     0.8923500
  H        1.6431890    -1.0620130    -0.8923850
  H       -2.8222650     1.0809220     0.0000090
  H       -1.5154150     1.9136800     0.8990170
  H       -1.5154440     1.9136410    -0.8990780
  H        3.8691330    -0.2986670     0.0000080
  H        3.0571710     1.0063710    -0.8885170
  H        3.0571560     1.0063550     0.8885430
units angstrom
no_reorient  #important for SAPT in psi4, default
symmetry c1  #important for SAPT in psi4, default
}

set PROPERTIES_ORIGIN ["COM"]
properties('MP2/aug-cc-pvtz', properties = ['dipole'])
--------------------------------------------------------------------------

    Molecular point group: c1
  Charge       = 0
  Multiplicity = 1
  Basis Set: AUG-CC-PVTZ
    Blend: AUG-CC-PVTZ
  Basis Set: (AUG-CC-PVTZ AUX)
    Blend: AUG-CC-PVTZ-JKFIT

    Orbital Energies [Eh]
    ---------------------

    Doubly Occupied:

       1A    -92.225095     2A    -20.616457     3A    -20.544346
       4A    -20.544323     5A    -11.303307     6A    -11.301413
       7A    -11.234098     8A     -9.190872     9A     -6.876088
      10A     -6.875117    11A     -6.873795    12A     -1.462772
      13A     -1.351545    14A     -1.288359    15A     -1.133062
      16A     -1.040078    17A     -0.883725    18A     -0.826837
      19A     -0.735196    20A     -0.701872    21A     -0.687467
      22A     -0.668636    23A     -0.636683    24A     -0.600380
      25A     -0.596064    26A     -0.559176    27A     -0.551023
      28A     -0.533311    29A     -0.490919    30A     -0.489473
      31A     -0.474107    32A     -0.464336    33A     -0.441912

  @DF-RHF Final Energy:  -740.43765879413593

   => Energetics <=

    Nuclear Repulsion Energy =            437.6901739648107537
    One-Electron Energy =               -1887.8519749792890252
    Two-Electron Energy =                 709.7241422203422871
    Total Energy =                       -740.4376587941359276
  Basis Set: (AUG-CC-PVTZ AUX)
    Blend: AUG-CC-PVTZ-RI
    Molecular point group: c1

    Geometry (in Angstrom), charge = 0, multiplicity = 1:

       Center              X                  Y                   Z               Mass
    ------------   -----------------  -----------------  -----------------  -----------------
         S           -0.836292651789    -0.009910217814     0.000001415642    31.972071174400
         O            0.711309748211     0.524733082186    -0.000016084358    15.994914619570
         O           -0.973308251789    -0.870813917814     1.266204915642    15.994914619570
         O           -0.973323251789    -0.870853917814    -1.266173084358    15.994914619570
         C            1.808181748211    -0.441400917814    -0.000012084358    12.000000000000
         C           -1.689652251789     1.346438082186    -0.000014084358    12.000000000000
         C            3.082469748211     0.369034082186     0.000005915642    12.000000000000
         H            1.718847748211    -1.067073917814     0.892349915642     1.007825032230
         H            1.718865748211    -1.067060917814    -0.892385084358     1.007825032230
         H           -2.746588251789     1.075874082186     0.000008915642     1.007825032230
         H           -1.439738251789     1.908632082186     0.899016915642     1.007825032230
         H           -1.439767251789     1.908593082186    -0.899078084358     1.007825032230
         H            3.944809748211    -0.303714917814     0.000007915642     1.007825032230
         H            3.132847748211     1.001323082186    -0.888517084358     1.007825032230
         H            3.132832748211     1.001307082186     0.888542915642     1.007825032230

  Basis Set: AUG-CC-PVTZ
    Blend: AUG-CC-PVTZ
  Basis Set: (AUG-CC-PVTZ AUX)
    Blend: AUG-CC-PVTZ-JKFIT
	 Reference Energy          =    -740.4376587941359276 [Eh]
	 Singles Energy            =      -0.0000000000000000 [Eh]
	 Same-Spin Energy          =      -0.3977648501577365 [Eh]
	 Opposite-Spin Energy      =      -1.2190579301766029 [Eh]
	 Correlation Energy        =      -1.6168227803343393 [Eh]
	 Total Energy              =    -742.0544815744702873 [Eh]

	 ================> DF-SCS-MP2 Energies <==================
	-----------------------------------------------------------
	 SCS Same-Spin Scale       =       0.3333333333333333 [-]
	 SCS Opposite-Spin Scale   =       1.2000000000000000 [-]
	 SCS Same-Spin Energy      =      -0.1325882833859122 [Eh]
	 SCS Opposite-Spin Energy  =      -1.4628695162119234 [Eh]
	 SCS Correlation Energy    =      -1.5954577995978356 [Eh]
	 SCS Total Energy          =    -742.0331165937337801 [Eh]
	-----------------------------------------------------------

  Dipole Moment: [D]
     X:     0.9407      Y:     4.2047      Z:    -0.0001     Total:     4.3087

*** Psi4 exiting successfully. Buy a developer a beer!
