                               Psi4 1.3.2 release

  ==> Input File <==

--------------------------------------------------------------------------
#psi4
#
memory 32 gb

molecule  {
0 1
  S       -0.8352771    -0.1894825     0.0000032
  O        0.6356330     0.5297810    -0.0000160
  O       -1.0489850    -0.8657660     1.2662050
  O       -1.0490000    -0.8658060    -1.2661730
  C        1.7325050    -0.4363530    -0.0000120
  C       -1.7653290     1.3514860    -0.0000140
  C        3.0067930     0.3740820     0.0000060
  H        1.6431710    -1.0620260     0.8923500
  H        1.6431890    -1.0620130    -0.8923850
  H       -2.8222650     1.0809220     0.0000090
  H       -1.5154150     1.9136800     0.8990170
  H       -1.5154440     1.9136410    -0.8990780
  H        3.8691330    -0.2986670     0.0000080
  H        3.0571710     1.0063710    -0.8885170
  H        3.0571560     1.0063550     0.8885430
units angstrom
no_reorient  #important for SAPT in psi4, default
symmetry c1  #important for SAPT in psi4, default
}

set PROPERTIES_ORIGIN ["COM"]
properties('MP2/aug-cc-pvtz', properties = ['dipole'])
--------------------------------------------------------------------------

    Molecular point group: c1
  Charge       = 0
  Multiplicity = 1
  Basis Set: AUG-CC-PVTZ
    Blend: AUG-CC-PVTZ
  Basis Set: (AUG-CC-PVTZ AUX)
    Blend: AUG-CC-PVTZ-JKFIT

    Orbital Energies [Eh]
    ---------------------

    Doubly Occupied:

       1A    -92.220512     2A    -20.620448     3A    -20.560977
       4A    -20.560954     5A    -11.305984     6A    -11.280014
       7A    -11.236226     8A     -9.184280     9A     -6.869858
      10A     -6.868433    11A     -6.868322    12A     -1.491972
      13A     -1.384214    14A     -1.351416    15A     -1.065893
      16A     -1.022622    17A     -0.878923    18A     -0.830900
      19A     -0.727033    20A     -0.698409    21A     -0.688345
      22A     -0.654991    23A     -0.620419    24A     -0.605951
      25A     -0.602076    26A     -0.565415    27A     -0.561060
      28A     -0.545330    29A     -0.506665    30A     -0.503919
      31A     -0.497676    32A     -0.472342    33A     -0.470580

  @DF-RHF Final Energy:  -740.48491140140459

   => Energetics <=

    Nuclear Repulsion Energy =            439.8206648100228335
    One-Electron Energy =               -1891.9668415490195912
    Two-Electron Energy =                 711.6612653375921127
    Total Energy =                       -740.4849114014045881
  Basis Set: (AUG-CC-PVTZ AUX)
    Blend: AUG-CC-PVTZ-RI
    Molecular point group: c1

    Geometry (in Angstrom), charge = 0, multiplicity = 1:

       Center              X                  Y                   Z               Mass
    ------------   -----------------  -----------------  -----------------  -----------------
         S           -0.779371543811    -0.146935529862     0.000002677384    31.972071174400
         O            0.691538556189     0.572327970138    -0.000016522616    15.994914619570
         O           -0.993079443811    -0.823219029862     1.266204477384    15.994914619570
         O           -0.993094443811    -0.823259029862    -1.266173522616    15.994914619570
         C            1.788410556189    -0.393806029862    -0.000012522616    12.000000000000
         C           -1.709423443811     1.394032970138    -0.000014522616    12.000000000000
         C            3.062698556189     0.416628970138     0.000005477384    12.000000000000
         H            1.699076556189    -1.019479029862     0.892349477384     1.007825032230
         H            1.699094556189    -1.019466029862    -0.892385522616     1.007825032230
         H           -2.766359443811     1.123468970138     0.000008477384     1.007825032230
         H           -1.459509443811     1.956226970138     0.899016477384     1.007825032230
         H           -1.459538443811     1.956187970138    -0.899078522616     1.007825032230
         H            3.925038556189    -0.256120029862     0.000007477384     1.007825032230
         H            3.113076556189     1.048917970138    -0.888517522616     1.007825032230
         H            3.113061556189     1.048901970138     0.888542477384     1.007825032230

  Basis Set: AUG-CC-PVTZ
    Blend: AUG-CC-PVTZ
  Basis Set: (AUG-CC-PVTZ AUX)
    Blend: AUG-CC-PVTZ-JKFIT
	 Reference Energy          =    -740.4849114014045881 [Eh]
	 Singles Energy            =      -0.0000000000000000 [Eh]
	 Same-Spin Energy          =      -0.3939927417642722 [Eh]
	 Opposite-Spin Energy      =      -1.2134015108214637 [Eh]
	 Correlation Energy        =      -1.6073942525857361 [Eh]
	 Total Energy              =    -742.0923056539903655 [Eh]

	 ================> DF-SCS-MP2 Energies <==================
	-----------------------------------------------------------
	 SCS Same-Spin Scale       =       0.3333333333333333 [-]
	 SCS Opposite-Spin Scale   =       1.2000000000000000 [-]
	 SCS Same-Spin Energy      =      -0.1313309139214241 [Eh]
	 SCS Opposite-Spin Energy  =      -1.4560818129857565 [Eh]
	 SCS Correlation Energy    =      -1.5874127269071805 [Eh]
	 SCS Total Energy          =    -742.0723241283117204 [Eh]
	-----------------------------------------------------------

  Dipole Moment: [D]
     X:     1.5137      Y:     2.6401      Z:    -0.0001     Total:     3.0433

*** Psi4 exiting successfully. Buy a developer a beer!
