                               Psi4 1.3.2 release

  ==> Input File <==

--------------------------------------------------------------------------
#psi4
#
memory 32 gb

molecule  {
0 1
  S       -0.8476060    -0.1637020     0.0000030
  O        0.5709108     0.4509136    -0.0000151
  O       -1.0489850    -0.8657660     1.2662050
  O       -1.0490000    -0.8658060    -1.2661730
  C        1.7325050    -0.4363530    -0.0000120
  C       -1.7653290     1.3514860    -0.0000140
  C        3.0067930     0.3740820     0.0000060
  H        1.6431710    -1.0620260     0.8923500
  H        1.6431890    -1.0620130    -0.8923850
  H       -2.8222650     1.0809220     0.0000090
  H       -1.5154150     1.9136800     0.8990170
  H       -1.5154440     1.9136410    -0.8990780
  H        3.8691330    -0.2986670     0.0000080
  H        3.0571710     1.0063710    -0.8885170
  H        3.0571560     1.0063550     0.8885430
units angstrom
no_reorient  #important for SAPT in psi4, default
symmetry c1  #important for SAPT in psi4, default
}

set PROPERTIES_ORIGIN ["COM"]
properties('MP2/aug-cc-pvtz', properties = ['dipole'])
--------------------------------------------------------------------------

    Molecular point group: c1
  Charge       = 0
  Multiplicity = 1
  Basis Set: AUG-CC-PVTZ
    Blend: AUG-CC-PVTZ
  Basis Set: (AUG-CC-PVTZ AUX)
    Blend: AUG-CC-PVTZ-JKFIT

    Orbital Energies [Eh]
    ---------------------

    Doubly Occupied:

       1A    -92.215633     2A    -20.619967     3A    -20.548184
       4A    -20.548161     5A    -11.313453     6A    -11.280169
       7A    -11.242367     8A     -9.179689     9A     -6.865619
      10A     -6.864050    11A     -6.863608    12A     -1.507822
      13A     -1.384438    14A     -1.335883    15A     -1.078294
      16A     -1.031115    17A     -0.895900    18A     -0.824445
      19A     -0.730946    20A     -0.708278    21A     -0.693372
      22A     -0.653135    23A     -0.621850    24A     -0.605495
      25A     -0.599859    26A     -0.570077    27A     -0.569724
      28A     -0.543587    29A     -0.504912    30A     -0.504793
      31A     -0.486699    32A     -0.474264    33A     -0.459537

  @DF-RHF Final Energy:  -740.48925501599240

   => Energetics <=

    Nuclear Repulsion Energy =            442.7645481306179249
    One-Electron Energy =               -1897.8569531893379008
    Two-Electron Energy =                 714.6031500427276342
    Total Energy =                       -740.4892550159923985
  Basis Set: (AUG-CC-PVTZ AUX)
    Blend: AUG-CC-PVTZ-RI
    Molecular point group: c1

    Geometry (in Angstrom), charge = 0, multiplicity = 1:

       Center              X                  Y                   Z               Mass
    ------------   -----------------  -----------------  -----------------  -----------------
         S           -0.780174776415    -0.117629603240     0.000002412870    31.972071174400
         O            0.638342023585     0.496985996760    -0.000015687130    15.994914619570
         O           -0.981553776415    -0.819693603240     1.266204412870    15.994914619570
         O           -0.981568776415    -0.819733603240    -1.266173587130    15.994914619570
         C            1.799936223585    -0.390280603240    -0.000012587130    12.000000000000
         C           -1.697897776415     1.397558396760    -0.000014587130    12.000000000000
         C            3.074224223585     0.420154396760     0.000005412870    12.000000000000
         H            1.710602223585    -1.015953603240     0.892349412870     1.007825032230
         H            1.710620223585    -1.015940603240    -0.892385587130     1.007825032230
         H           -2.754833776415     1.126994396760     0.000008412870     1.007825032230
         H           -1.447983776415     1.959752396760     0.899016412870     1.007825032230
         H           -1.448012776415     1.959713396760    -0.899078587130     1.007825032230
         H            3.936564223585    -0.252594603240     0.000007412870     1.007825032230
         H            3.124602223585     1.052443396760    -0.888517587130     1.007825032230
         H            3.124587223585     1.052427396760     0.888542412870     1.007825032230

  Basis Set: AUG-CC-PVTZ
    Blend: AUG-CC-PVTZ
  Basis Set: (AUG-CC-PVTZ AUX)
    Blend: AUG-CC-PVTZ-JKFIT
	 Reference Energy          =    -740.4892550159923985 [Eh]
	 Singles Energy            =      -0.0000000000000000 [Eh]
	 Same-Spin Energy          =      -0.3924397529675163 [Eh]
	 Opposite-Spin Energy      =      -1.2085685624251838 [Eh]
	 Correlation Energy        =      -1.6010083153927002 [Eh]
	 Total Energy              =    -742.0902633313851311 [Eh]

	 ================> DF-SCS-MP2 Energies <==================
	-----------------------------------------------------------
	 SCS Same-Spin Scale       =       0.3333333333333333 [-]
	 SCS Opposite-Spin Scale   =       1.2000000000000000 [-]
	 SCS Same-Spin Energy      =      -0.1308132509891721 [Eh]
	 SCS Opposite-Spin Energy  =      -1.4502822749102207 [Eh]
	 SCS Correlation Energy    =      -1.5810955258993928 [Eh]
	 SCS Total Energy          =    -742.0703505418917985 [Eh]
	-----------------------------------------------------------

  Dipole Moment: [D]
     X:     2.0467      Y:     3.0842      Z:    -0.0001     Total:     3.7015

*** Psi4 exiting successfully. Buy a developer a beer!
