                               Psi4 1.3.2 release

  ==> Input File <==

--------------------------------------------------------------------------
#psi4
#
memory 32 gb

molecule  {
0 1
  S       -0.8476060    -0.1637020     0.0000030
  O        0.6700188     0.5674727    -0.0000164
  O       -1.0489850    -0.8657660     1.2662050
  O       -1.0490000    -0.8658060    -1.2661730
  C        1.7325050    -0.4363530    -0.0000120
  C       -1.7653290     1.3514860    -0.0000140
  C        3.0067930     0.3740820     0.0000060
  H        1.6431710    -1.0620260     0.8923500
  H        1.6431890    -1.0620130    -0.8923850
  H       -2.8222650     1.0809220     0.0000090
  H       -1.5154150     1.9136800     0.8990170
  H       -1.5154440     1.9136410    -0.8990780
  H        3.8691330    -0.2986670     0.0000080
  H        3.0571710     1.0063710    -0.8885170
  H        3.0571560     1.0063550     0.8885430
units angstrom
no_reorient  #important for SAPT in psi4, default
symmetry c1  #important for SAPT in psi4, default
}

set PROPERTIES_ORIGIN ["COM"]
properties('MP2/aug-cc-pvtz', properties = ['dipole'])
--------------------------------------------------------------------------

    Molecular point group: c1
  Charge       = 0
  Multiplicity = 1
  Basis Set: AUG-CC-PVTZ
    Blend: AUG-CC-PVTZ
  Basis Set: (AUG-CC-PVTZ AUX)
    Blend: AUG-CC-PVTZ-JKFIT

    Orbital Energies [Eh]
    ---------------------

    Doubly Occupied:

       1A    -92.223715     2A    -20.619353     3A    -20.563423
       4A    -20.563399     5A    -11.301987     6A    -11.285253
       7A    -11.232788     8A     -9.187487     9A     -6.872934
      10A     -6.871553    11A     -6.871345    12A     -1.480756
      13A     -1.376316    14A     -1.346431    15A     -1.069376
      16A     -1.025813    17A     -0.872283    18A     -0.832588
      19A     -0.724975    20A     -0.693242    21A     -0.685780
      22A     -0.656428    23A     -0.621348    24A     -0.608177
      25A     -0.604478    26A     -0.560061    27A     -0.556906
      28A     -0.543366    29A     -0.504421    30A     -0.500898
      31A     -0.495665    32A     -0.474735    33A     -0.470236

  @DF-RHF Final Energy:  -740.47844433909347

   => Energetics <=

    Nuclear Repulsion Energy =            437.9889739345977659
    One-Electron Energy =               -1888.3398036842834244
    Two-Electron Energy =                 709.8723854105920736
    Total Energy =                       -740.4784443390934712
  Basis Set: (AUG-CC-PVTZ AUX)
    Blend: AUG-CC-PVTZ-RI
    Molecular point group: c1

    Geometry (in Angstrom), charge = 0, multiplicity = 1:

       Center              X                  Y                   Z               Mass
    ------------   -----------------  -----------------  -----------------  -----------------
         S           -0.792956839565    -0.132662353138     0.000002580532    31.972071174400
         O            0.724667960435     0.598512346862    -0.000016819468    15.994914619570
         O           -0.994335839565    -0.834726353138     1.266204580532    15.994914619570
         O           -0.994350839565    -0.834766353138    -1.266173419468    15.994914619570
         C            1.787154160435    -0.405313353138    -0.000012419468    12.000000000000
         C           -1.710679839565     1.382525646862    -0.000014419468    12.000000000000
         C            3.061442160435     0.405121646862     0.000005580532    12.000000000000
         H            1.697820160435    -1.030986353138     0.892349580532     1.007825032230
         H            1.697838160435    -1.030973353138    -0.892385419468     1.007825032230
         H           -2.767615839565     1.111961646862     0.000008580532     1.007825032230
         H           -1.460765839565     1.944719646862     0.899016580532     1.007825032230
         H           -1.460794839565     1.944680646862    -0.899078419468     1.007825032230
         H            3.923782160435    -0.267627353138     0.000007580532     1.007825032230
         H            3.111820160435     1.037410646862    -0.888517419468     1.007825032230
         H            3.111805160435     1.037394646862     0.888542580532     1.007825032230

  Basis Set: AUG-CC-PVTZ
    Blend: AUG-CC-PVTZ
  Basis Set: (AUG-CC-PVTZ AUX)
    Blend: AUG-CC-PVTZ-JKFIT
	 Reference Energy          =    -740.4784443390934712 [Eh]
	 Singles Energy            =      -0.0000000000000000 [Eh]
	 Same-Spin Energy          =      -0.3953914976355496 [Eh]
	 Opposite-Spin Energy      =      -1.2166480674938445 [Eh]
	 Correlation Energy        =      -1.6120395651293942 [Eh]
	 Total Energy              =    -742.0904839042228787 [Eh]

	 ================> DF-SCS-MP2 Energies <==================
	-----------------------------------------------------------
	 SCS Same-Spin Scale       =       0.3333333333333333 [-]
	 SCS Opposite-Spin Scale   =       1.2000000000000000 [-]
	 SCS Same-Spin Energy      =      -0.1317971658785165 [Eh]
	 SCS Opposite-Spin Energy  =      -1.4599776809926133 [Eh]
	 SCS Correlation Energy    =      -1.5917748468711297 [Eh]
	 SCS Total Energy          =    -742.0702191859645609 [Eh]
	-----------------------------------------------------------

  Dipole Moment: [D]
     X:     1.1177      Y:     2.7582      Z:    -0.0001     Total:     2.9760

*** Psi4 exiting successfully. Buy a developer a beer!
