                               Psi4 1.3.2 release

  ==> Input File <==

--------------------------------------------------------------------------
#psi4
#
memory 32 gb

molecule  {
0 1
  S       -0.8476060    -0.1637020     0.0000030
  O        0.6443931     0.5393896    -0.0219647
  O       -1.0489850    -0.8657660     1.2662050
  O       -1.0490000    -0.8658060    -1.2661730
  C        1.7325050    -0.4363530    -0.0000120
  C       -1.7653290     1.3514860    -0.0000140
  C        3.0067930     0.3740820     0.0000060
  H        1.6431710    -1.0620260     0.8923500
  H        1.6431890    -1.0620130    -0.8923850
  H       -2.8222650     1.0809220     0.0000090
  H       -1.5154150     1.9136800     0.8990170
  H       -1.5154440     1.9136410    -0.8990780
  H        3.8691330    -0.2986670     0.0000080
  H        3.0571710     1.0063710    -0.8885170
  H        3.0571560     1.0063550     0.8885430
units angstrom
no_reorient  #important for SAPT in psi4, default
symmetry c1  #important for SAPT in psi4, default
}

set PROPERTIES_ORIGIN ["COM"]
properties('MP2/aug-cc-pvtz', properties = ['dipole'])
--------------------------------------------------------------------------

    Molecular point group: c1
  Charge       = 0
  Multiplicity = 1
  Basis Set: AUG-CC-PVTZ
    Blend: AUG-CC-PVTZ
  Basis Set: (AUG-CC-PVTZ AUX)
    Blend: AUG-CC-PVTZ-JKFIT

    Orbital Energies [Eh]
    ---------------------

    Doubly Occupied:

       1A    -92.222138     2A    -20.619601     3A    -20.560976
       4A    -20.558784     5A    -11.304495     6A    -11.284067
       7A    -11.235027     8A     -9.185874     9A     -6.871407
      10A     -6.870037    11A     -6.869766    12A     -1.485320
      13A     -1.379537    14A     -1.343952    15A     -1.071013
      16A     -1.027461    17A     -0.877564    18A     -0.830556
      19A     -0.726599    20A     -0.696334    21A     -0.686973
      22A     -0.655550    23A     -0.621907    24A     -0.607257
      25A     -0.603294    26A     -0.562860    27A     -0.559668
      28A     -0.543700    29A     -0.504406    30A     -0.501130
      31A     -0.494017    32A     -0.475997    33A     -0.467943

  @DF-RHF Final Energy:  -740.48333558895160

   => Energetics <=

    Nuclear Repulsion Energy =            439.1260585622212034
    One-Electron Energy =               -1890.6083646543045234
    Two-Electron Energy =                 710.9989705031316589
    Total Energy =                       -740.4833355889516042
  Basis Set: (AUG-CC-PVTZ AUX)
    Blend: AUG-CC-PVTZ-RI
    Molecular point group: c1

    Geometry (in Angstrom), charge = 0, multiplicity = 1:

       Center              X                  Y                   Z               Mass
    ------------   -----------------  -----------------  -----------------  -----------------
         S           -0.789651866045    -0.129040446151     0.002833275901    31.972071174400
         O            0.702347233955     0.574051153849    -0.019134424099    15.994914619570
         O           -0.991030866045    -0.831104446151     1.269035275901    15.994914619570
         O           -0.991045866045    -0.831144446151    -1.263342724099    15.994914619570
         C            1.790459133955    -0.401691446151     0.002818275901    12.000000000000
         C           -1.707374866045     1.386147553849     0.002816275901    12.000000000000
         C            3.064747133955     0.408743553849     0.002836275901    12.000000000000
         H            1.701125133955    -1.027364446151     0.895180275901     1.007825032230
         H            1.701143133955    -1.027351446151    -0.889554724099     1.007825032230
         H           -2.764310866045     1.115583553849     0.002839275901     1.007825032230
         H           -1.457460866045     1.948341553849     0.901847275901     1.007825032230
         H           -1.457489866045     1.948302553849    -0.896247724099     1.007825032230
         H            3.927087133955    -0.264005446151     0.002838275901     1.007825032230
         H            3.115125133955     1.041032553849    -0.885686724099     1.007825032230
         H            3.115110133955     1.041016553849     0.891373275901     1.007825032230

  Basis Set: AUG-CC-PVTZ
    Blend: AUG-CC-PVTZ
  Basis Set: (AUG-CC-PVTZ AUX)
    Blend: AUG-CC-PVTZ-JKFIT
	 Reference Energy          =    -740.4833355889516042 [Eh]
	 Singles Energy            =      -0.0000000000000000 [Eh]
	 Same-Spin Energy          =      -0.3945978557918921 [Eh]
	 Opposite-Spin Energy      =      -1.2145039457088269 [Eh]
	 Correlation Energy        =      -1.6091018015007190 [Eh]
	 Total Energy              =    -742.0924373904523463 [Eh]

	 ================> DF-SCS-MP2 Energies <==================
	-----------------------------------------------------------
	 SCS Same-Spin Scale       =       0.3333333333333333 [-]
	 SCS Opposite-Spin Scale   =       1.2000000000000000 [-]
	 SCS Same-Spin Energy      =      -0.1315326185972974 [Eh]
	 SCS Opposite-Spin Energy  =      -1.4574047348505923 [Eh]
	 SCS Correlation Energy    =      -1.5889373534478897 [Eh]
	 SCS Total Energy          =    -742.0722729423995361 [Eh]
	-----------------------------------------------------------

  Dipole Moment: [D]
     X:     1.3381      Y:     2.8361      Z:     0.0468     Total:     3.1363

*** Psi4 exiting successfully. Buy a developer a beer!
