                               Psi4 1.3.2 release

  ==> Input File <==

--------------------------------------------------------------------------
#psi4
#
memory 32 gb

molecule  {
0 1
  S       -0.8476060    -0.1637020     0.0000030
  O        0.5550189     0.6810227    -0.0000178
  O       -1.0489850    -0.8657660     1.2662050
  O       -1.0490000    -0.8658060    -1.2661730
  C        1.7325050    -0.4363530    -0.0000120
  C       -1.7653290     1.3514860    -0.0000140
  C        3.0067930     0.3740820     0.0000060
  H        1.6431710    -1.0620260     0.8923500
  H        1.6431890    -1.0620130    -0.8923850
  H       -2.8222650     1.0809220     0.0000090
  H       -1.5154150     1.9136800     0.8990170
  H       -1.5154440     1.9136410    -0.8990780
  H        3.8691330    -0.2986670     0.0000080
  H        3.0571710     1.0063710    -0.8885170
  H        3.0571560     1.0063550     0.8885430
units angstrom
no_reorient  #important for SAPT in psi4, default
symmetry c1  #important for SAPT in psi4, default
}

set PROPERTIES_ORIGIN ["COM"]
properties('MP2/aug-cc-pvtz', properties = ['dipole'])
--------------------------------------------------------------------------

    Molecular point group: c1
  Charge       = 0
  Multiplicity = 1
  Basis Set: AUG-CC-PVTZ
    Blend: AUG-CC-PVTZ
  Basis Set: (AUG-CC-PVTZ AUX)
    Blend: AUG-CC-PVTZ-JKFIT

    Orbital Energies [Eh]
    ---------------------

    Doubly Occupied:

       1A    -92.214884     2A    -20.621301     3A    -20.558038
       4A    -20.558015     5A    -11.325801     6A    -11.270007
       7A    -11.243942     8A     -9.178780     9A     -6.864471
      10A     -6.862809    11A     -6.862795    12A     -1.477005
      13A     -1.357359    14A     -1.341300    15A     -1.066886
      16A     -1.026036    17A     -0.870375    18A     -0.831601
      19A     -0.710422    20A     -0.686890    21A     -0.681803
      22A     -0.653967    23A     -0.615142    24A     -0.599079
      25A     -0.598799    26A     -0.562571    27A     -0.554786
      28A     -0.539254    29A     -0.514896    30A     -0.512348
      31A     -0.492042    32A     -0.469465    33A     -0.467644

  @DF-RHF Final Energy:  -740.46271635990274

   => Energetics <=

    Nuclear Repulsion Energy =            437.3458403588403485
    One-Electron Energy =               -1887.2360904973020297
    Two-Electron Energy =                 709.4275337785588817
    Total Energy =                       -740.4627163599027426
  Basis Set: (AUG-CC-PVTZ AUX)
    Blend: AUG-CC-PVTZ-RI
    Molecular point group: c1

    Geometry (in Angstrom), charge = 0, multiplicity = 1:

       Center              X                  Y                   Z               Mass
    ------------   -----------------  -----------------  -----------------  -----------------
         S           -0.778125181333    -0.147307016240     0.000002761092    31.972071174400
         O            0.624499718667     0.697417683760    -0.000018038908    15.994914619570
         O           -0.979504181333    -0.849371016240     1.266204761092    15.994914619570
         O           -0.979519181333    -0.849411016240    -1.266173238908    15.994914619570
         C            1.801985818667    -0.419958016240    -0.000012238908    12.000000000000
         C           -1.695848181333     1.367880983760    -0.000014238908    12.000000000000
         C            3.076273818667     0.390476983760     0.000005761092    12.000000000000
         H            1.712651818667    -1.045631016240     0.892349761092     1.007825032230
         H            1.712669818667    -1.045618016240    -0.892385238908     1.007825032230
         H           -2.752784181333     1.097316983760     0.000008761092     1.007825032230
         H           -1.445934181333     1.930074983760     0.899016761092     1.007825032230
         H           -1.445963181333     1.930035983760    -0.899078238908     1.007825032230
         H            3.938613818667    -0.282272016240     0.000007761092     1.007825032230
         H            3.126651818667     1.022765983760    -0.888517238908     1.007825032230
         H            3.126636818667     1.022749983760     0.888542761092     1.007825032230

  Basis Set: AUG-CC-PVTZ
    Blend: AUG-CC-PVTZ
  Basis Set: (AUG-CC-PVTZ AUX)
    Blend: AUG-CC-PVTZ-JKFIT
	 Reference Energy          =    -740.4627163599027426 [Eh]
	 Singles Energy            =      -0.0000000000000000 [Eh]
	 Same-Spin Energy          =      -0.3960375980064305 [Eh]
	 Opposite-Spin Energy      =      -1.2193055995577082 [Eh]
	 Correlation Energy        =      -1.6153431975641386 [Eh]
	 Total Energy              =    -742.0780595574668723 [Eh]

	 ================> DF-SCS-MP2 Energies <==================
	-----------------------------------------------------------
	 SCS Same-Spin Scale       =       0.3333333333333333 [-]
	 SCS Opposite-Spin Scale   =       1.2000000000000000 [-]
	 SCS Same-Spin Energy      =      -0.1320125326688101 [Eh]
	 SCS Opposite-Spin Energy  =      -1.4631667194692499 [Eh]
	 SCS Correlation Energy    =      -1.5951792521380601 [Eh]
	 SCS Total Energy          =    -742.0578956120408520 [Eh]
	-----------------------------------------------------------

  Dipole Moment: [D]
     X:     2.0641      Y:     2.4092      Z:    -0.0001     Total:     3.1725

*** Psi4 exiting successfully. Buy a developer a beer!
