                               Psi4 1.3.2 release

  ==> Input File <==

--------------------------------------------------------------------------
#psi4
#
memory 32 gb

molecule  {
0 1
  S       -0.8225002    -0.2150438     0.0000034
  O        0.6356330     0.5297810    -0.0000160
  O       -1.0489850    -0.8657660     1.2662050
  O       -1.0490000    -0.8658060    -1.2661730
  C        1.7325050    -0.4363530    -0.0000120
  C       -1.7653290     1.3514860    -0.0000140
  C        3.0067930     0.3740820     0.0000060
  H        1.6431710    -1.0620260     0.8923500
  H        1.6431890    -1.0620130    -0.8923850
  H       -2.8222650     1.0809220     0.0000090
  H       -1.5154150     1.9136800     0.8990170
  H       -1.5154440     1.9136410    -0.8990780
  H        3.8691330    -0.2986670     0.0000080
  H        3.0571710     1.0063710    -0.8885170
  H        3.0571560     1.0063550     0.8885430
units angstrom
no_reorient  #important for SAPT in psi4, default
symmetry c1  #important for SAPT in psi4, default
}

set PROPERTIES_ORIGIN ["COM"]
properties('MP2/aug-cc-pvtz', properties = ['dipole'])
--------------------------------------------------------------------------

    Molecular point group: c1
  Charge       = 0
  Multiplicity = 1
  Basis Set: AUG-CC-PVTZ
    Blend: AUG-CC-PVTZ
  Basis Set: (AUG-CC-PVTZ AUX)
    Blend: AUG-CC-PVTZ-JKFIT

    Orbital Energies [Eh]
    ---------------------

    Doubly Occupied:

       1A    -92.219568     2A    -20.621311     3A    -20.563356
       4A    -20.563333     5A    -11.306624     6A    -11.276164
       7A    -11.236669     8A     -9.183434     9A     -6.869013
      10A     -6.867610    11A     -6.867539    12A     -1.496786
      13A     -1.387688    14A     -1.359434    15A     -1.061796
      16A     -1.016006    17A     -0.878408    18A     -0.832125
      19A     -0.727284    20A     -0.699525    21A     -0.689265
      22A     -0.655505    23A     -0.619604    24A     -0.604061
      25A     -0.600658    26A     -0.567028    27A     -0.561361
      28A     -0.546786    29A     -0.508972    30A     -0.506672
      31A     -0.501703    32A     -0.473773    33A     -0.467254

  @DF-RHF Final Energy:  -740.48295341299263

   => Energetics <=

    Nuclear Repulsion Energy =            440.0979854267623637
    One-Electron Energy =               -1892.4892469994056228
    Two-Electron Energy =                 711.9083081596506872
    Total Energy =                       -740.4829534129926287
  Basis Set: (AUG-CC-PVTZ AUX)
    Blend: AUG-CC-PVTZ-RI
    Molecular point group: c1

    Geometry (in Angstrom), charge = 0, multiplicity = 1:

       Center              X                  Y                   Z               Mass
    ------------   -----------------  -----------------  -----------------  -----------------
         S           -0.769888514817    -0.165907154358     0.000002825824    31.972071174400
         O            0.688244685183     0.578917645642    -0.000016574176    15.994914619570
         O           -0.996373314817    -0.816629354358     1.266204425824    15.994914619570
         O           -0.996388314817    -0.816669354358    -1.266173574176    15.994914619570
         C            1.785116685183    -0.387216354358    -0.000012574176    12.000000000000
         C           -1.712717314817     1.400622645642    -0.000014574176    12.000000000000
         C            3.059404685183     0.423218645642     0.000005425824    12.000000000000
         H            1.695782685183    -1.012889354358     0.892349425824     1.007825032230
         H            1.695800685183    -1.012876354358    -0.892385574176     1.007825032230
         H           -2.769653314817     1.130058645642     0.000008425824     1.007825032230
         H           -1.462803314817     1.962816645642     0.899016425824     1.007825032230
         H           -1.462832314817     1.962777645642    -0.899078574176     1.007825032230
         H            3.921744685183    -0.249530354358     0.000007425824     1.007825032230
         H            3.109782685183     1.055507645642    -0.888517574176     1.007825032230
         H            3.109767685183     1.055491645642     0.888542425824     1.007825032230

  Basis Set: AUG-CC-PVTZ
    Blend: AUG-CC-PVTZ
  Basis Set: (AUG-CC-PVTZ AUX)
    Blend: AUG-CC-PVTZ-JKFIT
	 Reference Energy          =    -740.4829534129926287 [Eh]
	 Singles Energy            =      -0.0000000000000000 [Eh]
	 Same-Spin Energy          =      -0.3937517729591515 [Eh]
	 Opposite-Spin Energy      =      -1.2132222129998134 [Eh]
	 Correlation Energy        =      -1.6069739859589649 [Eh]
	 Total Energy              =    -742.0899273989515450 [Eh]

	 ================> DF-SCS-MP2 Energies <==================
	-----------------------------------------------------------
	 SCS Same-Spin Scale       =       0.3333333333333333 [-]
	 SCS Opposite-Spin Scale   =       1.2000000000000000 [-]
	 SCS Same-Spin Energy      =      -0.1312505909863838 [Eh]
	 SCS Opposite-Spin Energy  =      -1.4558666555997759 [Eh]
	 SCS Correlation Energy    =      -1.5871172465861596 [Eh]
	 SCS Total Energy          =    -742.0700706595787324 [Eh]
	-----------------------------------------------------------

  Dipole Moment: [D]
     X:     1.6171      Y:     2.4157      Z:    -0.0001     Total:     2.9070

*** Psi4 exiting successfully. Buy a developer a beer!
