                               Psi4 1.3.2 release

  ==> Input File <==

--------------------------------------------------------------------------
#psi4
#
memory 32 gb

molecule  {
0 1
  S       -0.8476060    -0.1637020     0.0000030
  O        0.6039589     0.4884342     0.0877121
  O       -1.0489850    -0.8657660     1.2662050
  O       -1.0490000    -0.8658060    -1.2661730
  C        1.7325050    -0.4363530    -0.0000120
  C       -1.7653290     1.3514860    -0.0000140
  C        3.0067930     0.3740820     0.0000060
  H        1.6431710    -1.0620260     0.8923500
  H        1.6431890    -1.0620130    -0.8923850
  H       -2.8222650     1.0809220     0.0000090
  H       -1.5154150     1.9136800     0.8990170
  H       -1.5154440     1.9136410    -0.8990780
  H        3.8691330    -0.2986670     0.0000080
  H        3.0571710     1.0063710    -0.8885170
  H        3.0571560     1.0063550     0.8885430
units angstrom
no_reorient  #important for SAPT in psi4, default
symmetry c1  #important for SAPT in psi4, default
}

set PROPERTIES_ORIGIN ["COM"]
properties('MP2/aug-cc-pvtz', properties = ['dipole'])
--------------------------------------------------------------------------

    Molecular point group: c1
  Charge       = 0
  Multiplicity = 1
  Basis Set: AUG-CC-PVTZ
    Blend: AUG-CC-PVTZ
  Basis Set: (AUG-CC-PVTZ AUX)
    Blend: AUG-CC-PVTZ-JKFIT

    Orbital Energies [Eh]
    ---------------------

    Doubly Occupied:

       1A    -92.218982     2A    -20.619600     3A    -20.558382
       4A    -20.548991     5A    -11.308936     6A    -11.282195
       7A    -11.238844     8A     -9.182809     9A     -6.868521
      10A     -6.867105    11A     -6.866723    12A     -1.495670
      13A     -1.383266    14A     -1.339303    15A     -1.074337
      16A     -1.029795    17A     -0.887047    18A     -0.827159
      19A     -0.729174    20A     -0.701954    21A     -0.689895
      22A     -0.654022    23A     -0.622271    24A     -0.606073
      25A     -0.601404    26A     -0.567437    27A     -0.564685
      28A     -0.543665    29A     -0.506094    30A     -0.501822
      31A     -0.490092    32A     -0.475276    33A     -0.462920

  @DF-RHF Final Energy:  -740.48693372067930

   => Energetics <=

    Nuclear Repulsion Energy =            441.0376888926317633
    One-Electron Energy =               -1894.4203537551486534
    Two-Electron Energy =                 712.8957311418374729
    Total Energy =                       -740.4869337206793034
  Basis Set: (AUG-CC-PVTZ AUX)
    Blend: AUG-CC-PVTZ-RI
    Molecular point group: c1

    Geometry (in Angstrom), charge = 0, multiplicity = 1:

       Center              X                  Y                   Z               Mass
    ------------   -----------------  -----------------  -----------------  -----------------
         S           -0.784437024682    -0.122468674542    -0.011311856517    31.972071174400
         O            0.667127875318     0.529667525458     0.076397243483    15.994914619570
         O           -0.985816024682    -0.824532674542     1.254890143483    15.994914619570
         O           -0.985831024682    -0.824572674542    -1.277487856517    15.994914619570
         C            1.795673975318    -0.395119674542    -0.011326856517    12.000000000000
         C           -1.702160024682     1.392719325458    -0.011328856517    12.000000000000
         C            3.069961975318     0.415315325458    -0.011308856517    12.000000000000
         H            1.706339975318    -1.020792674542     0.881035143483     1.007825032230
         H            1.706357975318    -1.020779674542    -0.903699856517     1.007825032230
         H           -2.759096024682     1.122155325458    -0.011305856517     1.007825032230
         H           -1.452246024682     1.954913325458     0.887702143483     1.007825032230
         H           -1.452275024682     1.954874325458    -0.910392856517     1.007825032230
         H            3.932301975318    -0.257433674542    -0.011306856517     1.007825032230
         H            3.120339975318     1.047604325458    -0.899831856517     1.007825032230
         H            3.120324975318     1.047588325458     0.877228143483     1.007825032230

  Basis Set: AUG-CC-PVTZ
    Blend: AUG-CC-PVTZ
  Basis Set: (AUG-CC-PVTZ AUX)
    Blend: AUG-CC-PVTZ-JKFIT
	 Reference Energy          =    -740.4869337206793034 [Eh]
	 Singles Energy            =      -0.0000000000000000 [Eh]
	 Same-Spin Energy          =      -0.3934490708936128 [Eh]
	 Opposite-Spin Energy      =      -1.2113237666444938 [Eh]
	 Correlation Energy        =      -1.6047728375381065 [Eh]
	 Total Energy              =    -742.0917065582174246 [Eh]

	 ================> DF-SCS-MP2 Energies <==================
	-----------------------------------------------------------
	 SCS Same-Spin Scale       =       0.3333333333333333 [-]
	 SCS Opposite-Spin Scale   =       1.2000000000000000 [-]
	 SCS Same-Spin Energy      =      -0.1311496902978709 [Eh]
	 SCS Opposite-Spin Energy  =      -1.4535885199733924 [Eh]
	 SCS Correlation Energy    =      -1.5847382102712633 [Eh]
	 SCS Total Energy          =    -742.0716719309505152 [Eh]
	-----------------------------------------------------------

  Dipole Moment: [D]
     X:     1.7064      Y:     2.9753      Z:    -0.1894     Total:     3.4351

*** Psi4 exiting successfully. Buy a developer a beer!
