                               Psi4 1.3.2 release

  ==> Input File <==

--------------------------------------------------------------------------
#psi4
#
memory 32 gb

molecule  {
0 1
  S       -0.8476060    -0.1637020     0.0000030
  O        0.7056990     0.6039415    -0.0000169
  O       -1.0489850    -0.8657660     1.2662050
  O       -1.0490000    -0.8658060    -1.2661730
  C        1.7325050    -0.4363530    -0.0000120
  C       -1.7653290     1.3514860    -0.0000140
  C        3.0067930     0.3740820     0.0000060
  H        1.6431710    -1.0620260     0.8923500
  H        1.6431890    -1.0620130    -0.8923850
  H       -2.8222650     1.0809220     0.0000090
  H       -1.5154150     1.9136800     0.8990170
  H       -1.5154440     1.9136410    -0.8990780
  H        3.8691330    -0.2986670     0.0000080
  H        3.0571710     1.0063710    -0.8885170
  H        3.0571560     1.0063550     0.8885430
units angstrom
no_reorient  #important for SAPT in psi4, default
symmetry c1  #important for SAPT in psi4, default
}

set PROPERTIES_ORIGIN ["COM"]
properties('MP2/aug-cc-pvtz', properties = ['dipole'])
--------------------------------------------------------------------------

    Molecular point group: c1
  Charge       = 0
  Multiplicity = 1
  Basis Set: AUG-CC-PVTZ
    Blend: AUG-CC-PVTZ
  Basis Set: (AUG-CC-PVTZ AUX)
    Blend: AUG-CC-PVTZ-JKFIT

    Orbital Energies [Eh]
    ---------------------

    Doubly Occupied:

       1A    -92.225466     2A    -20.618880     3A    -20.567931
       4A    -20.567907     5A    -11.298914     6A    -11.286824
       7A    -11.229903     8A     -9.189371     9A     -6.874721
      10A     -6.873296    11A     -6.873170    12A     -1.476485
      13A     -1.371105    14A     -1.349574    15A     -1.067693
      16A     -1.023295    17A     -0.865832    18A     -0.835286
      19A     -0.722665    20A     -0.689663    21A     -0.684803
      22A     -0.657566    23A     -0.620284    24A     -0.609536
      25A     -0.606085    26A     -0.556160    27A     -0.553704
      28A     -0.542613    29A     -0.505046    30A     -0.501893
      31A     -0.496728    32A     -0.472748    33A     -0.471199

  @DF-RHF Final Energy:  -740.46979755719826

   => Energetics <=

    Nuclear Repulsion Energy =            436.5024442326968028
    One-Electron Energy =               -1885.3717846024953815
    Two-Electron Energy =                 708.3995428126002025
    Total Energy =                       -740.4697975571982624
  Basis Set: (AUG-CC-PVTZ AUX)
    Blend: AUG-CC-PVTZ-RI
    Molecular point group: c1

    Geometry (in Angstrom), charge = 0, multiplicity = 1:

       Center              X                  Y                   Z               Mass
    ------------   -----------------  -----------------  -----------------  -----------------
         S           -0.797558552541    -0.137365772687     0.000002645018    31.972071174400
         O            0.755746447459     0.630277727313    -0.000017254982    15.994914619570
         O           -0.998937552541    -0.839429772687     1.266204645018    15.994914619570
         O           -0.998952552541    -0.839469772687    -1.266173354982    15.994914619570
         C            1.782552447459    -0.410016772687    -0.000012354982    12.000000000000
         C           -1.715281552541     1.377822227313    -0.000014354982    12.000000000000
         C            3.056840447459     0.400418227313     0.000005645018    12.000000000000
         H            1.693218447459    -1.035689772687     0.892349645018     1.007825032230
         H            1.693236447459    -1.035676772687    -0.892385354982     1.007825032230
         H           -2.772217552541     1.107258227313     0.000008645018     1.007825032230
         H           -1.465367552541     1.940016227313     0.899016645018     1.007825032230
         H           -1.465396552541     1.939977227313    -0.899078354982     1.007825032230
         H            3.919180447459    -0.272330772687     0.000007645018     1.007825032230
         H            3.107218447459     1.032707227313    -0.888517354982     1.007825032230
         H            3.107203447459     1.032691227313     0.888542645018     1.007825032230

  Basis Set: AUG-CC-PVTZ
    Blend: AUG-CC-PVTZ
  Basis Set: (AUG-CC-PVTZ AUX)
    Blend: AUG-CC-PVTZ-JKFIT
	 Reference Energy          =    -740.4697975571982624 [Eh]
	 Singles Energy            =      -0.0000000000000000 [Eh]
	 Same-Spin Energy          =      -0.3965328730314276 [Eh]
	 Opposite-Spin Energy      =      -1.2196976593582667 [Eh]
	 Correlation Energy        =      -1.6162305323896944 [Eh]
	 Total Energy              =    -742.0860280895880123 [Eh]

	 ================> DF-SCS-MP2 Energies <==================
	-----------------------------------------------------------
	 SCS Same-Spin Scale       =       0.3333333333333333 [-]
	 SCS Opposite-Spin Scale   =       1.2000000000000000 [-]
	 SCS Same-Spin Energy      =      -0.1321776243438092 [Eh]
	 SCS Opposite-Spin Energy  =      -1.4636371912299200 [Eh]
	 SCS Correlation Energy    =      -1.5958148155737293 [Eh]
	 SCS Total Energy          =    -742.0656123727719660 [Eh]
	-----------------------------------------------------------

  Dipole Moment: [D]
     X:     0.8285      Y:     2.6575      Z:    -0.0001     Total:     2.7836

*** Psi4 exiting successfully. Buy a developer a beer!
