                               Psi4 1.3.2 release

  ==> Input File <==

--------------------------------------------------------------------------
#psi4
#
memory 32 gb

molecule  {
0 1
  S       -0.8476060    -0.1637020     0.0000030
  O        0.5406533     0.4098341    -0.0000147
  O       -1.0489850    -0.8657660     1.2662050
  O       -1.0490000    -0.8658060    -1.2661730
  C        1.7325050    -0.4363530    -0.0000120
  C       -1.7653290     1.3514860    -0.0000140
  C        3.0067930     0.3740820     0.0000060
  H        1.6431710    -1.0620260     0.8923500
  H        1.6431890    -1.0620130    -0.8923850
  H       -2.8222650     1.0809220     0.0000090
  H       -1.5154150     1.9136800     0.8990170
  H       -1.5154440     1.9136410    -0.8990780
  H        3.8691330    -0.2986670     0.0000080
  H        3.0571710     1.0063710    -0.8885170
  H        3.0571560     1.0063550     0.8885430
units angstrom
no_reorient  #important for SAPT in psi4, default
symmetry c1  #important for SAPT in psi4, default
}

set PROPERTIES_ORIGIN ["COM"]
properties('MP2/aug-cc-pvtz', properties = ['dipole'])
--------------------------------------------------------------------------

    Molecular point group: c1
  Charge       = 0
  Multiplicity = 1
  Basis Set: AUG-CC-PVTZ
    Blend: AUG-CC-PVTZ
  Basis Set: (AUG-CC-PVTZ AUX)
    Blend: AUG-CC-PVTZ-JKFIT

    Orbital Energies [Eh]
    ---------------------

    Doubly Occupied:

       1A    -92.211840     2A    -20.619933     3A    -20.542549
       4A    -20.542526     5A    -11.318012     6A    -11.278301
       7A    -11.245844     8A     -9.176310     9A     -6.862510
      10A     -6.860681    11A     -6.860185    12A     -1.521827
      13A     -1.384112    14A     -1.332025    15A     -1.082581
      16A     -1.032102    17A     -0.904837    18A     -0.821888
      19A     -0.732697    20A     -0.714749    21A     -0.697440
      22A     -0.652378    23A     -0.620896    24A     -0.605543
      25A     -0.598502    26A     -0.575346    27A     -0.571501
      28A     -0.543044    29A     -0.507251    30A     -0.504533
      31A     -0.482829    32A     -0.471716    33A     -0.455157

  @DF-RHF Final Energy:  -740.48635999723763

   => Energetics <=

    Nuclear Repulsion Energy =            444.4465400625055622
    One-Electron Energy =               -1901.2025112030621585
    Two-Electron Energy =                 716.2696111433189117
    Total Energy =                       -740.4863599972376278
  Basis Set: (AUG-CC-PVTZ AUX)
    Blend: AUG-CC-PVTZ-RI
    Molecular point group: c1

    Geometry (in Angstrom), charge = 0, multiplicity = 1:

       Center              X                  Y                   Z               Mass
    ------------   -----------------  -----------------  -----------------  -----------------
         S           -0.776272434770    -0.112331536856     0.000002361281    31.972071174400
         O            0.611986865230     0.461204563144    -0.000015338719    15.994914619570
         O           -0.977651434770    -0.814395536856     1.266204361281    15.994914619570
         O           -0.977666434770    -0.814435536856    -1.266173638719    15.994914619570
         C            1.803838565230    -0.384982536856    -0.000012638719    12.000000000000
         C           -1.693995434770     1.402856463144    -0.000014638719    12.000000000000
         C            3.078126565230     0.425452463144     0.000005361281    12.000000000000
         H            1.714504565230    -1.010655536856     0.892349361281     1.007825032230
         H            1.714522565230    -1.010642536856    -0.892385638719     1.007825032230
         H           -2.750931434770     1.132292463144     0.000008361281     1.007825032230
         H           -1.444081434770     1.965050463144     0.899016361281     1.007825032230
         H           -1.444110434770     1.965011463144    -0.899078638719     1.007825032230
         H            3.940466565230    -0.247296536856     0.000007361281     1.007825032230
         H            3.128504565230     1.057741463144    -0.888517638719     1.007825032230
         H            3.128489565230     1.057725463144     0.888542361281     1.007825032230

  Basis Set: AUG-CC-PVTZ
    Blend: AUG-CC-PVTZ
  Basis Set: (AUG-CC-PVTZ AUX)
    Blend: AUG-CC-PVTZ-JKFIT
	 Reference Energy          =    -740.4863599972376278 [Eh]
	 Singles Energy            =      -0.0000000000000000 [Eh]
	 Same-Spin Energy          =      -0.3916212001136206 [Eh]
	 Opposite-Spin Energy      =      -1.2062692925735539 [Eh]
	 Correlation Energy        =      -1.5978904926871744 [Eh]
	 Total Energy              =    -742.0842504899247842 [Eh]

	 ================> DF-SCS-MP2 Energies <==================
	-----------------------------------------------------------
	 SCS Same-Spin Scale       =       0.3333333333333333 [-]
	 SCS Opposite-Spin Scale   =       1.2000000000000000 [-]
	 SCS Same-Spin Energy      =      -0.1305404000378735 [Eh]
	 SCS Opposite-Spin Energy  =      -1.4475231510882647 [Eh]
	 SCS Correlation Energy    =      -1.5780635511261383 [Eh]
	 SCS Total Energy          =    -742.0644235483637203 [Eh]
	-----------------------------------------------------------

  Dipole Moment: [D]
     X:     2.3781      Y:     3.1990      Z:    -0.0001     Total:     3.9861

*** Psi4 exiting successfully. Buy a developer a beer!
