                               Psi4 1.3.2 release

  ==> Input File <==

--------------------------------------------------------------------------
#psi4
#
memory 32 gb

molecule  {
0 1
  S       -0.8476060    -0.1637020     0.0000030
  O        0.6475100     0.5037893    -0.0000157
  O       -1.0489850    -0.8657660     1.2662050
  O       -1.0490000    -0.8658060    -1.2661730
  C        1.7325050    -0.4363530    -0.0000120
  C       -1.7653290     1.3514860    -0.0000140
  C        3.0067930     0.3740820     0.0000060
  H        1.6431710    -1.0620260     0.8923500
  H        1.6431890    -1.0620130    -0.8923850
  H       -2.8222650     1.0809220     0.0000090
  H       -1.5154150     1.9136800     0.8990170
  H       -1.5154440     1.9136410    -0.8990780
  H        3.8691330    -0.2986670     0.0000080
  H        3.0571710     1.0063710    -0.8885170
  H        3.0571560     1.0063550     0.8885430
units angstrom
no_reorient  #important for SAPT in psi4, default
symmetry c1  #important for SAPT in psi4, default
}

set PROPERTIES_ORIGIN ["COM"]
properties('MP2/aug-cc-pvtz', properties = ['dipole'])
--------------------------------------------------------------------------

    Molecular point group: c1
  Charge       = 0
  Multiplicity = 1
  Basis Set: AUG-CC-PVTZ
    Blend: AUG-CC-PVTZ
  Basis Set: (AUG-CC-PVTZ AUX)
    Blend: AUG-CC-PVTZ-JKFIT

    Orbital Energies [Eh]
    ---------------------

    Doubly Occupied:

       1A    -92.222815     2A    -20.618771     3A    -20.558778
       4A    -20.558755     5A    -11.302098     6A    -11.285924
       7A    -11.234546     8A     -9.186493     9A     -6.872047
      10A     -6.870711    11A     -6.870374    12A     -1.489548
      13A     -1.384957    14A     -1.343450    15A     -1.073031
      16A     -1.027989    17A     -0.882576    18A     -0.828635
      19A     -0.730082    20A     -0.699975    21A     -0.688410
      22A     -0.656032    23A     -0.623626    24A     -0.608202
      25A     -0.604274    26A     -0.563711    27A     -0.562788
      28A     -0.542781    29A     -0.502240    30A     -0.500044
      31A     -0.492803    32A     -0.477098    33A     -0.466030

  @DF-RHF Final Energy:  -740.48564114167095

   => Energetics <=

    Nuclear Repulsion Energy =            439.9293811822764724
    One-Electron Energy =               -1892.1708528962183209
    Two-Electron Energy =                 711.7558305722708383
    Total Energy =                       -740.4856411416709534
  Basis Set: (AUG-CC-PVTZ AUX)
    Blend: AUG-CC-PVTZ-RI
    Molecular point group: c1

    Geometry (in Angstrom), charge = 0, multiplicity = 1:

       Center              X                  Y                   Z               Mass
    ------------   -----------------  -----------------  -----------------  -----------------
         S           -0.790053855921    -0.124449037963     0.000002490252    31.972071174400
         O            0.705062144079     0.543042262037    -0.000016209748    15.994914619570
         O           -0.991432855921    -0.826513037963     1.266204490252    15.994914619570
         O           -0.991447855921    -0.826553037963    -1.266173509748    15.994914619570
         C            1.790057144079    -0.397100037963    -0.000012509748    12.000000000000
         C           -1.707776855921     1.390738962037    -0.000014509748    12.000000000000
         C            3.064345144079     0.413334962037     0.000005490252    12.000000000000
         H            1.700723144079    -1.022773037963     0.892349490252     1.007825032230
         H            1.700741144079    -1.022760037963    -0.892385509748     1.007825032230
         H           -2.764712855921     1.120174962037     0.000008490252     1.007825032230
         H           -1.457862855921     1.952932962037     0.899016490252     1.007825032230
         H           -1.457891855921     1.952893962037    -0.899078509748     1.007825032230
         H            3.926685144079    -0.259414037963     0.000007490252     1.007825032230
         H            3.114723144079     1.045623962037    -0.888517509748     1.007825032230
         H            3.114708144079     1.045607962037     0.888542490252     1.007825032230

  Basis Set: AUG-CC-PVTZ
    Blend: AUG-CC-PVTZ
  Basis Set: (AUG-CC-PVTZ AUX)
    Blend: AUG-CC-PVTZ-JKFIT
	 Reference Energy          =    -740.4856411416709534 [Eh]
	 Singles Energy            =      -0.0000000000000000 [Eh]
	 Same-Spin Energy          =      -0.3941491739255745 [Eh]
	 Opposite-Spin Energy      =      -1.2130485975320942 [Eh]
	 Correlation Energy        =      -1.6071977714576686 [Eh]
	 Total Energy              =    -742.0928389131286167 [Eh]

	 ================> DF-SCS-MP2 Energies <==================
	-----------------------------------------------------------
	 SCS Same-Spin Scale       =       0.3333333333333333 [-]
	 SCS Opposite-Spin Scale   =       1.2000000000000000 [-]
	 SCS Same-Spin Energy      =      -0.1313830579751915 [Eh]
	 SCS Opposite-Spin Energy  =      -1.4556583170385129 [Eh]
	 SCS Correlation Energy    =      -1.5870413750137045 [Eh]
	 SCS Total Energy          =    -742.0726825166846083 [Eh]
	-----------------------------------------------------------

  Dipole Moment: [D]
     X:     1.3018      Y:     2.9455      Z:    -0.0001     Total:     3.2203

*** Psi4 exiting successfully. Buy a developer a beer!
