                               Psi4 1.3.2 release

  ==> Input File <==

--------------------------------------------------------------------------
#psi4
#
memory 32 gb

molecule  {
0 1
  S       -0.8476060    -0.1637020     0.0000030
  O        0.6191177     0.5096839     0.0438748
  O       -1.0489850    -0.8657660     1.2662050
  O       -1.0490000    -0.8658060    -1.2661730
  C        1.7325050    -0.4363530    -0.0000120
  C       -1.7653290     1.3514860    -0.0000140
  C        3.0067930     0.3740820     0.0000060
  H        1.6431710    -1.0620260     0.8923500
  H        1.6431890    -1.0620130    -0.8923850
  H       -2.8222650     1.0809220     0.0000090
  H       -1.5154150     1.9136800     0.8990170
  H       -1.5154440     1.9136410    -0.8990780
  H        3.8691330    -0.2986670     0.0000080
  H        3.0571710     1.0063710    -0.8885170
  H        3.0571560     1.0063550     0.8885430
units angstrom
no_reorient  #important for SAPT in psi4, default
symmetry c1  #important for SAPT in psi4, default
}

set PROPERTIES_ORIGIN ["COM"]
properties('MP2/aug-cc-pvtz', properties = ['dipole'])
--------------------------------------------------------------------------

    Molecular point group: c1
  Charge       = 0
  Multiplicity = 1
  Basis Set: AUG-CC-PVTZ
    Blend: AUG-CC-PVTZ
  Basis Set: (AUG-CC-PVTZ AUX)
    Blend: AUG-CC-PVTZ-JKFIT

    Orbital Energies [Eh]
    ---------------------

    Doubly Occupied:

       1A    -92.220269     2A    -20.619738     3A    -20.558412
       4A    -20.553835     5A    -11.307236     6A    -11.282850
       7A    -11.237382     8A     -9.184034     9A     -6.869672
      10A     -6.868284    11A     -6.867949    12A     -1.491328
      13A     -1.382068    14A     -1.341275    15A     -1.073024
      16A     -1.028931    17A     -0.883328    18A     -0.828478
      19A     -0.728169    20A     -0.699832    21A     -0.688638
      22A     -0.654652    23A     -0.622212    24A     -0.606456
      25A     -0.602112    26A     -0.565572    27A     -0.562791
      28A     -0.543814    29A     -0.504875    30A     -0.501798
      31A     -0.491802    32A     -0.476110    33A     -0.465226

  @DF-RHF Final Energy:  -740.48667670924715

   => Energetics <=

    Nuclear Repulsion Energy =            440.3081796359091982
    One-Electron Energy =               -1892.9654089144232785
    Two-Electron Energy =                 712.1705525692668743
    Total Energy =                       -740.4866767092471491
  Basis Set: (AUG-CC-PVTZ AUX)
    Blend: AUG-CC-PVTZ-RI
    Molecular point group: c1

    Geometry (in Angstrom), charge = 0, multiplicity = 1:

       Center              X                  Y                   Z               Mass
    ------------   -----------------  -----------------  -----------------  -----------------
         S           -0.786392071084    -0.125209270733    -0.005658113762    31.972071174400
         O            0.680331628916     0.548176629267     0.038213686238    15.994914619570
         O           -0.987771071084    -0.827273270733     1.260543886238    15.994914619570
         O           -0.987786071084    -0.827313270733    -1.271834113762    15.994914619570
         C            1.793718928916    -0.397860270733    -0.005673113762    12.000000000000
         C           -1.704115071084     1.389978729267    -0.005675113762    12.000000000000
         C            3.068006928916     0.412574729267    -0.005655113762    12.000000000000
         H            1.704384928916    -1.023533270733     0.886688886238     1.007825032230
         H            1.704402928916    -1.023520270733    -0.898046113762     1.007825032230
         H           -2.761051071084     1.119414729267    -0.005652113762     1.007825032230
         H           -1.454201071084     1.952172729267     0.893355886238     1.007825032230
         H           -1.454230071084     1.952133729267    -0.904739113762     1.007825032230
         H            3.930346928916    -0.260174270733    -0.005653113762     1.007825032230
         H            3.118384928916     1.044863729267    -0.894178113762     1.007825032230
         H            3.118369928916     1.044847729267     0.882881886238     1.007825032230

  Basis Set: AUG-CC-PVTZ
    Blend: AUG-CC-PVTZ
  Basis Set: (AUG-CC-PVTZ AUX)
    Blend: AUG-CC-PVTZ-JKFIT
	 Reference Energy          =    -740.4866767092471491 [Eh]
	 Singles Energy            =      -0.0000000000000000 [Eh]
	 Same-Spin Energy          =      -0.3938451425208850 [Eh]
	 Opposite-Spin Energy      =      -1.2124452775683876 [Eh]
	 Correlation Energy        =      -1.6062904200892727 [Eh]
	 Total Energy              =    -742.0929671293364436 [Eh]

	 ================> DF-SCS-MP2 Energies <==================
	-----------------------------------------------------------
	 SCS Same-Spin Scale       =       0.3333333333333333 [-]
	 SCS Opposite-Spin Scale   =       1.2000000000000000 [-]
	 SCS Same-Spin Energy      =      -0.1312817141736283 [Eh]
	 SCS Opposite-Spin Energy  =      -1.4549343330820650 [Eh]
	 SCS Correlation Energy    =      -1.5862160472556934 [Eh]
	 SCS Total Energy          =    -742.0728927565028243 [Eh]
	-----------------------------------------------------------

  Dipole Moment: [D]
     X:     1.5669      Y:     2.9185      Z:    -0.0944     Total:     3.3139

*** Psi4 exiting successfully. Buy a developer a beer!
