                               Psi4 1.3.2 release

  ==> Input File <==

--------------------------------------------------------------------------
#psi4
#
memory 32 gb

molecule  {
0 1
  S       -0.8476060    -0.1637020     0.0000030
  O        0.6356330     0.5297810    -0.0000160
  O       -1.0489850    -0.8657660     1.2662050
  O       -1.0490000    -0.8658060    -1.2661730
  C        1.5824225    -0.3041591    -0.0000125
  C       -1.7653290     1.3514860    -0.0000140
  C        3.0067930     0.3740820     0.0000060
  H        1.6431710    -1.0620260     0.8923500
  H        1.6431890    -1.0620130    -0.8923850
  H       -2.8222650     1.0809220     0.0000090
  H       -1.5154150     1.9136800     0.8990170
  H       -1.5154440     1.9136410    -0.8990780
  H        3.8691330    -0.2986670     0.0000080
  H        3.0571710     1.0063710    -0.8885170
  H        3.0571560     1.0063550     0.8885430
units angstrom
no_reorient  #important for SAPT in psi4, default
symmetry c1  #important for SAPT in psi4, default
}

set PROPERTIES_ORIGIN ["COM"]
properties('MP2/aug-cc-pvtz', properties = ['dipole'])
--------------------------------------------------------------------------

    Molecular point group: c1
  Charge       = 0
  Multiplicity = 1
  Basis Set: AUG-CC-PVTZ
    Blend: AUG-CC-PVTZ
  Basis Set: (AUG-CC-PVTZ AUX)
    Blend: AUG-CC-PVTZ-JKFIT

    Orbital Energies [Eh]
    ---------------------

    Doubly Occupied:

       1A    -92.234490     2A    -20.639008     3A    -20.569861
       4A    -20.569837     5A    -11.304196     6A    -11.293253
       7A    -11.230097     8A     -9.198602     9A     -6.884349
      10A     -6.882558    11A     -6.882247    12A     -1.533381
      13A     -1.430179    14A     -1.353233    15A     -1.081978
      16A     -1.012134    17A     -0.903361    18A     -0.827169
      19A     -0.753326    20A     -0.721297    21A     -0.701856
      22A     -0.658146    23A     -0.646907    24A     -0.620760
      25A     -0.613963    26A     -0.571487    27A     -0.564156
      28A     -0.537153    29A     -0.505584    30A     -0.492616
      31A     -0.488793    32A     -0.464330    33A     -0.440339

  @DF-RHF Final Energy:  -740.44576365942930

   => Energetics <=

    Nuclear Repulsion Energy =            443.5100611551214342
    One-Electron Energy =               -1898.6903587034364591
    Two-Electron Energy =                 714.7345338888858350
    Total Energy =                       -740.4457636594293035
  Basis Set: (AUG-CC-PVTZ AUX)
    Blend: AUG-CC-PVTZ-RI
    Molecular point group: c1

    Geometry (in Angstrom), charge = 0, multiplicity = 1:

       Center              X                  Y                   Z               Mass
    ------------   -----------------  -----------------  -----------------  -----------------
         S           -0.774000227574    -0.140592170210     0.000002577323    31.972071174400
         O            0.709238772426     0.552890829790    -0.000016422677    15.994914619570
         O           -0.975379227574    -0.842656170210     1.266204577323    15.994914619570
         O           -0.975394227574    -0.842696170210    -1.266173422677    15.994914619570
         C            1.656028272426    -0.281049270210    -0.000012922677    12.000000000000
         C           -1.691723227574     1.374595829790    -0.000014422677    12.000000000000
         C            3.080398772426     0.397191829790     0.000005577323    12.000000000000
         H            1.716776772426    -1.038916170210     0.892349577323     1.007825032230
         H            1.716794772426    -1.038903170210    -0.892385422677     1.007825032230
         H           -2.748659227574     1.104031829790     0.000008577323     1.007825032230
         H           -1.441809227574     1.936789829790     0.899016577323     1.007825032230
         H           -1.441838227574     1.936750829790    -0.899078422677     1.007825032230
         H            3.942738772426    -0.275557170210     0.000007577323     1.007825032230
         H            3.130776772426     1.029480829790    -0.888517422677     1.007825032230
         H            3.130761772426     1.029464829790     0.888542577323     1.007825032230

  Basis Set: AUG-CC-PVTZ
    Blend: AUG-CC-PVTZ
  Basis Set: (AUG-CC-PVTZ AUX)
    Blend: AUG-CC-PVTZ-JKFIT
	 Reference Energy          =    -740.4457636594293035 [Eh]
	 Singles Energy            =      -0.0000000000000000 [Eh]
	 Same-Spin Energy          =      -0.3955520798749976 [Eh]
	 Opposite-Spin Energy      =      -1.2142955358131349 [Eh]
	 Correlation Energy        =      -1.6098476156881325 [Eh]
	 Total Energy              =    -742.0556112751174851 [Eh]

	 ================> DF-SCS-MP2 Energies <==================
	-----------------------------------------------------------
	 SCS Same-Spin Scale       =       0.3333333333333333 [-]
	 SCS Opposite-Spin Scale   =       1.2000000000000000 [-]
	 SCS Same-Spin Energy      =      -0.1318506932916659 [Eh]
	 SCS Opposite-Spin Energy  =      -1.4571546429757618 [Eh]
	 SCS Correlation Energy    =      -1.5890053362674277 [Eh]
	 SCS Total Energy          =    -742.0347689956967088 [Eh]
	-----------------------------------------------------------

  Dipole Moment: [D]
     X:     0.4107      Y:     3.2199      Z:    -0.0001     Total:     3.2460

*** Psi4 exiting successfully. Buy a developer a beer!
