                               Psi4 1.3.2 release

  ==> Input File <==

--------------------------------------------------------------------------
#psi4
#
memory 32 gb

molecule  {
0 1
  S       -0.8476060    -0.1637020     0.0000030
  O        0.6803948     0.4246262    -0.0000147
  O       -1.0489850    -0.8657660     1.2662050
  O       -1.0490000    -0.8658060    -1.2661730
  C        1.7325050    -0.4363530    -0.0000120
  C       -1.7653290     1.3514860    -0.0000140
  C        3.0067930     0.3740820     0.0000060
  H        1.6431710    -1.0620260     0.8923500
  H        1.6431890    -1.0620130    -0.8923850
  H       -2.8222650     1.0809220     0.0000090
  H       -1.5154150     1.9136800     0.8990170
  H       -1.5154440     1.9136410    -0.8990780
  H        3.8691330    -0.2986670     0.0000080
  H        3.0571710     1.0063710    -0.8885170
  H        3.0571560     1.0063550     0.8885430
units angstrom
no_reorient  #important for SAPT in psi4, default
symmetry c1  #important for SAPT in psi4, default
}

set PROPERTIES_ORIGIN ["COM"]
properties('MP2/aug-cc-pvtz', properties = ['dipole'])
--------------------------------------------------------------------------

    Molecular point group: c1
  Charge       = 0
  Multiplicity = 1
  Basis Set: AUG-CC-PVTZ
    Blend: AUG-CC-PVTZ
  Basis Set: (AUG-CC-PVTZ AUX)
    Blend: AUG-CC-PVTZ-JKFIT

    Orbital Energies [Eh]
    ---------------------

    Doubly Occupied:

       1A    -92.227115     2A    -20.614920     3A    -20.559395
       4A    -20.559373     5A    -11.292847     6A    -11.292401
       7A    -11.230725     8A     -9.190543     9A     -6.876092
      10A     -6.874810    11A     -6.874358    12A     -1.498169
      13A     -1.399149    14A     -1.344659    15A     -1.077643
      16A     -1.027967    17A     -0.893654    18A     -0.824109
      19A     -0.739084    20A     -0.708729    21A     -0.691123
      22A     -0.659170    23A     -0.628873    24A     -0.611763
      25A     -0.610340    26A     -0.566696    27A     -0.563162
      28A     -0.540111    29A     -0.499379    30A     -0.495896
      31A     -0.489199    32A     -0.477614    33A     -0.460128

  @DF-RHF Final Energy:  -740.48126660009120

   => Energetics <=

    Nuclear Repulsion Energy =            441.1787798526868869
    One-Electron Energy =               -1894.5216996270210075
    Two-Electron Energy =                 712.8616531742429743
    Total Energy =                       -740.4812666000912031
  Basis Set: (AUG-CC-PVTZ AUX)
    Blend: AUG-CC-PVTZ-RI
    Molecular point group: c1

    Geometry (in Angstrom), charge = 0, multiplicity = 1:

       Center              X                  Y                   Z               Mass
    ------------   -----------------  -----------------  -----------------  -----------------
         S           -0.794295043214    -0.114239289573     0.000002361281    31.972071174400
         O            0.733705756786     0.474088910427    -0.000015338719    15.994914619570
         O           -0.995674043214    -0.816303289573     1.266204361281    15.994914619570
         O           -0.995689043214    -0.816343289573    -1.266173638719    15.994914619570
         C            1.785815956786    -0.386890289573    -0.000012638719    12.000000000000
         C           -1.712018043214     1.400948710427    -0.000014638719    12.000000000000
         C            3.060103956786     0.423544710427     0.000005361281    12.000000000000
         H            1.696481956786    -1.012563289573     0.892349361281     1.007825032230
         H            1.696499956786    -1.012550289573    -0.892385638719     1.007825032230
         H           -2.768954043214     1.130384710427     0.000008361281     1.007825032230
         H           -1.462104043214     1.963142710427     0.899016361281     1.007825032230
         H           -1.462133043214     1.963103710427    -0.899078638719     1.007825032230
         H            3.922443956786    -0.249204289573     0.000007361281     1.007825032230
         H            3.110481956786     1.055833710427    -0.888517638719     1.007825032230
         H            3.110466956786     1.055817710427     0.888542361281     1.007825032230

  Basis Set: AUG-CC-PVTZ
    Blend: AUG-CC-PVTZ
  Basis Set: (AUG-CC-PVTZ AUX)
    Blend: AUG-CC-PVTZ-JKFIT
	 Reference Energy          =    -740.4812666000912031 [Eh]
	 Singles Energy            =      -0.0000000000000000 [Eh]
	 Same-Spin Energy          =      -0.3938394776588091 [Eh]
	 Opposite-Spin Energy      =      -1.2113215871566811 [Eh]
	 Correlation Energy        =      -1.6051610648154901 [Eh]
	 Total Energy              =    -742.0864276649066369 [Eh]

	 ================> DF-SCS-MP2 Energies <==================
	-----------------------------------------------------------
	 SCS Same-Spin Scale       =       0.3333333333333333 [-]
	 SCS Opposite-Spin Scale   =       1.2000000000000000 [-]
	 SCS Same-Spin Energy      =      -0.1312798258862697 [Eh]
	 SCS Opposite-Spin Energy  =      -1.4535859045880173 [Eh]
	 SCS Correlation Energy    =      -1.5848657304742870 [Eh]
	 SCS Total Energy          =    -742.0661323305654378 [Eh]
	-----------------------------------------------------------

  Dipole Moment: [D]
     X:     0.9426      Y:     3.2027      Z:    -0.0001     Total:     3.3385

*** Psi4 exiting successfully. Buy a developer a beer!
