                               Psi4 1.4a3.dev225

  ==> Input File <==

--------------------------------------------------------------------------
#psi4
#
memory 32 gb

molecule  {
0 1
  S       -0.8474370    -0.1634740     0.0000030
  O        0.6175343     0.5212217    -0.0000089
  O       -1.0489550    -0.8659360     1.2656300
  O       -1.0489590    -0.8659660    -1.2656070
  C        1.7327780    -0.4363370    -0.0000100
  C       -1.7660460     1.3512030    -0.0000130
  C        3.0069280     0.3742480     0.0000060
  H        1.6435610    -1.0619840     0.8923650
  H        1.6435710    -1.0619680    -0.8923970
  H       -2.8228660     1.0799920    -0.0000030
  H       -1.5165640     1.9135900     0.8989700
  H       -1.5165740     1.9135660    -0.8990130
  H        3.8695390    -0.2981460     0.0000030
  H        3.0572260     1.0067830    -0.8883720
  H        3.0572160     1.0067630     0.8883970
units angstrom
no_reorient  #important for SAPT in psi4, default
symmetry c1  #important for SAPT in psi4, default
}

set PROPERTIES_ORIGIN ["COM"]
properties('MP2/aug-cc-pvtz', properties = ['dipole'])
--------------------------------------------------------------------------

    Molecular point group: c1
  Charge       = 0
  Multiplicity = 1
  Basis Set: AUG-CC-PVTZ
    Blend: AUG-CC-PVTZ
  Basis Set: (AUG-CC-PVTZ AUX)
    Blend: AUG-CC-PVTZ-JKFIT

    Orbital Energies [Eh]
    ---------------------

    Doubly Occupied:

       1A    -92.219953     2A    -20.620060     3A    -20.556321
       4A    -20.556298     5A    -11.308109     6A    -11.282185
       7A    -11.237609     8A     -9.183739     9A     -6.869371
      10A     -6.867976    11A     -6.867666    12A     -1.490179
      13A     -1.380681    14A     -1.341532    15A     -1.072476
      16A     -1.028757    17A     -0.881921    18A     -0.828986
      19A     -0.727123    20A     -0.698867    21A     -0.688226
      22A     -0.654561    23A     -0.621723    24A     -0.606132
      25A     -0.601876    26A     -0.565232    27A     -0.561946
      28A     -0.544233    29A     -0.505139    30A     -0.502604
      31A     -0.492086    32A     -0.475966    33A     -0.465869

  @DF-RHF Final Energy:  -740.48651279981573

   => Energetics <=

    Nuclear Repulsion Energy =            440.1120273891284000
    One-Electron Energy =               -1892.5862724045327923
    Two-Electron Energy =                 711.9877322155887214
    Total Energy =                       -740.4865127998157277
  Basis Set: (AUG-CC-PVTZ AUX)
    Blend: AUG-CC-PVTZ-RI
    Molecular point group: c1

    Geometry (in Angstrom), charge = 0, multiplicity = 1:

       Center              X                  Y                   Z               Mass
    ------------   -----------------  -----------------  -----------------  -----------------
         S           -0.786028788221    -0.126478464069     0.000002459333    31.972071174400
         O            0.678942511779     0.558217235931    -0.000009440667    15.994914619570
         O           -0.987546788221    -0.828940464069     1.265629459333    15.994914619570
         O           -0.987550788221    -0.828970464069    -1.265607540667    15.994914619570
         C            1.794186211779    -0.399341464069    -0.000010540667    12.000000000000
         C           -1.704637788221     1.388198535931    -0.000013540667    12.000000000000
         C            3.068336211779     0.411243535931     0.000005459333    12.000000000000
         H            1.704969211779    -1.024988464069     0.892364459333     1.007825032230
         H            1.704979211779    -1.024972464069    -0.892397540667     1.007825032230
         H           -2.761457788221     1.116987535931    -0.000003540667     1.007825032230
         H           -1.455155788221     1.950585535931     0.898969459333     1.007825032230
         H           -1.455165788221     1.950561535931    -0.899013540667     1.007825032230
         H            3.930947211779    -0.261150464069     0.000002459333     1.007825032230
         H            3.118634211779     1.043778535931    -0.888372540667     1.007825032230
         H            3.118624211779     1.043758535931     0.888396459333     1.007825032230

  Basis Set: AUG-CC-PVTZ
    Blend: AUG-CC-PVTZ
  Basis Set: (AUG-CC-PVTZ AUX)
    Blend: AUG-CC-PVTZ-JKFIT
	 Reference Energy          =    -740.4865127998157277 [Eh]
	 Singles Energy            =      -0.0000000000000000 [Eh]
	 Same-Spin Energy          =      -0.3939286695335830 [Eh]
	 Opposite-Spin Energy      =      -1.2127584060706003 [Eh]
	 Correlation Energy        =      -1.6066870756041833 [Eh]
	 Total Energy              =    -742.0931998754199412 [Eh]

	 ================> DF-SCS-MP2 Energies <==================
	-----------------------------------------------------------
	 SCS Same-Spin Scale       =       0.3333333333333333 [-]
	 SCS Opposite-Spin Scale   =       1.2000000000000000 [-]
	 SCS Same-Spin Energy      =      -0.1313095565111943 [Eh]
	 SCS Opposite-Spin Energy  =      -1.4553100872847202 [Eh]
	 SCS Correlation Energy    =      -1.5866196437959146 [Eh]
	 SCS Total Energy          =    -742.0731324436115983 [Eh]
	-----------------------------------------------------------

  Dipole Moment: [D]
     X:     1.5859      Y:     2.8857      Z:    -0.0000     Total:     3.2928

*** Psi4 exiting successfully. Buy a developer a beer!
