                               Psi4 1.4a3.dev225

  ==> Input File <==

--------------------------------------------------------------------------
#psi4
#
memory 32 gb

molecule  {
0 1
  S       -0.8474370    -0.1634740     0.0000030
  O        0.6356530     0.5296900    -0.0000090
  O       -1.0489550    -0.8659360     1.2656300
  O       -1.0489590    -0.8659660    -1.2656070
  C        1.7703042    -0.4693791    -0.0000100
  C       -1.7660460     1.3512030    -0.0000130
  C        3.0069280     0.3742480     0.0000060
  H        1.6435610    -1.0619840     0.8923650
  H        1.6435710    -1.0619680    -0.8923970
  H       -2.8228660     1.0799920    -0.0000030
  H       -1.5165640     1.9135900     0.8989700
  H       -1.5165740     1.9135660    -0.8990130
  H        3.8695390    -0.2981460     0.0000030
  H        3.0572260     1.0067830    -0.8883720
  H        3.0572160     1.0067630     0.8883970
units angstrom
no_reorient  #important for SAPT in psi4, default
symmetry c1  #important for SAPT in psi4, default
}

set PROPERTIES_ORIGIN ["COM"]
properties('MP2/aug-cc-pvtz', properties = ['dipole'])
--------------------------------------------------------------------------

    Molecular point group: c1
  Charge       = 0
  Multiplicity = 1
  Basis Set: AUG-CC-PVTZ
    Blend: AUG-CC-PVTZ
  Basis Set: (AUG-CC-PVTZ AUX)
    Blend: AUG-CC-PVTZ-JKFIT

    Orbital Energies [Eh]
    ---------------------

    Doubly Occupied:

       1A    -92.218095     2A    -20.613922     3A    -20.555799
       4A    -20.555776     5A    -11.308228     6A    -11.281117
       7A    -11.237979     8A     -9.181783     9A     -6.867308
      10A     -6.866020    11A     -6.865744    12A     -1.480895
      13A     -1.368616    14A     -1.340617    15A     -1.071576
      16A     -1.030664    17A     -0.878023    18A     -0.828855
      19A     -0.720710    20A     -0.695324    21A     -0.684124
      22A     -0.656567    23A     -0.618136    24A     -0.605130
      25A     -0.599606    26A     -0.562235    27A     -0.559942
      28A     -0.545820    29A     -0.508257    30A     -0.504952
      31A     -0.491101    32A     -0.473160    33A     -0.465554

  @DF-RHF Final Energy:  -740.48255316638711

   => Energetics <=

    Nuclear Repulsion Energy =            438.6521496201501122
    One-Electron Energy =               -1889.7861402307978551
    Two-Electron Energy =                 710.6514374442606368
    Total Energy =                       -740.4825531663871061
  Basis Set: (AUG-CC-PVTZ AUX)
    Blend: AUG-CC-PVTZ-RI
    Molecular point group: c1

    Geometry (in Angstrom), charge = 0, multiplicity = 1:

       Center              X                  Y                   Z               Mass
    ------------   -----------------  -----------------  -----------------  -----------------
         S           -0.791996575262    -0.124373507648     0.000002472230    31.972071174400
         O            0.691093424738     0.568790492352    -0.000009527770    15.994914619570
         O           -0.993514575262    -0.826835507648     1.265629472230    15.994914619570
         O           -0.993518575262    -0.826865507648    -1.265607527770    15.994914619570
         C            1.825744624738    -0.430278607648    -0.000010527770    12.000000000000
         C           -1.710605575262     1.390303492352    -0.000013527770    12.000000000000
         C            3.062368424738     0.413348492352     0.000005472230    12.000000000000
         H            1.699001424738    -1.022883507648     0.892364472230     1.007825032230
         H            1.699011424738    -1.022867507648    -0.892397527770     1.007825032230
         H           -2.767425575262     1.119092492352    -0.000003527770     1.007825032230
         H           -1.461123575262     1.952690492352     0.898969472230     1.007825032230
         H           -1.461133575262     1.952666492352    -0.899013527770     1.007825032230
         H            3.924979424738    -0.259045507648     0.000002472230     1.007825032230
         H            3.112666424738     1.045883492352    -0.888372527770     1.007825032230
         H            3.112656424738     1.045863492352     0.888396472230     1.007825032230

  Basis Set: AUG-CC-PVTZ
    Blend: AUG-CC-PVTZ
  Basis Set: (AUG-CC-PVTZ AUX)
    Blend: AUG-CC-PVTZ-JKFIT
	 Reference Energy          =    -740.4825531663871061 [Eh]
	 Singles Energy            =      -0.0000000000000000 [Eh]
	 Same-Spin Energy          =      -0.3943771017905952 [Eh]
	 Opposite-Spin Energy      =      -1.2141743022465330 [Eh]
	 Correlation Energy        =      -1.6085514040371280 [Eh]
	 Total Energy              =    -742.0911045704242497 [Eh]

	 ================> DF-SCS-MP2 Energies <==================
	-----------------------------------------------------------
	 SCS Same-Spin Scale       =       0.3333333333333333 [-]
	 SCS Opposite-Spin Scale   =       1.2000000000000000 [-]
	 SCS Same-Spin Energy      =      -0.1314590339301984 [Eh]
	 SCS Opposite-Spin Energy  =      -1.4570091626958395 [Eh]
	 SCS Correlation Energy    =      -1.5884681966260379 [Eh]
	 SCS Total Energy          =    -742.0710213630131875 [Eh]
	-----------------------------------------------------------

  Dipole Moment: [D]
     X:     1.6605      Y:     2.7913      Z:    -0.0000     Total:     3.2479

*** Psi4 exiting successfully. Buy a developer a beer!
