                               Psi4 1.3.2 release

  ==> Input File <==

--------------------------------------------------------------------------
#psi4
#
memory 32 gb

molecule  {
0 1
  S       -0.8476060    -0.1637020     0.0000030
  O        0.6356330     0.5297810    -0.0000160
  O       -1.0489850    -0.8657660     1.2662050
  O       -1.0490000    -0.8658060    -1.2661730
  C        1.7325050    -0.4363530    -0.0000120
  C       -1.7653290     1.3514860    -0.0000140
  C        3.0067930     0.3740820     0.0000060
  H        1.6431710    -1.0620260     0.8923500
  H        1.6431890    -1.0620130    -0.8923850
  H       -2.8222650     1.0809220     0.0000090
  H       -1.5154150     1.9136800     0.8990170
  H       -1.5154440     1.9136410    -0.8990780
  H        3.8691330    -0.2986670     0.0000080
  H        3.0571710     1.0063710    -0.8885170
  H        3.0571560     1.0063550     0.8885430
units angstrom
no_reorient  #important for SAPT in psi4, default
symmetry c1  #important for SAPT in psi4, default
}

set PROPERTIES_ORIGIN ["COM"]
properties('MP2/aug-cc-pvtz', properties = ['dipole'])
--------------------------------------------------------------------------

    Molecular point group: c1
  Charge       = 0
  Multiplicity = 1
  Basis Set: AUG-CC-PVTZ
    Blend: AUG-CC-PVTZ
  Basis Set: (AUG-CC-PVTZ AUX)
    Blend: AUG-CC-PVTZ-JKFIT

    Orbital Energies [Eh]
    ---------------------

    Doubly Occupied:

       1A    -92.221528     2A    -20.619692     3A    -20.558630
       4A    -20.558607     5A    -11.305428     6A    -11.283632
       7A    -11.235830     8A     -9.185265     9A     -6.870832
      10A     -6.869459    11A     -6.869167    12A     -1.487230
      13A     -1.380485    14A     -1.343100    15A     -1.071677
      16A     -1.027979    17A     -0.879500    18A     -0.829851
      19A     -0.727134    20A     -0.697530    21A     -0.687490
      22A     -0.655255    23A     -0.622041    24A     -0.606963
      25A     -0.602883    26A     -0.563763    27A     -0.560726
      28A     -0.543784    29A     -0.504362    30A     -0.501419
      31A     -0.493349    32A     -0.476231    33A     -0.467147

  @DF-RHF Final Energy:  -740.48484059269754

   => Energetics <=

    Nuclear Repulsion Energy =            439.5306004400572419
    One-Electron Energy =               -1891.4149443809076274
    Two-Electron Energy =                 711.3995033481528480
    Total Energy =                       -740.4848405926975374
  Basis Set: (AUG-CC-PVTZ AUX)
    Blend: AUG-CC-PVTZ-RI
    Molecular point group: c1

    Geometry (in Angstrom), charge = 0, multiplicity = 1:

       Center              X                  Y                   Z               Mass
    ------------   -----------------  -----------------  -----------------  -----------------
         S           -0.788522066721    -0.127801214889     0.000002528944    31.972071174400
         O            0.694716933279     0.565681785111    -0.000016471056    15.994914619570
         O           -0.989901066721    -0.829865214889     1.266204528944    15.994914619570
         O           -0.989916066721    -0.829905214889    -1.266173471056    15.994914619570
         C            1.791588933279    -0.400452214889    -0.000012471056    12.000000000000
         C           -1.706245066721     1.387386785111    -0.000014471056    12.000000000000
         C            3.065876933279     0.409982785111     0.000005528944    12.000000000000
         H            1.702254933279    -1.026125214889     0.892349528944     1.007825032230
         H            1.702272933279    -1.026112214889    -0.892385471056     1.007825032230
         H           -2.763181066721     1.116822785111     0.000008528944     1.007825032230
         H           -1.456331066721     1.949580785111     0.899016528944     1.007825032230
         H           -1.456360066721     1.949541785111    -0.899078471056     1.007825032230
         H            3.928216933279    -0.262766214889     0.000007528944     1.007825032230
         H            3.116254933279     1.042271785111    -0.888517471056     1.007825032230
         H            3.116239933279     1.042255785111     0.888542528944     1.007825032230

  Basis Set: AUG-CC-PVTZ
    Blend: AUG-CC-PVTZ
  Basis Set: (AUG-CC-PVTZ AUX)
    Blend: AUG-CC-PVTZ-JKFIT
	 Reference Energy          =    -740.4848405926975374 [Eh]
	 Singles Energy            =      -0.0000000000000000 [Eh]
	 Same-Spin Energy          =      -0.3943265371945633 [Eh]
	 Opposite-Spin Energy      =      -1.2137690030592370 [Eh]
	 Correlation Energy        =      -1.6080955402538004 [Eh]
	 Total Energy              =    -742.0929361329513085 [Eh]

	 ================> DF-SCS-MP2 Energies <==================
	-----------------------------------------------------------
	 SCS Same-Spin Scale       =       0.3333333333333333 [-]
	 SCS Opposite-Spin Scale   =       1.2000000000000000 [-]
	 SCS Same-Spin Energy      =      -0.1314421790648544 [Eh]
	 SCS Opposite-Spin Energy  =      -1.4565228036710842 [Eh]
	 SCS Correlation Energy    =      -1.5879649827359388 [Eh]
	 SCS Total Energy          =    -742.0728055754334491 [Eh]
	-----------------------------------------------------------

  Dipole Moment: [D]
     X:     1.4167      Y:     2.8632      Z:    -0.0001     Total:     3.1945

*** Psi4 exiting successfully. Buy a developer a beer!
