                               Psi4 1.3.2 release

  ==> Input File <==

--------------------------------------------------------------------------
#psi4
#
memory 32 gb

molecule  {
0 1
  S       -0.8476060    -0.1637020     0.0000030
  O        0.8168085     0.6144889    -0.0000183
  O       -1.0489850    -0.8657660     1.2662050
  O       -1.0490000    -0.8658060    -1.2661730
  C        1.7325050    -0.4363530    -0.0000120
  C       -1.7653290     1.3514860    -0.0000140
  C        3.0067930     0.3740820     0.0000060
  H        1.6431710    -1.0620260     0.8923500
  H        1.6431890    -1.0620130    -0.8923850
  H       -2.8222650     1.0809220     0.0000090
  H       -1.5154150     1.9136800     0.8990170
  H       -1.5154440     1.9136410    -0.8990780
  H        3.8691330    -0.2986670     0.0000080
  H        3.0571710     1.0063710    -0.8885170
  H        3.0571560     1.0063550     0.8885430
units angstrom
no_reorient  #important for SAPT in psi4, default
symmetry c1  #important for SAPT in psi4, default
}

set PROPERTIES_ORIGIN ["COM"]
properties('MP2/aug-cc-pvtz', properties = ['dipole'])
--------------------------------------------------------------------------

    Molecular point group: c1
  Charge       = 0
  Multiplicity = 1
  Basis Set: AUG-CC-PVTZ
    Blend: AUG-CC-PVTZ
  Basis Set: (AUG-CC-PVTZ AUX)
    Blend: AUG-CC-PVTZ-JKFIT

    Orbital Energies [Eh]
    ---------------------

    Doubly Occupied:

       1A    -92.229666     2A    -20.615441     3A    -20.576959
       4A    -20.576935     5A    -11.294668     6A    -11.285097
       7A    -11.221625     8A     -9.194171     9A     -6.879299
      10A     -6.877859    11A     -6.877762    12A     -1.475320
      13A     -1.378624    14A     -1.356276    15A     -1.069282
      16A     -1.013805    17A     -0.858858    18A     -0.838621
      19A     -0.724790    20A     -0.689521    21A     -0.686226
      22A     -0.663203    23A     -0.622081    24A     -0.615252
      25A     -0.613638    26A     -0.556147    27A     -0.547987
      28A     -0.539596    29A     -0.507397    30A     -0.506655
      31A     -0.496366    32A     -0.468829    33A     -0.454596

  @DF-RHF Final Energy:  -740.44840506004630

   => Energetics <=

    Nuclear Repulsion Energy =            434.6309931638221542
    One-Electron Energy =               -1881.5336976034673171
    Two-Electron Energy =                 706.4542993795989787
    Total Energy =                       -740.4484050600462979
  Basis Set: (AUG-CC-PVTZ AUX)
    Blend: AUG-CC-PVTZ-RI
    Molecular point group: c1

    Geometry (in Angstrom), charge = 0, multiplicity = 1:

       Center              X                  Y                   Z               Mass
    ------------   -----------------  -----------------  -----------------  -----------------
         S           -0.811888461788    -0.138726081974     0.000002825577    31.972071174400
         O            0.852526038212     0.639464818026    -0.000018474423    15.994914619570
         O           -1.013267461788    -0.840790081974     1.266204825577    15.994914619570
         O           -1.013282461788    -0.840830081974    -1.266173174423    15.994914619570
         C            1.768222538212    -0.411377081974    -0.000012174423    12.000000000000
         C           -1.729611461788     1.376461918026    -0.000014174423    12.000000000000
         C            3.042510538212     0.399057918026     0.000005825577    12.000000000000
         H            1.678888538212    -1.037050081974     0.892349825577     1.007825032230
         H            1.678906538212    -1.037037081974    -0.892385174423     1.007825032230
         H           -2.786547461788     1.105897918026     0.000008825577     1.007825032230
         H           -1.479697461788     1.938655918026     0.899016825577     1.007825032230
         H           -1.479726461788     1.938616918026    -0.899078174423     1.007825032230
         H            3.904850538212    -0.273691081974     0.000007825577     1.007825032230
         H            3.092888538212     1.031346918026    -0.888517174423     1.007825032230
         H            3.092873538212     1.031330918026     0.888542825577     1.007825032230

  Basis Set: AUG-CC-PVTZ
    Blend: AUG-CC-PVTZ
  Basis Set: (AUG-CC-PVTZ AUX)
    Blend: AUG-CC-PVTZ-JKFIT
	 Reference Energy          =    -740.4484050600462979 [Eh]
	 Singles Energy            =      -0.0000000000000000 [Eh]
	 Same-Spin Energy          =      -0.3986699096674393 [Eh]
	 Opposite-Spin Energy      =      -1.2244985580930015 [Eh]
	 Correlation Energy        =      -1.6231684677604408 [Eh]
	 Total Energy              =    -742.0715735278067768 [Eh]

	 ================> DF-SCS-MP2 Energies <==================
	-----------------------------------------------------------
	 SCS Same-Spin Scale       =       0.3333333333333333 [-]
	 SCS Opposite-Spin Scale   =       1.2000000000000000 [-]
	 SCS Same-Spin Energy      =      -0.1328899698891464 [Eh]
	 SCS Opposite-Spin Energy  =      -1.4693982697116017 [Eh]
	 SCS Correlation Energy    =      -1.6022882396007481 [Eh]
	 SCS Total Energy          =    -742.0506932996470368 [Eh]
	-----------------------------------------------------------

  Dipole Moment: [D]
     X:     0.0165      Y:     2.6624      Z:    -0.0000     Total:     2.6624

*** Psi4 exiting successfully. Buy a developer a beer!
