                               Psi4 1.4a3.dev225

  ==> Input File <==

--------------------------------------------------------------------------
#psi4
#
memory 32 gb

molecule  {
0 1
  S       -0.8474370    -0.1634740     0.0000030
  O        0.6356530     0.5296900    -0.0000090
  O       -1.0489550    -0.8659360     1.2656300
  O       -1.0489590    -0.8659660    -1.2656070
  C        1.6952518    -0.4032949    -0.0000100
  C       -1.7660460     1.3512030    -0.0000130
  C        3.0069280     0.3742480     0.0000060
  H        1.6435610    -1.0619840     0.8923650
  H        1.6435710    -1.0619680    -0.8923970
  H       -2.8228660     1.0799920    -0.0000030
  H       -1.5165640     1.9135900     0.8989700
  H       -1.5165740     1.9135660    -0.8990130
  H        3.8695390    -0.2981460     0.0000030
  H        3.0572260     1.0067830    -0.8883720
  H        3.0572160     1.0067630     0.8883970
units angstrom
no_reorient  #important for SAPT in psi4, default
symmetry c1  #important for SAPT in psi4, default
}

set PROPERTIES_ORIGIN ["COM"]
properties('MP2/aug-cc-pvtz', properties = ['dipole'])
--------------------------------------------------------------------------

    Molecular point group: c1
  Charge       = 0
  Multiplicity = 1
  Basis Set: AUG-CC-PVTZ
    Blend: AUG-CC-PVTZ
  Basis Set: (AUG-CC-PVTZ AUX)
    Blend: AUG-CC-PVTZ-JKFIT

    Orbital Energies [Eh]
    ---------------------

    Doubly Occupied:

       1A    -92.224699     2A    -20.624999     3A    -20.561200
       4A    -20.561176     5A    -11.303701     6A    -11.286040
       7A    -11.234061     8A     -9.188514     9A     -6.874122
      10A     -6.872662    11A     -6.872364    12A     -1.495072
      13A     -1.393000    14A     -1.345596    15A     -1.072938
      16A     -1.024477    17A     -0.883048    18A     -0.829726
      19A     -0.733689    20A     -0.701209    21A     -0.691029
      22A     -0.654447    23A     -0.626725    24A     -0.608660
      25A     -0.607345    26A     -0.564835    27A     -0.564806
      28A     -0.538968    29A     -0.500942    30A     -0.498295
      31A     -0.492090    32A     -0.478855    33A     -0.466729

  @DF-RHF Final Energy:  -740.48346966754957

   => Energetics <=

    Nuclear Repulsion Energy =            440.4867680295267292
    One-Electron Energy =               -1893.1884393301602358
    Two-Electron Energy =                 712.2182016330839360
    Total Energy =                       -740.4834696675495707
  Basis Set: (AUG-CC-PVTZ AUX)
    Blend: AUG-CC-PVTZ-RI
    Molecular point group: c1

    Geometry (in Angstrom), charge = 0, multiplicity = 1:

       Center              X                  Y                   Z               Mass
    ------------   -----------------  -----------------  -----------------  -----------------
         S           -0.784734576825    -0.130767751631     0.000002472230    31.972071174400
         O            0.698355423175     0.562396248369    -0.000009527770    15.994914619570
         O           -0.986252576825    -0.833229751631     1.265629472230    15.994914619570
         O           -0.986256576825    -0.833259751631    -1.265607527770    15.994914619570
         C            1.757954223175    -0.370588651631    -0.000010527770    12.000000000000
         C           -1.703343576825     1.383909248369    -0.000013527770    12.000000000000
         C            3.069630423175     0.406954248369     0.000005472230    12.000000000000
         H            1.706263423175    -1.029277751631     0.892364472230     1.007825032230
         H            1.706273423175    -1.029261751631    -0.892397527770     1.007825032230
         H           -2.760163576825     1.112698248369    -0.000003527770     1.007825032230
         H           -1.453861576825     1.946296248369     0.898969472230     1.007825032230
         H           -1.453871576825     1.946272248369    -0.899013527770     1.007825032230
         H            3.932241423175    -0.265439751631     0.000002472230     1.007825032230
         H            3.119928423175     1.039489248369    -0.888372527770     1.007825032230
         H            3.119918423175     1.039469248369     0.888396472230     1.007825032230

  Basis Set: AUG-CC-PVTZ
    Blend: AUG-CC-PVTZ
  Basis Set: (AUG-CC-PVTZ AUX)
    Blend: AUG-CC-PVTZ-JKFIT
	 Reference Energy          =    -740.4834696675495707 [Eh]
	 Singles Energy            =      -0.0000000000000000 [Eh]
	 Same-Spin Energy          =      -0.3943545788710641 [Eh]
	 Opposite-Spin Energy      =      -1.2134321653908891 [Eh]
	 Correlation Energy        =      -1.6077867442619531 [Eh]
	 Total Energy              =    -742.0912564118115142 [Eh]

	 ================> DF-SCS-MP2 Energies <==================
	-----------------------------------------------------------
	 SCS Same-Spin Scale       =       0.3333333333333333 [-]
	 SCS Opposite-Spin Scale   =       1.2000000000000000 [-]
	 SCS Same-Spin Energy      =      -0.1314515262903547 [Eh]
	 SCS Opposite-Spin Energy  =      -1.4561185984690668 [Eh]
	 SCS Correlation Energy    =      -1.5875701247594214 [Eh]
	 SCS Total Energy          =    -742.0710397923089658 [Eh]
	-----------------------------------------------------------

  Dipole Moment: [D]
     X:     1.1765      Y:     2.9423      Z:    -0.0000     Total:     3.1688

*** Psi4 exiting successfully. Buy a developer a beer!
