                               Psi4 1.3.2 release

  ==> Input File <==

--------------------------------------------------------------------------
#psi4
#
memory 32 gb

molecule  {
0 1
  S       -0.8476060    -0.1637020     0.0000030
  O        0.6305798     0.5399994    -0.0262206
  O       -1.0489850    -0.8657660     1.2662050
  O       -1.0490000    -0.8658060    -1.2661730
  C        1.7325050    -0.4363530    -0.0000120
  C       -1.7653290     1.3514860    -0.0000140
  C        3.0067930     0.3740820     0.0000060
  H        1.6431710    -1.0620260     0.8923500
  H        1.6431890    -1.0620130    -0.8923850
  H       -2.8222650     1.0809220     0.0000090
  H       -1.5154150     1.9136800     0.8990170
  H       -1.5154440     1.9136410    -0.8990780
  H        3.8691330    -0.2986670     0.0000080
  H        3.0571710     1.0063710    -0.8885170
  H        3.0571560     1.0063550     0.8885430
units angstrom
no_reorient  #important for SAPT in psi4, default
symmetry c1  #important for SAPT in psi4, default
}

set PROPERTIES_ORIGIN ["COM"]
properties('MP2/aug-cc-pvtz', properties = ['dipole'])
--------------------------------------------------------------------------

    Molecular point group: c1
  Charge       = 0
  Multiplicity = 1
  Basis Set: AUG-CC-PVTZ
    Blend: AUG-CC-PVTZ
  Basis Set: (AUG-CC-PVTZ AUX)
    Blend: AUG-CC-PVTZ-JKFIT

    Orbital Energies [Eh]
    ---------------------

    Doubly Occupied:

       1A    -92.221015     2A    -20.619991     3A    -20.559877
       4A    -20.557226     5A    -11.306799     6A    -11.282705
       7A    -11.236363     8A     -9.184773     9A     -6.870346
      10A     -6.868957    11A     -6.868684    12A     -1.486345
      13A     -1.378709    14A     -1.342917    15A     -1.071148
      16A     -1.027973    17A     -0.878354    18A     -0.830282
      19A     -0.725946    20A     -0.696565    21A     -0.687113
      22A     -0.654967    23A     -0.621420    24A     -0.606443
      25A     -0.602400    26A     -0.563798    27A     -0.559784
      28A     -0.544184    29A     -0.505313    30A     -0.502071
      31A     -0.493413    32A     -0.475763    33A     -0.467439

  @DF-RHF Final Energy:  -740.48410714838792

   => Energetics <=

    Nuclear Repulsion Energy =            439.3699858336956368
    One-Electron Energy =               -1891.1100148731511581
    Two-Electron Energy =                 711.2559218910676009
    Total Energy =                       -740.4841071483879205
  Basis Set: (AUG-CC-PVTZ AUX)
    Blend: AUG-CC-PVTZ-RI
    Molecular point group: c1

    Geometry (in Angstrom), charge = 0, multiplicity = 1:

       Center              X                  Y                   Z               Mass
    ------------   -----------------  -----------------  -----------------  -----------------
         S           -0.787870350194    -0.129119092700     0.003382163807    31.972071174400
         O            0.690315449806     0.574582307300    -0.022841436193    15.994914619570
         O           -0.989249350194    -0.831183092700     1.269584163807    15.994914619570
         O           -0.989264350194    -0.831223092700    -1.262793836193    15.994914619570
         C            1.792240649806    -0.401770092700     0.003367163807    12.000000000000
         C           -1.705593350194     1.386068907300     0.003365163807    12.000000000000
         C            3.066528649806     0.408664907300     0.003385163807    12.000000000000
         H            1.702906649806    -1.027443092700     0.895729163807     1.007825032230
         H            1.702924649806    -1.027430092700    -0.889005836193     1.007825032230
         H           -2.762529350194     1.115504907300     0.003388163807     1.007825032230
         H           -1.455679350194     1.948262907300     0.902396163807     1.007825032230
         H           -1.455708350194     1.948223907300    -0.895698836193     1.007825032230
         H            3.928868649806    -0.264084092700     0.003387163807     1.007825032230
         H            3.116906649806     1.040953907300    -0.885137836193     1.007825032230
         H            3.116891649806     1.040937907300     0.891922163807     1.007825032230

  Basis Set: AUG-CC-PVTZ
    Blend: AUG-CC-PVTZ
  Basis Set: (AUG-CC-PVTZ AUX)
    Blend: AUG-CC-PVTZ-JKFIT
	 Reference Energy          =    -740.4841071483879205 [Eh]
	 Singles Energy            =      -0.0000000000000000 [Eh]
	 Same-Spin Energy          =      -0.3944133220899668 [Eh]
	 Opposite-Spin Energy      =      -1.2140919165276260 [Eh]
	 Correlation Energy        =      -1.6085052386175929 [Eh]
	 Total Energy              =    -742.0926123870054880 [Eh]

	 ================> DF-SCS-MP2 Energies <==================
	-----------------------------------------------------------
	 SCS Same-Spin Scale       =       0.3333333333333333 [-]
	 SCS Opposite-Spin Scale   =       1.2000000000000000 [-]
	 SCS Same-Spin Energy      =      -0.1314711073633223 [Eh]
	 SCS Opposite-Spin Energy  =      -1.4569102998331511 [Eh]
	 SCS Correlation Energy    =      -1.5883814071964735 [Eh]
	 SCS Total Energy          =    -742.0724885555844139 [Eh]
	-----------------------------------------------------------

  Dipole Moment: [D]
     X:     1.4632      Y:     2.8307      Z:     0.0559     Total:     3.1870

*** Psi4 exiting successfully. Buy a developer a beer!
