                               Psi4 1.3.2 release

  ==> Input File <==

--------------------------------------------------------------------------
#psi4
#
memory 32 gb

molecule  {
0 1
  S       -0.8476060    -0.1637020     0.0000030
  O        0.6105272     0.5811228    -0.0000166
  O       -1.0489850    -0.8657660     1.2662050
  O       -1.0490000    -0.8658060    -1.2661730
  C        1.7325050    -0.4363530    -0.0000120
  C       -1.7653290     1.3514860    -0.0000140
  C        3.0067930     0.3740820     0.0000060
  H        1.6431710    -1.0620260     0.8923500
  H        1.6431890    -1.0620130    -0.8923850
  H       -2.8222650     1.0809220     0.0000090
  H       -1.5154150     1.9136800     0.8990170
  H       -1.5154440     1.9136410    -0.8990780
  H        3.8691330    -0.2986670     0.0000080
  H        3.0571710     1.0063710    -0.8885170
  H        3.0571560     1.0063550     0.8885430
units angstrom
no_reorient  #important for SAPT in psi4, default
symmetry c1  #important for SAPT in psi4, default
}

set PROPERTIES_ORIGIN ["COM"]
properties('MP2/aug-cc-pvtz', properties = ['dipole'])
--------------------------------------------------------------------------

    Molecular point group: c1
  Charge       = 0
  Multiplicity = 1
  Basis Set: AUG-CC-PVTZ
    Blend: AUG-CC-PVTZ
  Basis Set: (AUG-CC-PVTZ AUX)
    Blend: AUG-CC-PVTZ-JKFIT

    Orbital Energies [Eh]
    ---------------------

    Doubly Occupied:

       1A    -92.219132     2A    -20.620967     3A    -20.558391
       4A    -20.558367     5A    -11.312175     6A    -11.279067
       7A    -11.238445     8A     -9.182955     9A     -6.868557
      10A     -6.867094    11A     -6.866901    12A     -1.483219
      13A     -1.372044    14A     -1.342454    15A     -1.069363
      16A     -1.027790    17A     -0.874562    18A     -0.831602
      19A     -0.721351    20A     -0.693264    21A     -0.685625
      22A     -0.654172    23A     -0.619183    24A     -0.604379
      25A     -0.600947    26A     -0.563654    27A     -0.555945
      28A     -0.545611    29A     -0.508066    30A     -0.505537
      31A     -0.493364    32A     -0.473939    33A     -0.468549

  @DF-RHF Final Energy:  -740.48043642878406

   => Energetics <=

    Nuclear Repulsion Energy =            438.7617223112326315
    One-Electron Energy =               -1889.9509657681621775
    Two-Electron Energy =                 710.7088070281454293
    Total Energy =                       -740.4804364287840599
  Basis Set: (AUG-CC-PVTZ AUX)
    Blend: AUG-CC-PVTZ-RI
    Molecular point group: c1

    Geometry (in Angstrom), charge = 0, multiplicity = 1:

       Center              X                  Y                   Z               Mass
    ------------   -----------------  -----------------  -----------------  -----------------
         S           -0.785284145251    -0.134422820913     0.000002606326    31.972071174400
         O            0.672849054749     0.610401979087    -0.000016993674    15.994914619570
         O           -0.986663145251    -0.836486820913     1.266204606326    15.994914619570
         O           -0.986678145251    -0.836526820913    -1.266173393674    15.994914619570
         C            1.794826854749    -0.407073820913    -0.000012393674    12.000000000000
         C           -1.703007145251     1.380765179087    -0.000014393674    12.000000000000
         C            3.069114854749     0.403361179087     0.000005606326    12.000000000000
         H            1.705492854749    -1.032746820913     0.892349606326     1.007825032230
         H            1.705510854749    -1.032733820913    -0.892385393674     1.007825032230
         H           -2.759943145251     1.110201179087     0.000008606326     1.007825032230
         H           -1.453093145251     1.942959179087     0.899016606326     1.007825032230
         H           -1.453122145251     1.942920179087    -0.899078393674     1.007825032230
         H            3.931454854749    -0.269387820913     0.000007606326     1.007825032230
         H            3.119492854749     1.035650179087    -0.888517393674     1.007825032230
         H            3.119477854749     1.035634179087     0.888542606326     1.007825032230

  Basis Set: AUG-CC-PVTZ
    Blend: AUG-CC-PVTZ
  Basis Set: (AUG-CC-PVTZ AUX)
    Blend: AUG-CC-PVTZ-JKFIT
	 Reference Energy          =    -740.4804364287840599 [Eh]
	 Singles Energy            =      -0.0000000000000000 [Eh]
	 Same-Spin Energy          =      -0.3947814901656405 [Eh]
	 Opposite-Spin Energy      =      -1.2154015936061462 [Eh]
	 Correlation Energy        =      -1.6101830837717865 [Eh]
	 Total Energy              =    -742.0906195125558042 [Eh]

	 ================> DF-SCS-MP2 Energies <==================
	-----------------------------------------------------------
	 SCS Same-Spin Scale       =       0.3333333333333333 [-]
	 SCS Opposite-Spin Scale   =       1.2000000000000000 [-]
	 SCS Same-Spin Energy      =      -0.1315938300552135 [Eh]
	 SCS Opposite-Spin Energy  =      -1.4584819123273753 [Eh]
	 SCS Correlation Energy    =      -1.5900757423825889 [Eh]
	 SCS Total Energy          =    -742.0705121711666834 [Eh]
	-----------------------------------------------------------

  Dipole Moment: [D]
     X:     1.6405      Y:     2.7040      Z:    -0.0001     Total:     3.1627

*** Psi4 exiting successfully. Buy a developer a beer!
