                               Psi4 1.3.2 release

  ==> Input File <==

--------------------------------------------------------------------------
#psi4
#
memory 32 gb

molecule  {
0 1
  S       -0.8476060    -0.1637020     0.0000030
  O        0.6025836     0.4909122    -0.0000166
  O       -1.0489850    -0.8657660     1.2662050
  O       -1.0490000    -0.8658060    -1.2661730
  C        1.7325050    -0.4363530    -0.0000120
  C       -1.7653290     1.3514860    -0.0000140
  C        3.0067930     0.3740820     0.0000060
  H        1.6431710    -1.0620260     0.8923500
  H        1.6431890    -1.0620130    -0.8923850
  H       -2.8222650     1.0809220     0.0000090
  H       -1.5154150     1.9136800     0.8990170
  H       -1.5154440     1.9136410    -0.8990780
  H        3.8691330    -0.2986670     0.0000080
  H        3.0571710     1.0063710    -0.8885170
  H        3.0571560     1.0063550     0.8885430
units angstrom
no_reorient  #important for SAPT in psi4, default
symmetry c1  #important for SAPT in psi4, default
}

set PROPERTIES_ORIGIN ["COM"]
properties('MP2/aug-cc-pvtz', properties = ['dipole'])
--------------------------------------------------------------------------

    Molecular point group: c1
  Charge       = 0
  Multiplicity = 1
  Basis Set: AUG-CC-PVTZ
    Blend: AUG-CC-PVTZ
  Basis Set: (AUG-CC-PVTZ AUX)
    Blend: AUG-CC-PVTZ-JKFIT

    Orbital Energies [Eh]
    ---------------------

    Doubly Occupied:

       1A    -92.218851     2A    -20.619893     3A    -20.553549
       4A    -20.553526     5A    -11.309251     6A    -11.281942
       7A    -11.239026     8A     -9.182673     9A     -6.868396
      10A     -6.866970    11A     -6.866598    12A     -1.496227
      13A     -1.383247    14A     -1.339581    15A     -1.074647
      16A     -1.029750    17A     -0.887408    18A     -0.827119
      19A     -0.729119    20A     -0.702538    21A     -0.690019
      22A     -0.654128    23A     -0.622232    24A     -0.606017
      25A     -0.601331    26A     -0.567065    27A     -0.565152
      28A     -0.543848    29A     -0.504623    30A     -0.502900
      31A     -0.490247    32A     -0.475919    33A     -0.463556

  @DF-RHF Final Energy:  -740.48859077272039

   => Energetics <=

    Nuclear Repulsion Energy =            441.1239513133421042
    One-Electron Energy =               -1894.5903873678473701
    Two-Electron Energy =                 712.9778452817848802
    Total Energy =                       -740.4885907727203858
  Basis Set: (AUG-CC-PVTZ AUX)
    Blend: AUG-CC-PVTZ-RI
    Molecular point group: c1

    Geometry (in Angstrom), charge = 0, multiplicity = 1:

       Center              X                  Y                   Z               Mass
    ------------   -----------------  -----------------  -----------------  -----------------
         S           -0.784259650792    -0.122788264812     0.000002606326    31.972071174400
         O            0.665929949208     0.531825935188    -0.000016993674    15.994914619570
         O           -0.985638650792    -0.824852264812     1.266204606326    15.994914619570
         O           -0.985653650792    -0.824892264812    -1.266173393674    15.994914619570
         C            1.795851349208    -0.395439264812    -0.000012393674    12.000000000000
         C           -1.701982650792     1.392399735188    -0.000014393674    12.000000000000
         C            3.070139349208     0.414995735188     0.000005606326    12.000000000000
         H            1.706517349208    -1.021112264812     0.892349606326     1.007825032230
         H            1.706535349208    -1.021099264812    -0.892385393674     1.007825032230
         H           -2.758918650792     1.121835735188     0.000008606326     1.007825032230
         H           -1.452068650792     1.954593735188     0.899016606326     1.007825032230
         H           -1.452097650792     1.954554735188    -0.899078393674     1.007825032230
         H            3.932479349208    -0.257753264812     0.000007606326     1.007825032230
         H            3.120517349208     1.047284735188    -0.888517393674     1.007825032230
         H            3.120502349208     1.047268735188     0.888542606326     1.007825032230

  Basis Set: AUG-CC-PVTZ
    Blend: AUG-CC-PVTZ
  Basis Set: (AUG-CC-PVTZ AUX)
    Blend: AUG-CC-PVTZ-JKFIT
	 Reference Energy          =    -740.4885907727203858 [Eh]
	 Singles Energy            =      -0.0000000000000000 [Eh]
	 Same-Spin Energy          =      -0.3933417694418256 [Eh]
	 Opposite-Spin Energy      =      -1.2110719466405195 [Eh]
	 Correlation Energy        =      -1.6044137160823451 [Eh]
	 Total Energy              =    -742.0930044888027624 [Eh]

	 ================> DF-SCS-MP2 Energies <==================
	-----------------------------------------------------------
	 SCS Same-Spin Scale       =       0.3333333333333333 [-]
	 SCS Opposite-Spin Scale   =       1.2000000000000000 [-]
	 SCS Same-Spin Energy      =      -0.1311139231472752 [Eh]
	 SCS Opposite-Spin Energy  =      -1.4532863359686234 [Eh]
	 SCS Correlation Energy    =      -1.5844002591158985 [Eh]
	 SCS Total Energy          =    -742.0729910318362954 [Eh]
	-----------------------------------------------------------

  Dipole Moment: [D]
     X:     1.7262      Y:     2.9720      Z:    -0.0001     Total:     3.4370

*** Psi4 exiting successfully. Buy a developer a beer!
