                               Psi4 1.4a3.dev225

  ==> Input File <==

--------------------------------------------------------------------------
#psi4
#
memory 32 gb

molecule  {
0 1
  S       -0.8474370    -0.1634740     0.0000030
  O        0.6809498     0.5508607    -0.0000094
  O       -1.0489550    -0.8659360     1.2656300
  O       -1.0489590    -0.8659660    -1.2656070
  C        1.7327780    -0.4363370    -0.0000100
  C       -1.7660460     1.3512030    -0.0000130
  C        3.0069280     0.3742480     0.0000060
  H        1.6435610    -1.0619840     0.8923650
  H        1.6435710    -1.0619680    -0.8923970
  H       -2.8228660     1.0799920    -0.0000030
  H       -1.5165640     1.9135900     0.8989700
  H       -1.5165740     1.9135660    -0.8990130
  H        3.8695390    -0.2981460     0.0000030
  H        3.0572260     1.0067830    -0.8883720
  H        3.0572160     1.0067630     0.8883970
units angstrom
no_reorient  #important for SAPT in psi4, default
symmetry c1  #important for SAPT in psi4, default
}

set PROPERTIES_ORIGIN ["COM"]
properties('MP2/aug-cc-pvtz', properties = ['dipole'])
--------------------------------------------------------------------------

    Molecular point group: c1
  Charge       = 0
  Multiplicity = 1
  Basis Set: AUG-CC-PVTZ
    Blend: AUG-CC-PVTZ
  Basis Set: (AUG-CC-PVTZ AUX)
    Blend: AUG-CC-PVTZ-JKFIT

    Orbital Energies [Eh]
    ---------------------

    Doubly Occupied:

       1A    -92.224583     2A    -20.618704     3A    -20.563694
       4A    -20.563671     5A    -11.299374     6A    -11.286946
       7A    -11.231714     8A     -9.188346     9A     -6.873771
      10A     -6.872425    11A     -6.872189    12A     -1.481969
      13A     -1.379983    14A     -1.346896    15A     -1.070254
      16A     -1.025434    17A     -0.873779    18A     -0.831939
      19A     -0.727025    20A     -0.694685    21A     -0.686393
      22A     -0.657141    23A     -0.622483    24A     -0.609158
      25A     -0.605607    26A     -0.559800    27A     -0.558533
      28A     -0.542775    29A     -0.503197    30A     -0.500608
      31A     -0.494877    32A     -0.474948    33A     -0.469361

  @DF-RHF Final Energy:  -740.47909604041115

   => Energetics <=

    Nuclear Repulsion Energy =            438.2202070742991964
    One-Electron Energy =               -1888.7740824610518757
    Two-Electron Energy =                 710.0747793463415292
    Total Energy =                       -740.4790960404111502
  Basis Set: (AUG-CC-PVTZ AUX)
    Blend: AUG-CC-PVTZ-RI
    Molecular point group: c1

    Geometry (in Angstrom), charge = 0, multiplicity = 1:

       Center              X                  Y                   Z               Mass
    ------------   -----------------  -----------------  -----------------  -----------------
         S           -0.794207552051    -0.130301037117     0.000002523818    31.972071174400
         O            0.734179247949     0.584033662883    -0.000009876182    15.994914619570
         O           -0.995725552051    -0.832763037117     1.265629523818    15.994914619570
         O           -0.995729552051    -0.832793037117    -1.265607476182    15.994914619570
         C            1.786007447949    -0.403164037117    -0.000010476182    12.000000000000
         C           -1.712816552051     1.384375962883    -0.000013476182    12.000000000000
         C            3.060157447949     0.407420962883     0.000005523818    12.000000000000
         H            1.696790447949    -1.028811037117     0.892364523818     1.007825032230
         H            1.696800447949    -1.028795037117    -0.892397476182     1.007825032230
         H           -2.769636552051     1.113164962883    -0.000003476182     1.007825032230
         H           -1.463334552051     1.946762962883     0.898969523818     1.007825032230
         H           -1.463344552051     1.946738962883    -0.899013476182     1.007825032230
         H            3.922768447949    -0.264973037117     0.000002523818     1.007825032230
         H            3.110455447949     1.039955962883    -0.888372476182     1.007825032230
         H            3.110445447949     1.039935962883     0.888396523818     1.007825032230

  Basis Set: AUG-CC-PVTZ
    Blend: AUG-CC-PVTZ
  Basis Set: (AUG-CC-PVTZ AUX)
    Blend: AUG-CC-PVTZ-JKFIT
	 Reference Energy          =    -740.4790960404111502 [Eh]
	 Singles Energy            =      -0.0000000000000000 [Eh]
	 Same-Spin Energy          =      -0.3952827766414599 [Eh]
	 Opposite-Spin Energy      =      -1.2161824361339599 [Eh]
	 Correlation Energy        =      -1.6114652127754199 [Eh]
	 Total Energy              =    -742.0905612531865927 [Eh]

	 ================> DF-SCS-MP2 Energies <==================
	-----------------------------------------------------------
	 SCS Same-Spin Scale       =       0.3333333333333333 [-]
	 SCS Opposite-Spin Scale   =       1.2000000000000000 [-]
	 SCS Same-Spin Energy      =      -0.1317609255471533 [Eh]
	 SCS Opposite-Spin Energy  =      -1.4594189233607520 [Eh]
	 SCS Correlation Energy    =      -1.5911798489079052 [Eh]
	 SCS Total Energy          =    -742.0702758893190776 [Eh]
	-----------------------------------------------------------

  Dipole Moment: [D]
     X:     1.0213      Y:     2.8128      Z:    -0.0000     Total:     2.9925

*** Psi4 exiting successfully. Buy a developer a beer!
