                               Psi4 1.3.2 release

  ==> Input File <==

--------------------------------------------------------------------------
#psi4
#
memory 32 gb

molecule  {
0 1
  S       -0.8476060    -0.1637020     0.0000030
  O        0.5901751     0.4660578     0.1314425
  O       -1.0489850    -0.8657660     1.2662050
  O       -1.0490000    -0.8658060    -1.2661730
  C        1.7325050    -0.4363530    -0.0000120
  C       -1.7653290     1.3514860    -0.0000140
  C        3.0067930     0.3740820     0.0000060
  H        1.6431710    -1.0620260     0.8923500
  H        1.6431890    -1.0620130    -0.8923850
  H       -2.8222650     1.0809220     0.0000090
  H       -1.5154150     1.9136800     0.8990170
  H       -1.5154440     1.9136410    -0.8990780
  H        3.8691330    -0.2986670     0.0000080
  H        3.0571710     1.0063710    -0.8885170
  H        3.0571560     1.0063550     0.8885430
units angstrom
no_reorient  #important for SAPT in psi4, default
symmetry c1  #important for SAPT in psi4, default
}

set PROPERTIES_ORIGIN ["COM"]
properties('MP2/aug-cc-pvtz', properties = ['dipole'])
--------------------------------------------------------------------------

    Molecular point group: c1
  Charge       = 0
  Multiplicity = 1
  Basis Set: AUG-CC-PVTZ
    Blend: AUG-CC-PVTZ
  Basis Set: (AUG-CC-PVTZ AUX)
    Blend: AUG-CC-PVTZ-JKFIT

    Orbital Energies [Eh]
    ---------------------

    Doubly Occupied:

       1A    -92.217697     2A    -20.619275     3A    -20.558541
       4A    -20.544127     5A    -11.310486     6A    -11.281678
       7A    -11.240195     8A     -9.181615     9A     -6.867402
      10A     -6.865949    11A     -6.865520    12A     -1.500086
      13A     -1.384142    14A     -1.337199    15A     -1.075551
      16A     -1.030601    17A     -0.890593    18A     -0.825897
      19A     -0.730170    20A     -0.703818    21A     -0.691201
      22A     -0.653355    23A     -0.622249    24A     -0.605833
      25A     -0.600747    26A     -0.569425    27A     -0.566288
      28A     -0.543348    29A     -0.507579    30A     -0.501784
      31A     -0.488267    32A     -0.473852    33A     -0.460276

  @DF-RHF Final Energy:  -740.48561666218848

   => Energetics <=

    Nuclear Repulsion Energy =            441.7118707091843248
    One-Electron Energy =               -1895.7654811471084031
    Two-Electron Energy =                 713.5679937757356583
    Total Energy =                       -740.4856166621884768
  Basis Set: (AUG-CC-PVTZ AUX)
    Blend: AUG-CC-PVTZ-RI
    Molecular point group: c1

    Geometry (in Angstrom), charge = 0, multiplicity = 1:

       Center              X                  Y                   Z               Mass
    ------------   -----------------  -----------------  -----------------  -----------------
         S           -0.782659313477    -0.119582766665    -0.016951812266    31.972071174400
         O            0.655121786523     0.510177033335     0.114487687734    15.994914619570
         O           -0.984038313477    -0.821646766665     1.249250187734    15.994914619570
         O           -0.984053313477    -0.821686766665    -1.283127812266    15.994914619570
         C            1.797451686523    -0.392233766665    -0.016966812266    12.000000000000
         C           -1.700382313477     1.395605233335    -0.016968812266    12.000000000000
         C            3.071739686523     0.418201233335    -0.016948812266    12.000000000000
         H            1.708117686523    -1.017906766665     0.875395187734     1.007825032230
         H            1.708135686523    -1.017893766665    -0.909339812266     1.007825032230
         H           -2.757318313477     1.125041233335    -0.016945812266     1.007825032230
         H           -1.450468313477     1.957799233335     0.882062187734     1.007825032230
         H           -1.450497313477     1.957760233335    -0.916032812266     1.007825032230
         H            3.934079686523    -0.254547766665    -0.016946812266     1.007825032230
         H            3.122117686523     1.050490233335    -0.905471812266     1.007825032230
         H            3.122102686523     1.050474233335     0.871588187734     1.007825032230

  Basis Set: AUG-CC-PVTZ
    Blend: AUG-CC-PVTZ
  Basis Set: (AUG-CC-PVTZ AUX)
    Blend: AUG-CC-PVTZ-JKFIT
	 Reference Energy          =    -740.4856166621884768 [Eh]
	 Singles Energy            =      -0.0000000000000000 [Eh]
	 Same-Spin Energy          =      -0.3931427215800198 [Eh]
	 Opposite-Spin Energy      =      -1.2104130058311475 [Eh]
	 Correlation Energy        =      -1.6035557274111674 [Eh]
	 Total Energy              =    -742.0891723895996392 [Eh]

	 ================> DF-SCS-MP2 Energies <==================
	-----------------------------------------------------------
	 SCS Same-Spin Scale       =       0.3333333333333333 [-]
	 SCS Opposite-Spin Scale   =       1.2000000000000000 [-]
	 SCS Same-Spin Energy      =      -0.1310475738600066 [Eh]
	 SCS Opposite-Spin Energy  =      -1.4524956069973769 [Eh]
	 SCS Correlation Energy    =      -1.5835431808573834 [Eh]
	 SCS Total Energy          =    -742.0691598430458953 [Eh]
	-----------------------------------------------------------

  Dipole Moment: [D]
     X:     1.8338      Y:     3.0329      Z:    -0.2846     Total:     3.5556

*** Psi4 exiting successfully. Buy a developer a beer!
