                               Psi4 1.4a3.dev225

  ==> Input File <==

--------------------------------------------------------------------------
#psi4
#
memory 32 gb

molecule  {
0 1
  S       -0.8474370    -0.1634740     0.0000030
  O        0.6356530     0.5296900    -0.0000090
  O       -1.0489550    -0.8659360     1.2656300
  O       -1.0489590    -0.8659660    -1.2656070
  C        1.7177675    -0.4231201    -0.0000100
  C       -1.7660460     1.3512030    -0.0000130
  C        3.0069280     0.3742480     0.0000060
  H        1.6435610    -1.0619840     0.8923650
  H        1.6435710    -1.0619680    -0.8923970
  H       -2.8228660     1.0799920    -0.0000030
  H       -1.5165640     1.9135900     0.8989700
  H       -1.5165740     1.9135660    -0.8990130
  H        3.8695390    -0.2981460     0.0000030
  H        3.0572260     1.0067830    -0.8883720
  H        3.0572160     1.0067630     0.8883970
units angstrom
no_reorient  #important for SAPT in psi4, default
symmetry c1  #important for SAPT in psi4, default
}

set PROPERTIES_ORIGIN ["COM"]
properties('MP2/aug-cc-pvtz', properties = ['dipole'])
--------------------------------------------------------------------------

    Molecular point group: c1
  Charge       = 0
  Multiplicity = 1
  Basis Set: AUG-CC-PVTZ
    Blend: AUG-CC-PVTZ
  Basis Set: (AUG-CC-PVTZ AUX)
    Blend: AUG-CC-PVTZ-JKFIT

    Orbital Energies [Eh]
    ---------------------

    Doubly Occupied:

       1A    -92.222756     2A    -20.621882     3A    -20.559584
       4A    -20.559561     5A    -11.304650     6A    -11.284598
       7A    -11.235097     8A     -9.186528     9A     -6.872111
      10A     -6.870705    11A     -6.870412    12A     -1.490257
      13A     -1.385481    14A     -1.344117    15A     -1.072052
      16A     -1.026683    17A     -0.880708    18A     -0.829887
      19A     -0.729763    20A     -0.698837    21A     -0.688921
      22A     -0.654834    23A     -0.623803    24A     -0.607662
      25A     -0.604589    26A     -0.564239    27A     -0.562407
      28A     -0.541750    29A     -0.503401    30A     -0.499236
      31A     -0.493627    32A     -0.477375    33A     -0.467280

  @DF-RHF Final Energy:  -740.48487272092132

   => Energetics <=

    Nuclear Repulsion Energy =            439.9235257082034423
    One-Electron Energy =               -1892.1472067276365578
    Two-Electron Energy =                 711.7388082985117990
    Total Energy =                       -740.4848727209213166
  Basis Set: (AUG-CC-PVTZ AUX)
    Blend: AUG-CC-PVTZ-RI
    Molecular point group: c1

    Geometry (in Angstrom), charge = 0, multiplicity = 1:

       Center              X                  Y                   Z               Mass
    ------------   -----------------  -----------------  -----------------  -----------------
         S           -0.786913174421    -0.128849484242     0.000002472230    31.972071174400
         O            0.696176825579     0.564314515758    -0.000009527770    15.994914619570
         O           -0.988431174421    -0.831311484242     1.265629472230    15.994914619570
         O           -0.988435174421    -0.831341484242    -1.265607527770    15.994914619570
         C            1.778291325579    -0.388495584242    -0.000010527770    12.000000000000
         C           -1.705522174421     1.385827515758    -0.000013527770    12.000000000000
         C            3.067451825579     0.408872515758     0.000005472230    12.000000000000
         H            1.704084825579    -1.027359484242     0.892364472230     1.007825032230
         H            1.704094825579    -1.027343484242    -0.892397527770     1.007825032230
         H           -2.762342174421     1.114616515758    -0.000003527770     1.007825032230
         H           -1.456040174421     1.948214515758     0.898969472230     1.007825032230
         H           -1.456050174421     1.948190515758    -0.899013527770     1.007825032230
         H            3.930062825579    -0.263521484242     0.000002472230     1.007825032230
         H            3.117749825579     1.041407515758    -0.888372527770     1.007825032230
         H            3.117739825579     1.041387515758     0.888396472230     1.007825032230

  Basis Set: AUG-CC-PVTZ
    Blend: AUG-CC-PVTZ
  Basis Set: (AUG-CC-PVTZ AUX)
    Blend: AUG-CC-PVTZ-JKFIT
	 Reference Energy          =    -740.4848727209213166 [Eh]
	 Singles Energy            =      -0.0000000000000000 [Eh]
	 Same-Spin Energy          =      -0.3943066670278103 [Eh]
	 Opposite-Spin Energy      =      -1.2135743896047786 [Eh]
	 Correlation Energy        =      -1.6078810566325887 [Eh]
	 Total Energy              =    -742.0927537775538667 [Eh]

	 ================> DF-SCS-MP2 Energies <==================
	-----------------------------------------------------------
	 SCS Same-Spin Scale       =       0.3333333333333333 [-]
	 SCS Opposite-Spin Scale   =       1.2000000000000000 [-]
	 SCS Same-Spin Energy      =      -0.1314355556759367 [Eh]
	 SCS Opposite-Spin Energy  =      -1.4562892675257342 [Eh]
	 SCS Correlation Energy    =      -1.5877248232016710 [Eh]
	 SCS Total Energy          =    -742.0725975441230275 [Eh]
	-----------------------------------------------------------

  Dipole Moment: [D]
     X:     1.3219      Y:     2.8951      Z:    -0.0000     Total:     3.1827

*** Psi4 exiting successfully. Buy a developer a beer!
