                               Psi4 1.3.2 release

  ==> Input File <==

--------------------------------------------------------------------------
#psi4
#
memory 32 gb

molecule  {
0 1
  S       -0.8476060    -0.1637020     0.0000030
  O        0.7426303     0.6391428    -0.0000142
  O       -1.0489850    -0.8657660     1.2662050
  O       -1.0490000    -0.8658060    -1.2661730
  C        1.7325050    -0.4363530    -0.0000120
  C       -1.7653290     1.3514860    -0.0000140
  C        3.0067930     0.3740820     0.0000060
  H        1.6431710    -1.0620260     0.8923500
  H        1.6431890    -1.0620130    -0.8923850
  H       -2.8222650     1.0809220     0.0000090
  H       -1.5154150     1.9136800     0.8990170
  H       -1.5154440     1.9136410    -0.8990780
  H        3.8691330    -0.2986670     0.0000080
  H        3.0571710     1.0063710    -0.8885170
  H        3.0571560     1.0063550     0.8885430
units angstrom
no_reorient  #important for SAPT in psi4, default
symmetry c1  #important for SAPT in psi4, default
}

set PROPERTIES_ORIGIN ["COM"]
properties('MP2/aug-cc-pvtz', properties = ['dipole'])
--------------------------------------------------------------------------

    Molecular point group: c1
  Charge       = 0
  Multiplicity = 1
  Basis Set: AUG-CC-PVTZ
    Blend: AUG-CC-PVTZ
  Basis Set: (AUG-CC-PVTZ AUX)
    Blend: AUG-CC-PVTZ-JKFIT

    Orbital Energies [Eh]
    ---------------------

    Doubly Occupied:

       1A    -92.226833     2A    -20.618286     3A    -20.572164
       4A    -20.572140     5A    -11.296187     6A    -11.288357
       7A    -11.227179     8A     -9.190950     9A     -6.876220
      10A     -6.874732    11A     -6.874679    12A     -1.473959
      13A     -1.365322    14A     -1.352533    15A     -1.066550
      16A     -1.020491    17A     -0.860190    18A     -0.837909
      19A     -0.720252    20A     -0.686785    21A     -0.684432
      22A     -0.658600    23A     -0.619009    24A     -0.610959
      25A     -0.607671    26A     -0.552211    27A     -0.551019
      28A     -0.541616    29A     -0.506197    30A     -0.503821
      31A     -0.497179    32A     -0.474637    33A     -0.465751

  @DF-RHF Final Energy:  -740.45924670207864

   => Energetics <=

    Nuclear Repulsion Energy =            435.0735002757401162
    One-Electron Energy =               -1882.5158558315565642
    Two-Electron Energy =                 706.9831088537378037
    Total Energy =                       -740.4592467020786444
  Basis Set: (AUG-CC-PVTZ AUX)
    Blend: AUG-CC-PVTZ-RI
    Molecular point group: c1

    Geometry (in Angstrom), charge = 0, multiplicity = 1:

       Center              X                  Y                   Z               Mass
    ------------   -----------------  -----------------  -----------------  -----------------
         S           -0.802321621202    -0.141905721425     0.000002296796    31.972071174400
         O            0.787914678798     0.660939078575    -0.000014903204    15.994914619570
         O           -1.003700621202    -0.843969721425     1.266204296796    15.994914619570
         O           -1.003715621202    -0.844009721425    -1.266173703204    15.994914619570
         C            1.777789378798    -0.414556721425    -0.000012703204    12.000000000000
         C           -1.720044621202     1.373282278575    -0.000014703204    12.000000000000
         C            3.052077378798     0.395878278575     0.000005296796    12.000000000000
         H            1.688455378798    -1.040229721425     0.892349296796     1.007825032230
         H            1.688473378798    -1.040216721425    -0.892385703204     1.007825032230
         H           -2.776980621202     1.102718278575     0.000008296796     1.007825032230
         H           -1.470130621202     1.935476278575     0.899016296796     1.007825032230
         H           -1.470159621202     1.935437278575    -0.899078703204     1.007825032230
         H            3.914417378798    -0.276870721425     0.000007296796     1.007825032230
         H            3.102455378798     1.028167278575    -0.888517703204     1.007825032230
         H            3.102440378798     1.028151278575     0.888542296796     1.007825032230

  Basis Set: AUG-CC-PVTZ
    Blend: AUG-CC-PVTZ
  Basis Set: (AUG-CC-PVTZ AUX)
    Blend: AUG-CC-PVTZ-JKFIT
	 Reference Energy          =    -740.4592467020786444 [Eh]
	 Singles Energy            =      -0.0000000000000000 [Eh]
	 Same-Spin Energy          =      -0.3977462100303880 [Eh]
	 Opposite-Spin Energy      =      -1.2229072208357699 [Eh]
	 Correlation Energy        =      -1.6206534308661578 [Eh]
	 Total Energy              =    -742.0799001329447719 [Eh]

	 ================> DF-SCS-MP2 Energies <==================
	-----------------------------------------------------------
	 SCS Same-Spin Scale       =       0.3333333333333333 [-]
	 SCS Opposite-Spin Scale   =       1.2000000000000000 [-]
	 SCS Same-Spin Energy      =      -0.1325820700101293 [Eh]
	 SCS Opposite-Spin Energy  =      -1.4674886650029237 [Eh]
	 SCS Correlation Energy    =      -1.6000707350130532 [Eh]
	 SCS Total Energy          =    -742.0593174370917495 [Eh]
	-----------------------------------------------------------

  Dipole Moment: [D]
     X:     0.5486      Y:     2.5614      Z:    -0.0001     Total:     2.6195

*** Psi4 exiting successfully. Buy a developer a beer!
