                               Psi4 1.3.2 release

  ==> Input File <==

--------------------------------------------------------------------------
#psi4
#
memory 32 gb

molecule  {
0 1
  S       -0.8476060    -0.1637020     0.0000030
  O        0.5836450     0.6315572    -0.0000172
  O       -1.0489850    -0.8657660     1.2662050
  O       -1.0490000    -0.8658060    -1.2661730
  C        1.7325050    -0.4363530    -0.0000120
  C       -1.7653290     1.3514860    -0.0000140
  C        3.0067930     0.3740820     0.0000060
  H        1.6431710    -1.0620260     0.8923500
  H        1.6431890    -1.0620130    -0.8923850
  H       -2.8222650     1.0809220     0.0000090
  H       -1.5154150     1.9136800     0.8990170
  H       -1.5154440     1.9136410    -0.8990780
  H        3.8691330    -0.2986670     0.0000080
  H        3.0571710     1.0063710    -0.8885170
  H        3.0571560     1.0063550     0.8885430
units angstrom
no_reorient  #important for SAPT in psi4, default
symmetry c1  #important for SAPT in psi4, default
}

set PROPERTIES_ORIGIN ["COM"]
properties('MP2/aug-cc-pvtz', properties = ['dipole'])
--------------------------------------------------------------------------

    Molecular point group: c1
  Charge       = 0
  Multiplicity = 1
  Basis Set: AUG-CC-PVTZ
    Blend: AUG-CC-PVTZ
  Basis Set: (AUG-CC-PVTZ AUX)
    Blend: AUG-CC-PVTZ-JKFIT

    Orbital Energies [Eh]
    ---------------------

    Doubly Occupied:

       1A    -92.216932     2A    -20.621493     3A    -20.558202
       4A    -20.558178     5A    -11.318984     6A    -11.274525
       7A    -11.241144     8A     -9.180806     9A     -6.866450
      10A     -6.864884    11A     -6.864794    12A     -1.479865
      13A     -1.364330    14A     -1.341861    15A     -1.067717
      16A     -1.027205    17A     -0.871497    18A     -0.832212
      19A     -0.715764    20A     -0.689746    21A     -0.683729
      22A     -0.653748    23A     -0.616839    24A     -0.601648
      25A     -0.599822    26A     -0.563253    27A     -0.553073
      28A     -0.544794    29A     -0.510804    30A     -0.510259
      31A     -0.492792    32A     -0.471064    33A     -0.469224

  @DF-RHF Final Energy:  -740.47286489872499

   => Energetics <=

    Nuclear Repulsion Energy =            438.0328907142120443
    One-Electron Energy =               -1888.5562359722014207
    Two-Electron Energy =                 710.0504803592643839
    Total Energy =                       -740.4728648987249926
  Basis Set: (AUG-CC-PVTZ AUX)
    Blend: AUG-CC-PVTZ-RI
    Molecular point group: c1

    Geometry (in Angstrom), charge = 0, multiplicity = 1:

       Center              X                  Y                   Z               Mass
    ------------   -----------------  -----------------  -----------------  -----------------
         S           -0.781817119602    -0.140927398603     0.000002683709    31.972071174400
         O            0.649433880398     0.654331801397    -0.000017516291    15.994914619570
         O           -0.983196119602    -0.842991398603     1.266204683709    15.994914619570
         O           -0.983211119602    -0.843031398603    -1.266173316291    15.994914619570
         C            1.798293880398    -0.413578398603    -0.000012316291    12.000000000000
         C           -1.699540119602     1.374260601397    -0.000014316291    12.000000000000
         C            3.072581880398     0.396856601397     0.000005683709    12.000000000000
         H            1.708959880398    -1.039251398603     0.892349683709     1.007825032230
         H            1.708977880398    -1.039238398603    -0.892385316291     1.007825032230
         H           -2.756476119602     1.103696601397     0.000008683709     1.007825032230
         H           -1.449626119602     1.936454601397     0.899016683709     1.007825032230
         H           -1.449655119602     1.936415601397    -0.899078316291     1.007825032230
         H            3.934921880398    -0.275892398603     0.000007683709     1.007825032230
         H            3.122959880398     1.029145601397    -0.888517316291     1.007825032230
         H            3.122944880398     1.029129601397     0.888542683709     1.007825032230

  Basis Set: AUG-CC-PVTZ
    Blend: AUG-CC-PVTZ
  Basis Set: (AUG-CC-PVTZ AUX)
    Blend: AUG-CC-PVTZ-JKFIT
	 Reference Energy          =    -740.4728648987249926 [Eh]
	 Singles Energy            =      -0.0000000000000000 [Eh]
	 Same-Spin Energy          =      -0.3953570241611147 [Eh]
	 Opposite-Spin Energy      =      -1.2172595049372201 [Eh]
	 Correlation Energy        =      -1.6126165290983350 [Eh]
	 Total Energy              =    -742.0854814278233107 [Eh]

	 ================> DF-SCS-MP2 Energies <==================
	-----------------------------------------------------------
	 SCS Same-Spin Scale       =       0.3333333333333333 [-]
	 SCS Opposite-Spin Scale   =       1.2000000000000000 [-]
	 SCS Same-Spin Energy      =      -0.1317856747203716 [Eh]
	 SCS Opposite-Spin Energy  =      -1.4607114059246642 [Eh]
	 SCS Correlation Energy    =      -1.5924970806450358 [Eh]
	 SCS Total Energy          =    -742.0653619793699818 [Eh]
	-----------------------------------------------------------

  Dipole Moment: [D]
     X:     1.8563      Y:     2.5526      Z:    -0.0001     Total:     3.1562

*** Psi4 exiting successfully. Buy a developer a beer!
