                               Psi4 1.3.2 release

  ==> Input File <==

--------------------------------------------------------------------------
#psi4
#
memory 32 gb

molecule  {
0 1
  S       -0.8476060    -0.1637020     0.0000030
  O        0.6127254     0.5693564    -0.1047546
  O       -1.0489850    -0.8657660     1.2662050
  O       -1.0490000    -0.8658060    -1.2661730
  C        1.7325050    -0.4363530    -0.0000120
  C       -1.7653290     1.3514860    -0.0000140
  C        3.0067930     0.3740820     0.0000060
  H        1.6431710    -1.0620260     0.8923500
  H        1.6431890    -1.0620130    -0.8923850
  H       -2.8222650     1.0809220     0.0000090
  H       -1.5154150     1.9136800     0.8990170
  H       -1.5154440     1.9136410    -0.8990780
  H        3.8691330    -0.2986670     0.0000080
  H        3.0571710     1.0063710    -0.8885170
  H        3.0571560     1.0063550     0.8885430
units angstrom
no_reorient  #important for SAPT in psi4, default
symmetry c1  #important for SAPT in psi4, default
}

set PROPERTIES_ORIGIN ["COM"]
properties('MP2/aug-cc-pvtz', properties = ['dipole'])
--------------------------------------------------------------------------

    Molecular point group: c1
  Charge       = 0
  Multiplicity = 1
  Basis Set: AUG-CC-PVTZ
    Blend: AUG-CC-PVTZ
  Basis Set: (AUG-CC-PVTZ AUX)
    Blend: AUG-CC-PVTZ-JKFIT

    Orbital Energies [Eh]
    ---------------------

    Doubly Occupied:

       1A    -92.219331     2A    -20.620485     3A    -20.563458
       4A    -20.552935     5A    -11.311322     6A    -11.279783
       7A    -11.238174     8A     -9.183164     9A     -6.868762
      10A     -6.867314    11A     -6.867089    12A     -1.483655
      13A     -1.373260    14A     -1.341702    15A     -1.069471
      16A     -1.028007    17A     -0.875125    18A     -0.831333
      19A     -0.722180    20A     -0.693353    21A     -0.685888
      22A     -0.654041    23A     -0.619506    24A     -0.604644
      25A     -0.601165    26A     -0.564082    27A     -0.556540
      28A     -0.545237    29A     -0.509281    30A     -0.503752
      31A     -0.493117    32A     -0.473497    33A     -0.467343

  @DF-RHF Final Energy:  -740.47930790718647

   => Energetics <=

    Nuclear Repulsion Energy =            438.8518740570904129
    One-Electron Energy =               -1890.1263685713372524
    Two-Electron Energy =                 710.7951866070602591
    Total Energy =                       -740.4793079071864668
  Basis Set: (AUG-CC-PVTZ AUX)
    Blend: AUG-CC-PVTZ-RI
    Molecular point group: c1

    Geometry (in Angstrom), charge = 0, multiplicity = 1:

       Center              X                  Y                   Z               Mass
    ------------   -----------------  -----------------  -----------------  -----------------
         S           -0.785567649420    -0.132905295911     0.013510776507    31.972071174400
         O            0.674763750580     0.600153104089    -0.091246823493    15.994914619570
         O           -0.986946649420    -0.834969295911     1.279712776507    15.994914619570
         O           -0.986961649420    -0.835009295911    -1.252665223493    15.994914619570
         C            1.794543350580    -0.405556295911     0.013495776507    12.000000000000
         C           -1.703290649420     1.382282704089     0.013493776507    12.000000000000
         C            3.068831350580     0.404878704089     0.013513776507    12.000000000000
         H            1.705209350580    -1.031229295911     0.905857776507     1.007825032230
         H            1.705227350580    -1.031216295911    -0.878877223493     1.007825032230
         H           -2.760226649420     1.111718704089     0.013516776507     1.007825032230
         H           -1.453376649420     1.944476704089     0.912524776507     1.007825032230
         H           -1.453405649420     1.944437704089    -0.885570223493     1.007825032230
         H            3.931171350580    -0.267870295911     0.013515776507     1.007825032230
         H            3.119209350580     1.037167704089    -0.875009223493     1.007825032230
         H            3.119194350580     1.037151704089     0.902050776507     1.007825032230

  Basis Set: AUG-CC-PVTZ
    Blend: AUG-CC-PVTZ
  Basis Set: (AUG-CC-PVTZ AUX)
    Blend: AUG-CC-PVTZ-JKFIT
	 Reference Energy          =    -740.4793079071864668 [Eh]
	 Singles Energy            =      -0.0000000000000000 [Eh]
	 Same-Spin Energy          =      -0.3947831948242834 [Eh]
	 Opposite-Spin Energy      =      -1.2153241716679952 [Eh]
	 Correlation Energy        =      -1.6101073664922785 [Eh]
	 Total Energy              =    -742.0894152736786964 [Eh]

	 ================> DF-SCS-MP2 Energies <==================
	-----------------------------------------------------------
	 SCS Same-Spin Scale       =       0.3333333333333333 [-]
	 SCS Opposite-Spin Scale   =       1.2000000000000000 [-]
	 SCS Same-Spin Energy      =      -0.1315943982747611 [Eh]
	 SCS Opposite-Spin Energy  =      -1.4583890060015943 [Eh]
	 SCS Correlation Energy    =      -1.5899834042763554 [Eh]
	 SCS Total Energy          =    -742.0692913114628482 [Eh]
	-----------------------------------------------------------

  Dipole Moment: [D]
     X:     1.6138      Y:     2.7342      Z:     0.2211     Total:     3.1827

*** Psi4 exiting successfully. Buy a developer a beer!
