                               Psi4 1.3.2 release

  ==> Input File <==

--------------------------------------------------------------------------
#psi4
#
memory 32 gb

molecule  {
0 1
  S       -0.8709047    -0.1115153     0.0000025
  O        0.6356330     0.5297810    -0.0000160
  O       -1.0489850    -0.8657660     1.2662050
  O       -1.0490000    -0.8658060    -1.2661730
  C        1.7325050    -0.4363530    -0.0000120
  C       -1.7653290     1.3514860    -0.0000140
  C        3.0067930     0.3740820     0.0000060
  H        1.6431710    -1.0620260     0.8923500
  H        1.6431890    -1.0620130    -0.8923850
  H       -2.8222650     1.0809220     0.0000090
  H       -1.5154150     1.9136800     0.8990170
  H       -1.5154440     1.9136410    -0.8990780
  H        3.8691330    -0.2986670     0.0000080
  H        3.0571710     1.0063710    -0.8885170
  H        3.0571560     1.0063550     0.8885430
units angstrom
no_reorient  #important for SAPT in psi4, default
symmetry c1  #important for SAPT in psi4, default
}

set PROPERTIES_ORIGIN ["COM"]
properties('MP2/aug-cc-pvtz', properties = ['dipole'])
--------------------------------------------------------------------------

    Molecular point group: c1
  Charge       = 0
  Multiplicity = 1
  Basis Set: AUG-CC-PVTZ
    Blend: AUG-CC-PVTZ
  Basis Set: (AUG-CC-PVTZ AUX)
    Blend: AUG-CC-PVTZ-JKFIT

    Orbital Energies [Eh]
    ---------------------

    Doubly Occupied:

       1A    -92.223491     2A    -20.618434     3A    -20.553961
       4A    -20.553938     5A    -11.304526     6A    -11.290241
       7A    -11.235157     8A     -9.187423     9A     -6.872926
      10A     -6.871675    11A     -6.871030    12A     -1.478156
      13A     -1.372128    14A     -1.325663    15A     -1.088265
      16A     -1.034850    17A     -0.880800    18A     -0.828250
      19A     -0.728444    20A     -0.696683    21A     -0.686136
      22A     -0.658249    23A     -0.626976    24A     -0.606086
      25A     -0.603005    26A     -0.560225    27A     -0.560111
      28A     -0.540476    29A     -0.499917    30A     -0.497012
      31A     -0.484074    32A     -0.480129    33A     -0.459552

  @DF-RHF Final Energy:  -740.47829837171844

   => Energetics <=

    Nuclear Repulsion Energy =            438.9242772795572591
    One-Electron Energy =               -1890.2491710339888868
    Two-Electron Energy =                 710.8465953827133035
    Total Energy =                       -740.4782983717184379
  Basis Set: (AUG-CC-PVTZ AUX)
    Blend: AUG-CC-PVTZ-RI
    Molecular point group: c1

    Geometry (in Angstrom), charge = 0, multiplicity = 1:

       Center              X                  Y                   Z               Mass
    ------------   -----------------  -----------------  -----------------  -----------------
         S           -0.805814387051    -0.089068189725     0.000002157843    31.972071174400
         O            0.700723312949     0.552228110275    -0.000016342157    15.994914619570
         O           -0.983894687051    -0.843318889725     1.266204657843    15.994914619570
         O           -0.983909687051    -0.843358889725    -1.266173342157    15.994914619570
         C            1.797595312949    -0.413905889725    -0.000012342157    12.000000000000
         C           -1.700238687051     1.373933110275    -0.000014342157    12.000000000000
         C            3.071883312949     0.396529110275     0.000005657843    12.000000000000
         H            1.708261312949    -1.039578889725     0.892349657843     1.007825032230
         H            1.708279312949    -1.039565889725    -0.892385342157     1.007825032230
         H           -2.757174687051     1.103369110275     0.000008657843     1.007825032230
         H           -1.450324687051     1.936127110275     0.899016657843     1.007825032230
         H           -1.450353687051     1.936088110275    -0.899078342157     1.007825032230
         H            3.934223312949    -0.276219889725     0.000007657843     1.007825032230
         H            3.122261312949     1.028818110275    -0.888517342157     1.007825032230
         H            3.122246312949     1.028802110275     0.888542657843     1.007825032230

  Basis Set: AUG-CC-PVTZ
    Blend: AUG-CC-PVTZ
  Basis Set: (AUG-CC-PVTZ AUX)
    Blend: AUG-CC-PVTZ-JKFIT
	 Reference Energy          =    -740.4782983717184379 [Eh]
	 Singles Energy            =      -0.0000000000000000 [Eh]
	 Same-Spin Energy          =      -0.3952404041347438 [Eh]
	 Opposite-Spin Energy      =      -1.2150125906240699 [Eh]
	 Correlation Energy        =      -1.6102529947588136 [Eh]
	 Total Energy              =    -742.0885513664773043 [Eh]

	 ================> DF-SCS-MP2 Energies <==================
	-----------------------------------------------------------
	 SCS Same-Spin Scale       =       0.3333333333333333 [-]
	 SCS Opposite-Spin Scale   =       1.2000000000000000 [-]
	 SCS Same-Spin Energy      =      -0.1317468013782479 [Eh]
	 SCS Opposite-Spin Energy  =      -1.4580151087488837 [Eh]
	 SCS Correlation Energy    =      -1.5897619101271316 [Eh]
	 SCS Total Energy          =    -742.0680602818455327 [Eh]
	-----------------------------------------------------------

  Dipole Moment: [D]
     X:     1.2399      Y:     3.3073      Z:    -0.0001     Total:     3.5321

*** Psi4 exiting successfully. Buy a developer a beer!
