                               Psi4 1.3.2 release

  ==> Input File <==

--------------------------------------------------------------------------
#psi4
#
memory 32 gb

molecule  {
0 1
  S       -0.8476060    -0.1637020     0.0000030
  O        0.6931085     0.5829191    -0.1314745
  O       -1.0489850    -0.8657660     1.2662050
  O       -1.0490000    -0.8658060    -1.2661730
  C        1.7325050    -0.4363530    -0.0000120
  C       -1.7653290     1.3514860    -0.0000140
  C        3.0067930     0.3740820     0.0000060
  H        1.6431710    -1.0620260     0.8923500
  H        1.6431890    -1.0620130    -0.8923850
  H       -2.8222650     1.0809220     0.0000090
  H       -1.5154150     1.9136800     0.8990170
  H       -1.5154440     1.9136410    -0.8990780
  H        3.8691330    -0.2986670     0.0000080
  H        3.0571710     1.0063710    -0.8885170
  H        3.0571560     1.0063550     0.8885430
units angstrom
no_reorient  #important for SAPT in psi4, default
symmetry c1  #important for SAPT in psi4, default
}

set PROPERTIES_ORIGIN ["COM"]
properties('MP2/aug-cc-pvtz', properties = ['dipole'])
--------------------------------------------------------------------------

    Molecular point group: c1
  Charge       = 0
  Multiplicity = 1
  Basis Set: AUG-CC-PVTZ
    Blend: AUG-CC-PVTZ
  Basis Set: (AUG-CC-PVTZ AUX)
    Blend: AUG-CC-PVTZ-JKFIT

    Orbital Energies [Eh]
    ---------------------

    Doubly Occupied:

       1A    -92.224886     2A    -20.618522     3A    -20.572278
       4A    -20.560157     5A    -11.299685     6A    -11.286643
       7A    -11.230835     8A     -9.188759     9A     -6.874142
      10A     -6.872736    11A     -6.872556    12A     -1.477681
      13A     -1.373322    14A     -1.347474    15A     -1.068083
      16A     -1.024309    17A     -0.867983    18A     -0.834233
      19A     -0.723695    20A     -0.690268    21A     -0.685121
      22A     -0.656977    23A     -0.620774    24A     -0.609013
      25A     -0.605602    26A     -0.558452    27A     -0.554322
      28A     -0.542600    29A     -0.505902    30A     -0.501758
      31A     -0.495159    32A     -0.472345    33A     -0.469402

  @DF-RHF Final Energy:  -740.47016323747448

   => Energetics <=

    Nuclear Repulsion Energy =            436.9812442239786492
    One-Electron Energy =               -1886.3314741856690944
    Two-Electron Energy =                 708.8800667242160216
    Total Energy =                       -740.4701632374744804
  Basis Set: (AUG-CC-PVTZ AUX)
    Blend: AUG-CC-PVTZ-RI
    Molecular point group: c1

    Geometry (in Angstrom), charge = 0, multiplicity = 1:

       Center              X                  Y                   Z               Mass
    ------------   -----------------  -----------------  -----------------  -----------------
         S           -0.795934742495    -0.134654491616     0.016956870154    31.972071174400
         O            0.744779757505     0.611966608384    -0.114520629846    15.994914619570
         O           -0.997313742495    -0.836718491616     1.283158870154    15.994914619570
         O           -0.997328742495    -0.836758491616    -1.249219129846    15.994914619570
         C            1.784176257505    -0.407305491616     0.016941870154    12.000000000000
         C           -1.713657742495     1.380533508384     0.016939870154    12.000000000000
         C            3.058464257505     0.403129508384     0.016959870154    12.000000000000
         H            1.694842257505    -1.032978491616     0.909303870154     1.007825032230
         H            1.694860257505    -1.032965491616    -0.875431129846     1.007825032230
         H           -2.770593742495     1.109969508384     0.016962870154     1.007825032230
         H           -1.463743742495     1.942727508384     0.915970870154     1.007825032230
         H           -1.463772742495     1.942688508384    -0.882124129846     1.007825032230
         H            3.920804257505    -0.269619491616     0.016961870154     1.007825032230
         H            3.108842257505     1.035418508384    -0.871563129846     1.007825032230
         H            3.108827257505     1.035402508384     0.905496870154     1.007825032230

  Basis Set: AUG-CC-PVTZ
    Blend: AUG-CC-PVTZ
  Basis Set: (AUG-CC-PVTZ AUX)
    Blend: AUG-CC-PVTZ-JKFIT
	 Reference Energy          =    -740.4701632374744804 [Eh]
	 Singles Energy            =      -0.0000000000000000 [Eh]
	 Same-Spin Energy          =      -0.3962391893556091 [Eh]
	 Opposite-Spin Energy      =      -1.2188659974792162 [Eh]
	 Correlation Energy        =      -1.6151051868348252 [Eh]
	 Total Energy              =    -742.0852684243093336 [Eh]

	 ================> DF-SCS-MP2 Energies <==================
	-----------------------------------------------------------
	 SCS Same-Spin Scale       =       0.3333333333333333 [-]
	 SCS Opposite-Spin Scale   =       1.2000000000000000 [-]
	 SCS Same-Spin Energy      =      -0.1320797297852030 [Eh]
	 SCS Opposite-Spin Energy  =      -1.4626391969750594 [Eh]
	 SCS Correlation Energy    =      -1.5947189267602624 [Eh]
	 SCS Total Energy          =    -742.0648821642347457 [Eh]
	-----------------------------------------------------------

  Dipole Moment: [D]
     X:     0.9157      Y:     2.7093      Z:     0.2752     Total:     2.8731

*** Psi4 exiting successfully. Buy a developer a beer!
