                               Psi4 1.3.2 release

  ==> Input File <==

--------------------------------------------------------------------------
#psi4
#
memory 32 gb

molecule  {
0 1
  O       -2.4925410    -0.6205970    -0.1535330
  O       -0.0069960    -1.4050930    -0.3804930
  N        0.8845720     0.3685180     0.7343320
  C       -1.5404070     0.3017530     0.3325960
  C        2.2569670    -0.1011270     0.6035390
  C       -0.1490540    -0.3186880     0.1981930
  C       -1.6458490     1.6048030    -0.4506110
  C        2.8658230     0.2522360    -0.7461750
  H       -1.7322500     0.4923850     1.3997900
  H        2.8336360     0.3321260     1.4253690
  H        2.2399750    -1.1846720     0.7384180
  H        0.7415461     1.4160848     0.8789980
  H       -1.3913480     1.4204780    -1.4971700
  H       -0.9867360     2.3841060    -0.0548340
  H       -2.6752710     1.9656290    -0.4028710
  H        2.2847230    -0.2144000    -1.5438430
  H        2.8717410     1.3343490    -0.8997070
  H        3.8959980    -0.1107530    -0.8084670
  H       -1.9544520    -1.3731060    -0.4835650
units angstrom
no_reorient  #important for SAPT in psi4, default
symmetry c1  #important for SAPT in psi4, default
}

set PROPERTIES_ORIGIN ["COM"]
properties('MP2/aug-cc-pvtz', properties = ['dipole'])
--------------------------------------------------------------------------

    Molecular point group: c1
  Charge       = 0
  Multiplicity = 1
  Basis Set: AUG-CC-PVTZ
    Blend: AUG-CC-PVTZ
  Basis Set: (AUG-CC-PVTZ AUX)
    Blend: AUG-CC-PVTZ-JKFIT

    Orbital Energies [Eh]
    ---------------------

    Doubly Occupied:

       1A    -20.548897     2A    -20.535367     3A    -15.602285
       4A    -11.359380     5A    -11.298272     6A    -11.273030
       7A    -11.233338     8A    -11.224360     9A     -1.399199
      10A     -1.347121    11A     -1.241149    12A     -1.053418
      13A     -1.012340    14A     -0.902962    15A     -0.849750
      16A     -0.780271    17A     -0.744950    18A     -0.676267
      19A     -0.645215    20A     -0.640609    21A     -0.611904
      22A     -0.599993    23A     -0.577283    24A     -0.565677
      25A     -0.542784    26A     -0.535264    27A     -0.521014
      28A     -0.514341    29A     -0.503356    30A     -0.446173
      31A     -0.437401    32A     -0.404414

  @DF-RHF Final Energy:  -400.08225051961676

   => Energetics <=

    Nuclear Repulsion Energy =            400.5138397933326928
    One-Electron Energy =               -1339.9366132013071820
    Two-Electron Energy =                 539.3405228883577820
    Total Energy =                       -400.0822505196167640
  Basis Set: (AUG-CC-PVTZ AUX)
    Blend: AUG-CC-PVTZ-RI
    Molecular point group: c1

    Geometry (in Angstrom), charge = 0, multiplicity = 1:

       Center              X                  Y                   Z               Mass
    ------------   -----------------  -----------------  -----------------  -----------------
         O           -2.492815316928    -0.621794176170    -0.151261561909    15.994914619570
         O           -0.007270316928    -1.406290176170    -0.378221561909    15.994914619570
         N            0.884297683072     0.367320823830     0.736603438091    14.003074004430
         C           -1.540681316928     0.300555823830     0.334867438091    12.000000000000
         C            2.256692683072    -0.102324176170     0.605810438091    12.000000000000
         C           -0.149328316928    -0.319885176170     0.200464438091    12.000000000000
         C           -1.646123316928     1.603605823830    -0.448339561909    12.000000000000
         C            2.865548683072     0.251038823830    -0.743903561909    12.000000000000
         H           -1.732524316928     0.491187823830     1.402061438091     1.007825032230
         H            2.833361683072     0.330928823830     1.427640438091     1.007825032230
         H            2.239700683072    -1.185869176170     0.740689438091     1.007825032230
         H            0.741271783072     1.414887623830     0.881269438091     1.007825032230
         H           -1.391622316928     1.419280823830    -1.494898561909     1.007825032230
         H           -0.987010316928     2.382908823830    -0.052562561909     1.007825032230
         H           -2.675545316928     1.964431823830    -0.400599561909     1.007825032230
         H            2.284448683072    -0.215597176170    -1.541571561909     1.007825032230
         H            2.871466683072     1.333151823830    -0.897435561909     1.007825032230
         H            3.895723683072    -0.111950176170    -0.806195561909     1.007825032230
         H           -1.954726316928    -1.374303176170    -0.481293561909     1.007825032230

  Basis Set: AUG-CC-PVTZ
    Blend: AUG-CC-PVTZ
  Basis Set: (AUG-CC-PVTZ AUX)
    Blend: AUG-CC-PVTZ-JKFIT
	 Reference Energy          =    -400.0822505196167640 [Eh]
	 Singles Energy            =      -0.0000000000000000 [Eh]
	 Same-Spin Energy          =      -0.4025650395217035 [Eh]
	 Opposite-Spin Energy      =      -1.3088387104006094 [Eh]
	 Correlation Energy        =      -1.7114037499223129 [Eh]
	 Total Energy              =    -401.7936542695391040 [Eh]

	 ================> DF-SCS-MP2 Energies <==================
	-----------------------------------------------------------
	 SCS Same-Spin Scale       =       0.3333333333333333 [-]
	 SCS Opposite-Spin Scale   =       1.2000000000000000 [-]
	 SCS Same-Spin Energy      =      -0.1341883465072345 [Eh]
	 SCS Opposite-Spin Energy  =      -1.5706064524807313 [Eh]
	 SCS Correlation Energy    =      -1.7047947989879657 [Eh]
	 SCS Total Energy          =    -401.7870453186047257 [Eh]
	-----------------------------------------------------------

  Dipole Moment: [D]
     X:     2.8910      Y:     3.2117      Z:     1.1708     Total:     4.4770

*** Psi4 exiting successfully. Buy a developer a beer!
