                               Psi4 1.3.2 release

  ==> Input File <==

--------------------------------------------------------------------------
#psi4
#
memory 32 gb

molecule  {
0 1
  O       -2.4925410    -0.6205970    -0.1535330
  O       -0.0069960    -1.4050930    -0.3804930
  N        0.8845720     0.3685180     0.7343320
  C       -1.5534600     0.2537779     0.4193601
  C        2.2569670    -0.1011270     0.6035390
  C       -0.1490540    -0.3186880     0.1981930
  C       -1.6458490     1.6048030    -0.4506110
  C        2.8658230     0.2522360    -0.7461750
  H       -1.7322500     0.4923850     1.3997900
  H        2.8336360     0.3321260     1.4253690
  H        2.2399750    -1.1846720     0.7384180
  H        0.7096630     1.2770080     1.1428940
  H       -1.3913480     1.4204780    -1.4971700
  H       -0.9867360     2.3841060    -0.0548340
  H       -2.6752710     1.9656290    -0.4028710
  H        2.2847230    -0.2144000    -1.5438430
  H        2.8717410     1.3343490    -0.8997070
  H        3.8959980    -0.1107530    -0.8084670
  H       -1.9544520    -1.3731060    -0.4835650
units angstrom
no_reorient  #important for SAPT in psi4, default
symmetry c1  #important for SAPT in psi4, default
}

set PROPERTIES_ORIGIN ["COM"]
properties('MP2/aug-cc-pvtz', properties = ['dipole'])
--------------------------------------------------------------------------

    Molecular point group: c1
  Charge       = 0
  Multiplicity = 1
  Basis Set: AUG-CC-PVTZ
    Blend: AUG-CC-PVTZ
  Basis Set: (AUG-CC-PVTZ AUX)
    Blend: AUG-CC-PVTZ-JKFIT

    Orbital Energies [Eh]
    ---------------------

    Doubly Occupied:

       1A    -20.549622     2A    -20.533132     3A    -15.598485
       4A    -11.359482     5A    -11.296468     6A    -11.273810
       7A    -11.232593     8A    -11.222825     9A     -1.398534
      10A     -1.348530    11A     -1.245461    12A     -1.046997
      13A     -1.003918    14A     -0.901982    15A     -0.854124
      16A     -0.795565    17A     -0.748618    18A     -0.680459
      19A     -0.651980    20A     -0.637860    21A     -0.613276
      22A     -0.597247    23A     -0.569430    24A     -0.558745
      25A     -0.545777    26A     -0.539777    27A     -0.520932
      28A     -0.514309    29A     -0.501087    30A     -0.443908
      31A     -0.431203    32A     -0.403214

  @DF-RHF Final Energy:  -400.07891130719929

   => Energetics <=

    Nuclear Repulsion Energy =            400.0237821991573810
    One-Electron Energy =               -1338.9666869626489643
    Two-Electron Energy =                 538.8639934562922917
    Total Energy =                       -400.0789113071992915
  Basis Set: (AUG-CC-PVTZ AUX)
    Blend: AUG-CC-PVTZ-RI
    Molecular point group: c1

    Geometry (in Angstrom), charge = 0, multiplicity = 1:

       Center              X                  Y                   Z               Mass
    ------------   -----------------  -----------------  -----------------  -----------------
         O           -2.491202998572    -0.615679788353    -0.162426078463    15.994914619570
         O           -0.005657998572    -1.400175788353    -0.389386078463    15.994914619570
         N            0.885910001428     0.373435211647     0.725438921537    14.003074004430
         C           -1.552121998572     0.258695111647     0.410467021537    12.000000000000
         C            2.258305001428    -0.096209788353     0.594645921537    12.000000000000
         C           -0.147715998572    -0.313770788353     0.189299921537    12.000000000000
         C           -1.644510998572     1.609720211647    -0.459504078463    12.000000000000
         C            2.867161001428     0.257153211647    -0.755068078463    12.000000000000
         H           -1.730911998572     0.497302211647     1.390896921537     1.007825032230
         H            2.834974001428     0.337043211647     1.416475921537     1.007825032230
         H            2.241313001428    -1.179754788353     0.729524921537     1.007825032230
         H            0.711001001428     1.281925211647     1.134000921537     1.007825032230
         H           -1.390009998572     1.425395211647    -1.506063078463     1.007825032230
         H           -0.985397998572     2.389023211647    -0.063727078463     1.007825032230
         H           -2.673932998572     1.970546211647    -0.411764078463     1.007825032230
         H            2.286061001428    -0.209482788353    -1.552736078463     1.007825032230
         H            2.873079001428     1.339266211647    -0.908600078463     1.007825032230
         H            3.897336001428    -0.105835788353    -0.817360078463     1.007825032230
         H           -1.953113998572    -1.368188788353    -0.492458078463     1.007825032230

  Basis Set: AUG-CC-PVTZ
    Blend: AUG-CC-PVTZ
  Basis Set: (AUG-CC-PVTZ AUX)
    Blend: AUG-CC-PVTZ-JKFIT
	 Reference Energy          =    -400.0789113071992915 [Eh]
	 Singles Energy            =      -0.0000000000000000 [Eh]
	 Same-Spin Energy          =      -0.4018884188888985 [Eh]
	 Opposite-Spin Energy      =      -1.3076927473527826 [Eh]
	 Correlation Energy        =      -1.7095811662416811 [Eh]
	 Total Energy              =    -401.7884924734409537 [Eh]

	 ================> DF-SCS-MP2 Energies <==================
	-----------------------------------------------------------
	 SCS Same-Spin Scale       =       0.3333333333333333 [-]
	 SCS Opposite-Spin Scale   =       1.2000000000000000 [-]
	 SCS Same-Spin Energy      =      -0.1339628062962995 [Eh]
	 SCS Opposite-Spin Energy  =      -1.5692312968233391 [Eh]
	 SCS Correlation Energy    =      -1.7031941031196385 [Eh]
	 SCS Total Energy          =    -401.7821054103189340 [Eh]
	-----------------------------------------------------------

  Dipole Moment: [D]
     X:     2.8495      Y:     3.0396      Z:     1.6871     Total:     4.4950

*** Psi4 exiting successfully. Buy a developer a beer!
