                               Psi4 1.3.2 release

  ==> Input File <==

--------------------------------------------------------------------------
#psi4
#
memory 32 gb

molecule  {
0 1
  O       -2.4925410    -0.6205970    -0.1535330
  O       -0.0069960    -1.4050930    -0.3804930
  N        0.8845720     0.3685180     0.7343320
  C       -1.5469335     0.2777654     0.3759781
  C        2.2569670    -0.1011270     0.6035390
  C       -0.1490540    -0.3186880     0.1981930
  C       -1.6458490     1.6048030    -0.4506110
  C        2.8658230     0.2522360    -0.7461750
  H       -1.7322500     0.4923850     1.3997900
  H        2.8336360     0.3321260     1.4253690
  H        2.2399750    -1.1846720     0.7384180
  H        0.7096630     1.2770080     1.1428940
  H       -1.3913480     1.4204780    -1.4971700
  H       -0.9867360     2.3841060    -0.0548340
  H       -2.6752710     1.9656290    -0.4028710
  H        2.2847230    -0.2144000    -1.5438430
  H        2.8717410     1.3343490    -0.8997070
  H        3.8959980    -0.1107530    -0.8084670
  H       -1.9544520    -1.3731060    -0.4835650
units angstrom
no_reorient  #important for SAPT in psi4, default
symmetry c1  #important for SAPT in psi4, default
}

set PROPERTIES_ORIGIN ["COM"]
properties('MP2/aug-cc-pvtz', properties = ['dipole'])
--------------------------------------------------------------------------

    Molecular point group: c1
  Charge       = 0
  Multiplicity = 1
  Basis Set: AUG-CC-PVTZ
    Blend: AUG-CC-PVTZ
  Basis Set: (AUG-CC-PVTZ AUX)
    Blend: AUG-CC-PVTZ-JKFIT

    Orbital Energies [Eh]
    ---------------------

    Doubly Occupied:

       1A    -20.548971     2A    -20.533250     3A    -15.598679
       4A    -11.359062     5A    -11.297059     6A    -11.273917
       7A    -11.231861     8A    -11.223055     9A     -1.398480
      10A     -1.347739    11A     -1.245643    12A     -1.049381
      13A     -1.008225    14A     -0.902399    15A     -0.851502
      16A     -0.794786    17A     -0.746749    18A     -0.678301
      19A     -0.649975    20A     -0.639527    21A     -0.613251
      22A     -0.597422    23A     -0.572789    24A     -0.561072
      25A     -0.544274    26A     -0.537151    27A     -0.520641
      28A     -0.515070    29A     -0.501688    30A     -0.444396
      31A     -0.435185    32A     -0.403517

  @DF-RHF Final Energy:  -400.08588616911328

   => Energetics <=

    Nuclear Repulsion Energy =            400.3377389708020928
    One-Electron Energy =               -1339.5972127522245501
    Two-Electron Energy =                 539.1735876123091202
    Total Energy =                       -400.0858861691133370
  Basis Set: (AUG-CC-PVTZ AUX)
    Blend: AUG-CC-PVTZ-RI
    Molecular point group: c1

    Geometry (in Angstrom), charge = 0, multiplicity = 1:

       Center              X                  Y                   Z               Mass
    ------------   -----------------  -----------------  -----------------  -----------------
         O           -2.491871931637    -0.618138385135    -0.157979644045    15.994914619570
         O           -0.006326931637    -1.402634385135    -0.384939644045    15.994914619570
         N            0.885241068363     0.370976614865     0.729885355955    14.003074004430
         C           -1.546264431637     0.280224014865     0.371531455955    12.000000000000
         C            2.257636068363    -0.098668385135     0.599092355955    12.000000000000
         C           -0.148384931637    -0.316229385135     0.193746355955    12.000000000000
         C           -1.645179931637     1.607261614865    -0.455057644045    12.000000000000
         C            2.866492068363     0.254694614865    -0.750621644045    12.000000000000
         H           -1.731580931637     0.494843614865     1.395343355955     1.007825032230
         H            2.834305068363     0.334584614865     1.420922355955     1.007825032230
         H            2.240644068363    -1.182213385135     0.733971355955     1.007825032230
         H            0.710332068363     1.279466614865     1.138447355955     1.007825032230
         H           -1.390678931637     1.422936614865    -1.501616644045     1.007825032230
         H           -0.986066931637     2.386564614865    -0.059280644045     1.007825032230
         H           -2.674601931637     1.968087614865    -0.407317644045     1.007825032230
         H            2.285392068363    -0.211941385135    -1.548289644045     1.007825032230
         H            2.872410068363     1.336807614865    -0.904153644045     1.007825032230
         H            3.896667068363    -0.108294385135    -0.812913644045     1.007825032230
         H           -1.953782931637    -1.370647385135    -0.488011644045     1.007825032230

  Basis Set: AUG-CC-PVTZ
    Blend: AUG-CC-PVTZ
  Basis Set: (AUG-CC-PVTZ AUX)
    Blend: AUG-CC-PVTZ-JKFIT
	 Reference Energy          =    -400.0858861691132802 [Eh]
	 Singles Energy            =      -0.0000000000000000 [Eh]
	 Same-Spin Energy          =      -0.4019318347432493 [Eh]
	 Opposite-Spin Energy      =      -1.3075176604769245 [Eh]
	 Correlation Energy        =      -1.7094494952201740 [Eh]
	 Total Energy              =    -401.7953356643334359 [Eh]

	 ================> DF-SCS-MP2 Energies <==================
	-----------------------------------------------------------
	 SCS Same-Spin Scale       =       0.3333333333333333 [-]
	 SCS Opposite-Spin Scale   =       1.2000000000000000 [-]
	 SCS Same-Spin Energy      =      -0.1339772782477498 [Eh]
	 SCS Opposite-Spin Energy  =      -1.5690211925723094 [Eh]
	 SCS Correlation Energy    =      -1.7029984708200592 [Eh]
	 SCS Total Energy          =    -401.7888846399333147 [Eh]
	-----------------------------------------------------------

  Dipole Moment: [D]
     X:     2.8772      Y:     3.0939      Z:     1.6267     Total:     4.5273

*** Psi4 exiting successfully. Buy a developer a beer!
