                               Psi4 1.3.2 release

  ==> Input File <==

--------------------------------------------------------------------------
#psi4
#
memory 32 gb

molecule  {
0 1
  O       -2.4925410    -0.6205970    -0.1535330
  O       -0.0069960    -1.4050930    -0.3804930
  N        0.8845720     0.3685180     0.7343320
  C       -1.5730395     0.1818152     0.5495063
  C        2.2569670    -0.1011270     0.6035390
  C       -0.1490540    -0.3186880     0.1981930
  C       -1.6458490     1.6048030    -0.4506110
  C        2.8658230     0.2522360    -0.7461750
  H       -1.7322500     0.4923850     1.3997900
  H        2.8336360     0.3321260     1.4253690
  H        2.2399750    -1.1846720     0.7384180
  H        0.7096630     1.2770080     1.1428940
  H       -1.3913480     1.4204780    -1.4971700
  H       -0.9867360     2.3841060    -0.0548340
  H       -2.6752710     1.9656290    -0.4028710
  H        2.2847230    -0.2144000    -1.5438430
  H        2.8717410     1.3343490    -0.8997070
  H        3.8959980    -0.1107530    -0.8084670
  H       -1.9544520    -1.3731060    -0.4835650
units angstrom
no_reorient  #important for SAPT in psi4, default
symmetry c1  #important for SAPT in psi4, default
}

set PROPERTIES_ORIGIN ["COM"]
properties('MP2/aug-cc-pvtz', properties = ['dipole'])
--------------------------------------------------------------------------

    Molecular point group: c1
  Charge       = 0
  Multiplicity = 1
  Basis Set: AUG-CC-PVTZ
    Blend: AUG-CC-PVTZ
  Basis Set: (AUG-CC-PVTZ AUX)
    Blend: AUG-CC-PVTZ-JKFIT

    Orbital Energies [Eh]
    ---------------------

    Doubly Occupied:

       1A    -20.552937     2A    -20.532925     3A    -15.597596
       4A    -11.362969     5A    -11.298038     6A    -11.273419
       7A    -11.234758     8A    -11.222092     9A     -1.398004
      10A     -1.348936    11A     -1.244780    12A     -1.043138
      13A     -0.995148    14A     -0.901026    15A     -0.863378
      16A     -0.798324    17A     -0.753538    18A     -0.688751
      19A     -0.656113    20A     -0.634289    21A     -0.613603
      22A     -0.597338    23A     -0.565231    24A     -0.553204
      25A     -0.548250    26A     -0.544000    27A     -0.522558
      28A     -0.510843    29A     -0.498728    30A     -0.443331
      31A     -0.413073    32A     -0.397063

  @DF-RHF Final Energy:  -400.02756352747417

   => Energetics <=

    Nuclear Repulsion Energy =            398.9206684209343621
    One-Electron Energy =               -1336.6816997400042055
    Two-Electron Energy =                 537.7334677915956718
    Total Energy =                       -400.0275635274741717
  Basis Set: (AUG-CC-PVTZ AUX)
    Blend: AUG-CC-PVTZ-RI
    Molecular point group: c1

    Geometry (in Angstrom), charge = 0, multiplicity = 1:

       Center              X                  Y                   Z               Mass
    ------------   -----------------  -----------------  -----------------  -----------------
         O           -2.489196199377    -0.608303977508    -0.175765402214    15.994914619570
         O           -0.003651199377    -1.392799977508    -0.402725402214    15.994914619570
         N            0.887916800623     0.380811022492     0.712099597786    14.003074004430
         C           -1.569694699377     0.194108222492     0.527273897786    12.000000000000
         C            2.260311800623    -0.088833977508     0.581306597786    12.000000000000
         C           -0.145709199377    -0.306394977508     0.175960597786    12.000000000000
         C           -1.642504199377     1.617096022492    -0.472843402214    12.000000000000
         C            2.869167800623     0.264529022492    -0.768407402214    12.000000000000
         H           -1.728905199377     0.504678022492     1.377557597786     1.007825032230
         H            2.836980800623     0.344419022492     1.403136597786     1.007825032230
         H            2.243319800623    -1.172378977508     0.716185597786     1.007825032230
         H            0.713007800623     1.289301022492     1.120661597786     1.007825032230
         H           -1.388003199377     1.432771022492    -1.519402402214     1.007825032230
         H           -0.983391199377     2.396399022492    -0.077066402214     1.007825032230
         H           -2.671926199377     1.977922022492    -0.425103402214     1.007825032230
         H            2.288067800623    -0.202106977508    -1.566075402214     1.007825032230
         H            2.875085800623     1.346642022492    -0.921939402214     1.007825032230
         H            3.899342800623    -0.098459977508    -0.830699402214     1.007825032230
         H           -1.951107199377    -1.360812977508    -0.505797402214     1.007825032230

  Basis Set: AUG-CC-PVTZ
    Blend: AUG-CC-PVTZ
  Basis Set: (AUG-CC-PVTZ AUX)
    Blend: AUG-CC-PVTZ-JKFIT
	 Reference Energy          =    -400.0275635274741717 [Eh]
	 Singles Energy            =      -0.0000000000000000 [Eh]
	 Same-Spin Energy          =      -0.4025636509383804 [Eh]
	 Opposite-Spin Energy      =      -1.3103411014697295 [Eh]
	 Correlation Energy        =      -1.7129047524081100 [Eh]
	 Total Energy              =    -401.7404682798822932 [Eh]

	 ================> DF-SCS-MP2 Energies <==================
	-----------------------------------------------------------
	 SCS Same-Spin Scale       =       0.3333333333333333 [-]
	 SCS Opposite-Spin Scale   =       1.2000000000000000 [-]
	 SCS Same-Spin Energy      =      -0.1341878836461268 [Eh]
	 SCS Opposite-Spin Energy  =      -1.5724093217636754 [Eh]
	 SCS Correlation Energy    =      -1.7065972054098022 [Eh]
	 SCS Total Energy          =    -401.7341607328839928 [Eh]
	-----------------------------------------------------------

  Dipole Moment: [D]
     X:     2.7519      Y:     2.8818      Z:     1.8286     Total:     4.3843

*** Psi4 exiting successfully. Buy a developer a beer!
