                               Psi4 1.3.2 release

  ==> Input File <==

--------------------------------------------------------------------------
#psi4
#
memory 32 gb

molecule  {
0 1
  O       -2.4925410    -0.6205970    -0.1535330
  O       -0.0069960    -1.4050930    -0.3804930
  N        0.8845720     0.3685180     0.7343320
  C       -1.5404070     0.3017530     0.3325960
  C        2.2569670    -0.1011270     0.6035390
  C       -0.1490540    -0.3186880     0.1981930
  C       -1.6458490     1.6048030    -0.4506110
  C        2.8658230     0.2522360    -0.7461750
  H       -1.7322500     0.4923850     1.3997900
  H        2.8336360     0.3321260     1.4253690
  H        2.2399750    -1.1846720     0.7384180
  H        0.7362323     1.3929053     0.9229806
  H       -1.3913480     1.4204780    -1.4971700
  H       -0.9867360     2.3841060    -0.0548340
  H       -2.6752710     1.9656290    -0.4028710
  H        2.2847230    -0.2144000    -1.5438430
  H        2.8717410     1.3343490    -0.8997070
  H        3.8959980    -0.1107530    -0.8084670
  H       -1.9544520    -1.3731060    -0.4835650
units angstrom
no_reorient  #important for SAPT in psi4, default
symmetry c1  #important for SAPT in psi4, default
}

set PROPERTIES_ORIGIN ["COM"]
properties('MP2/aug-cc-pvtz', properties = ['dipole'])
--------------------------------------------------------------------------

    Molecular point group: c1
  Charge       = 0
  Multiplicity = 1
  Basis Set: AUG-CC-PVTZ
    Blend: AUG-CC-PVTZ
  Basis Set: (AUG-CC-PVTZ AUX)
    Blend: AUG-CC-PVTZ-JKFIT

    Orbital Energies [Eh]
    ---------------------

    Doubly Occupied:

       1A    -20.548827     2A    -20.534866     3A    -15.601352
       4A    -11.359289     5A    -11.298256     6A    -11.273252
       7A    -11.233005     8A    -11.224162     9A     -1.398988
      10A     -1.347011    11A     -1.242369    12A     -1.053342
      13A     -1.012492    14A     -0.902951    15A     -0.849753
      16A     -0.783773    17A     -0.745004    18A     -0.676290
      19A     -0.645566    20A     -0.640959    21A     -0.611617
      22A     -0.600610    23A     -0.577303    24A     -0.565373
      25A     -0.542839    26A     -0.535082    27A     -0.521029
      28A     -0.514556    29A     -0.503203    30A     -0.446094
      31A     -0.437123    32A     -0.404191

  @DF-RHF Final Energy:  -400.08416403761441

   => Energetics <=

    Nuclear Repulsion Energy =            400.5581292076651607
    One-Electron Energy =               -1340.0235348308490302
    Two-Electron Energy =                 539.3812415855694553
    Total Energy =                       -400.0841640376144142
  Basis Set: (AUG-CC-PVTZ AUX)
    Blend: AUG-CC-PVTZ-RI
    Molecular point group: c1

    Geometry (in Angstrom), charge = 0, multiplicity = 1:

       Center              X                  Y                   Z               Mass
    ------------   -----------------  -----------------  -----------------  -----------------
         O           -2.492769575321    -0.621594645216    -0.151640167580    15.994914619570
         O           -0.007224575321    -1.406090645216    -0.378600167580    15.994914619570
         N            0.884343424679     0.367520354784     0.736224832420    14.003074004430
         C           -1.540635575321     0.300755354784     0.334488832420    12.000000000000
         C            2.256738424679    -0.102124645216     0.605431832420    12.000000000000
         C           -0.149282575321    -0.319685645216     0.200085832420    12.000000000000
         C           -1.646077575321     1.603805354784    -0.448718167580    12.000000000000
         C            2.865594424679     0.251238354784    -0.744282167580    12.000000000000
         H           -1.732478575321     0.491387354784     1.401682832420     1.007825032230
         H            2.833407424679     0.331128354784     1.427261832420     1.007825032230
         H            2.239746424679    -1.185669645216     0.740310832420     1.007825032230
         H            0.736003724679     1.391907654784     0.924873432420     1.007825032230
         H           -1.391576575321     1.419480354784    -1.495277167580     1.007825032230
         H           -0.986964575321     2.383108354784    -0.052941167580     1.007825032230
         H           -2.675499575321     1.964631354784    -0.400978167580     1.007825032230
         H            2.284494424679    -0.215397645216    -1.541950167580     1.007825032230
         H            2.871512424679     1.333351354784    -0.897814167580     1.007825032230
         H            3.895769424679    -0.111750645216    -0.806574167580     1.007825032230
         H           -1.954680575321    -1.374103645216    -0.481672167580     1.007825032230

  Basis Set: AUG-CC-PVTZ
    Blend: AUG-CC-PVTZ
  Basis Set: (AUG-CC-PVTZ AUX)
    Blend: AUG-CC-PVTZ-JKFIT
	 Reference Energy          =    -400.0841640376144142 [Eh]
	 Singles Energy            =      -0.0000000000000000 [Eh]
	 Same-Spin Energy          =      -0.4024438473253092 [Eh]
	 Opposite-Spin Energy      =      -1.3085174503948274 [Eh]
	 Correlation Energy        =      -1.7109612977201365 [Eh]
	 Total Energy              =    -401.7951253353345464 [Eh]

	 ================> DF-SCS-MP2 Energies <==================
	-----------------------------------------------------------
	 SCS Same-Spin Scale       =       0.3333333333333333 [-]
	 SCS Opposite-Spin Scale   =       1.2000000000000000 [-]
	 SCS Same-Spin Energy      =      -0.1341479491084364 [Eh]
	 SCS Opposite-Spin Energy  =      -1.5702209404737928 [Eh]
	 SCS Correlation Energy    =      -1.7043688895822291 [Eh]
	 SCS Total Energy          =    -401.7885329271966270 [Eh]
	-----------------------------------------------------------

  Dipole Moment: [D]
     X:     2.8952      Y:     3.2090      Z:     1.2365     Total:     4.4955

*** Psi4 exiting successfully. Buy a developer a beer!
