                               Psi4 1.3.2 release

  ==> Input File <==

--------------------------------------------------------------------------
#psi4
#
memory 32 gb

molecule  {
0 1
  O       -2.4925410    -0.6205970    -0.1535330
  O       -0.0069960    -1.4050930    -0.3804930
  N        0.8845720     0.3685180     0.7343320
  C       -1.5665130     0.2058028     0.5061242
  C        2.2569670    -0.1011270     0.6035390
  C       -0.1490540    -0.3186880     0.1981930
  C       -1.6458490     1.6048030    -0.4506110
  C        2.8658230     0.2522360    -0.7461750
  H       -1.7322500     0.4923850     1.3997900
  H        2.8336360     0.3321260     1.4253690
  H        2.2399750    -1.1846720     0.7384180
  H        0.7096630     1.2770080     1.1428940
  H       -1.3913480     1.4204780    -1.4971700
  H       -0.9867360     2.3841060    -0.0548340
  H       -2.6752710     1.9656290    -0.4028710
  H        2.2847230    -0.2144000    -1.5438430
  H        2.8717410     1.3343490    -0.8997070
  H        3.8959980    -0.1107530    -0.8084670
  H       -1.9544520    -1.3731060    -0.4835650
units angstrom
no_reorient  #important for SAPT in psi4, default
symmetry c1  #important for SAPT in psi4, default
}

set PROPERTIES_ORIGIN ["COM"]
properties('MP2/aug-cc-pvtz', properties = ['dipole'])
--------------------------------------------------------------------------

    Molecular point group: c1
  Charge       = 0
  Multiplicity = 1
  Basis Set: AUG-CC-PVTZ
    Blend: AUG-CC-PVTZ
  Basis Set: (AUG-CC-PVTZ AUX)
    Blend: AUG-CC-PVTZ-JKFIT

    Orbital Energies [Eh]
    ---------------------

    Doubly Occupied:

       1A    -20.551614     2A    -20.532972     3A    -15.597944
       4A    -11.361453     5A    -11.296959     6A    -11.273563
       7A    -11.234013     8A    -11.222343     9A     -1.398302
      10A     -1.349133    11A     -1.245032    12A     -1.044046
      13A     -0.997197    14A     -0.901225    15A     -0.860106
      16A     -0.797360    17A     -0.752075    18A     -0.685973
      19A     -0.655114    20A     -0.635268    21A     -0.613493
      22A     -0.597231    23A     -0.565739    24A     -0.554649
      25A     -0.548194    26A     -0.543051    27A     -0.522127
      28A     -0.511900    29A     -0.499580    30A     -0.443646
      31A     -0.418607    32A     -0.400809

  @DF-RHF Final Energy:  -400.04977063870382

   => Energetics <=

    Nuclear Repulsion Energy =            399.3158214318921750
    One-Electron Energy =               -1337.5097467348496139
    Two-Electron Energy =                 538.1441546642536196
    Total Energy =                       -400.0497706387038761
  Basis Set: (AUG-CC-PVTZ AUX)
    Blend: AUG-CC-PVTZ-RI
    Molecular point group: c1

    Geometry (in Angstrom), charge = 0, multiplicity = 1:

       Center              X                  Y                   Z               Mass
    ------------   -----------------  -----------------  -----------------  -----------------
         O           -2.489865132442    -0.610762584540    -0.171318957547    15.994914619570
         O           -0.004320132442    -1.395258584540    -0.398278957547    15.994914619570
         N            0.887247867558     0.378352415460     0.716546042453    14.003074004430
         C           -1.563837132442     0.215637215460     0.488338242453    12.000000000000
         C            2.259642867558    -0.091292584540     0.585753042453    12.000000000000
         C           -0.146378132442    -0.308853584540     0.180407042453    12.000000000000
         C           -1.643173132442     1.614637415460    -0.468396957547    12.000000000000
         C            2.868498867558     0.262070415460    -0.763960957547    12.000000000000
         H           -1.729574132442     0.502219415460     1.382004042453     1.007825032230
         H            2.836311867558     0.341960415460     1.407583042453     1.007825032230
         H            2.242650867558    -1.174837584540     0.720632042453     1.007825032230
         H            0.712338867558     1.286842415460     1.125108042453     1.007825032230
         H           -1.388672132442     1.430312415460    -1.514955957547     1.007825032230
         H           -0.984060132442     2.393940415460    -0.072619957547     1.007825032230
         H           -2.672595132442     1.975463415460    -0.420656957547     1.007825032230
         H            2.287398867558    -0.204565584540    -1.561628957547     1.007825032230
         H            2.874416867558     1.344183415460    -0.917492957547     1.007825032230
         H            3.898673867558    -0.100918584540    -0.826252957547     1.007825032230
         H           -1.951776132442    -1.363271584540    -0.501350957547     1.007825032230

  Basis Set: AUG-CC-PVTZ
    Blend: AUG-CC-PVTZ
  Basis Set: (AUG-CC-PVTZ AUX)
    Blend: AUG-CC-PVTZ-JKFIT
	 Reference Energy          =    -400.0497706387038193 [Eh]
	 Singles Energy            =      -0.0000000000000000 [Eh]
	 Same-Spin Energy          =      -0.4022087717857576 [Eh]
	 Opposite-Spin Energy      =      -1.3090999447311478 [Eh]
	 Correlation Energy        =      -1.7113087165169054 [Eh]
	 Total Energy              =    -401.7610793552207156 [Eh]

	 ================> DF-SCS-MP2 Energies <==================
	-----------------------------------------------------------
	 SCS Same-Spin Scale       =       0.3333333333333333 [-]
	 SCS Opposite-Spin Scale   =       1.2000000000000000 [-]
	 SCS Same-Spin Energy      =      -0.1340695905952525 [Eh]
	 SCS Opposite-Spin Energy  =      -1.5709199336773774 [Eh]
	 SCS Correlation Energy    =      -1.7049895242726298 [Eh]
	 SCS Total Energy          =    -401.7547601629764245 [Eh]
	-----------------------------------------------------------

  Dipole Moment: [D]
     X:     2.7869      Y:     2.9326      Z:     1.7886     Total:     4.4234

*** Psi4 exiting successfully. Buy a developer a beer!
