                               Psi4 1.3.2 release

  ==> Input File <==

--------------------------------------------------------------------------
#psi4
#
memory 32 gb

molecule  {
0 1
  O       -2.4925410    -0.6205970    -0.1535330
  O       -0.0069960    -1.4050930    -0.3804930
  N        0.8845720     0.3685180     0.7343320
  C       -1.5404070     0.3017530     0.3325960
  C        2.2569670    -0.1011270     0.6035390
  C       -0.1490540    -0.3186880     0.1981930
  C       -1.6458490     1.6048030    -0.4506110
  C        2.8658230     0.2522360    -0.7461750
  H       -1.7322500     0.4923850     1.3997900
  H        2.8336360     0.3321260     1.4253690
  H        2.2399750    -1.1846720     0.7384180
  H        0.7149769     1.3001875     1.0989113
  H       -1.3913480     1.4204780    -1.4971700
  H       -0.9867360     2.3841060    -0.0548340
  H       -2.6752710     1.9656290    -0.4028710
  H        2.2847230    -0.2144000    -1.5438430
  H        2.8717410     1.3343490    -0.8997070
  H        3.8959980    -0.1107530    -0.8084670
  H       -1.9544520    -1.3731060    -0.4835650
units angstrom
no_reorient  #important for SAPT in psi4, default
symmetry c1  #important for SAPT in psi4, default
}

set PROPERTIES_ORIGIN ["COM"]
properties('MP2/aug-cc-pvtz', properties = ['dipole'])
--------------------------------------------------------------------------

    Molecular point group: c1
  Charge       = 0
  Multiplicity = 1
  Basis Set: AUG-CC-PVTZ
    Blend: AUG-CC-PVTZ
  Basis Set: (AUG-CC-PVTZ AUX)
    Blend: AUG-CC-PVTZ-JKFIT

    Orbital Energies [Eh]
    ---------------------

    Doubly Occupied:

       1A    -20.548588     2A    -20.533529     3A    -15.599014
       4A    -11.359055     5A    -11.298198     6A    -11.273926
       7A    -11.231505     8A    -11.223440     9A     -1.398401
      10A     -1.346674    11A     -1.245547    12A     -1.052908
      13A     -1.012806    14A     -0.902832    15A     -0.849335
      16A     -0.793195    17A     -0.744912    18A     -0.676597
      19A     -0.647482    20A     -0.641455    21A     -0.612718
      22A     -0.598922    23A     -0.577168    24A     -0.563916
      25A     -0.542989    26A     -0.534261    27A     -0.521252
      28A     -0.514645    29A     -0.502397    30A     -0.445770
      31A     -0.436280    32A     -0.403612

  @DF-RHF Final Energy:  -400.08762470951626

   => Energetics <=

    Nuclear Repulsion Energy =            400.6351533880362581
    One-Electron Energy =               -1340.1788944612526393
    Two-Electron Energy =                 539.4561163637000618
    Total Energy =                       -400.0876247095162626
  Basis Set: (AUG-CC-PVTZ AUX)
    Blend: AUG-CC-PVTZ-RI
    Molecular point group: c1

    Geometry (in Angstrom), charge = 0, multiplicity = 1:

       Center              X                  Y                   Z               Mass
    ------------   -----------------  -----------------  -----------------  -----------------
         O           -2.492586607170    -0.620796523120    -0.153154592847    15.994914619570
         O           -0.007041607170    -1.405292523120    -0.380114592847    15.994914619570
         N            0.884526392830     0.368318476880     0.734710407153    14.003074004430
         C           -1.540452607170     0.301553476880     0.332974407153    12.000000000000
         C            2.256921392830    -0.101326523120     0.603917407153    12.000000000000
         C           -0.149099607170    -0.318887523120     0.198571407153    12.000000000000
         C           -1.645894607170     1.604603476880    -0.450232592847    12.000000000000
         C            2.865777392830     0.252036476880    -0.745796592847    12.000000000000
         H           -1.732295607170     0.492185476880     1.400168407153     1.007825032230
         H            2.833590392830     0.331926476880     1.425747407153     1.007825032230
         H            2.239929392830    -1.184871523120     0.738796407153     1.007825032230
         H            0.714931292830     1.299987976880     1.099289707153     1.007825032230
         H           -1.391393607170     1.420278476880    -1.496791592847     1.007825032230
         H           -0.986781607170     2.383906476880    -0.054455592847     1.007825032230
         H           -2.675316607170     1.965429476880    -0.402492592847     1.007825032230
         H            2.284677392830    -0.214599523120    -1.543464592847     1.007825032230
         H            2.871695392830     1.334149476880    -0.899328592847     1.007825032230
         H            3.895952392830    -0.110952523120    -0.808088592847     1.007825032230
         H           -1.954497607170    -1.373305523120    -0.483186592847     1.007825032230

  Basis Set: AUG-CC-PVTZ
    Blend: AUG-CC-PVTZ
  Basis Set: (AUG-CC-PVTZ AUX)
    Blend: AUG-CC-PVTZ-JKFIT
	 Reference Energy          =    -400.0876247095162626 [Eh]
	 Singles Energy            =      -0.0000000000000000 [Eh]
	 Same-Spin Energy          =      -0.4021454342522987 [Eh]
	 Opposite-Spin Energy      =      -1.3077496468534258 [Eh]
	 Correlation Energy        =      -1.7098950811057243 [Eh]
	 Total Energy              =    -401.7975197906220046 [Eh]

	 ================> DF-SCS-MP2 Energies <==================
	-----------------------------------------------------------
	 SCS Same-Spin Scale       =       0.3333333333333333 [-]
	 SCS Opposite-Spin Scale   =       1.2000000000000000 [-]
	 SCS Same-Spin Energy      =      -0.1340484780840995 [Eh]
	 SCS Opposite-Spin Energy  =      -1.5692995762241109 [Eh]
	 SCS Correlation Energy    =      -1.7033480543082105 [Eh]
	 SCS Total Energy          =    -401.7909727638244703 [Eh]
	-----------------------------------------------------------

  Dipole Moment: [D]
     X:     2.9034      Y:     3.1672      Z:     1.4972     Total:     4.5500

*** Psi4 exiting successfully. Buy a developer a beer!
