                               Psi4 1.3.2 release

  ==> Input File <==

--------------------------------------------------------------------------
#psi4
#
memory 32 gb

molecule  {
0 1
  O       -2.4925410    -0.6205970    -0.1535330
  O       -0.0069960    -1.4050930    -0.3804930
  N        0.8845720     0.3685180     0.7343320
  C       -1.5599865     0.2297903     0.4627422
  C        2.2569670    -0.1011270     0.6035390
  C       -0.1490540    -0.3186880     0.1981930
  C       -1.6458490     1.6048030    -0.4506110
  C        2.8658230     0.2522360    -0.7461750
  H       -1.7322500     0.4923850     1.3997900
  H        2.8336360     0.3321260     1.4253690
  H        2.2399750    -1.1846720     0.7384180
  H        0.7096630     1.2770080     1.1428940
  H       -1.3913480     1.4204780    -1.4971700
  H       -0.9867360     2.3841060    -0.0548340
  H       -2.6752710     1.9656290    -0.4028710
  H        2.2847230    -0.2144000    -1.5438430
  H        2.8717410     1.3343490    -0.8997070
  H        3.8959980    -0.1107530    -0.8084670
  H       -1.9544520    -1.3731060    -0.4835650
units angstrom
no_reorient  #important for SAPT in psi4, default
symmetry c1  #important for SAPT in psi4, default
}

set PROPERTIES_ORIGIN ["COM"]
properties('MP2/aug-cc-pvtz', properties = ['dipole'])
--------------------------------------------------------------------------

    Molecular point group: c1
  Charge       = 0
  Multiplicity = 1
  Basis Set: AUG-CC-PVTZ
    Blend: AUG-CC-PVTZ
  Basis Set: (AUG-CC-PVTZ AUX)
    Blend: AUG-CC-PVTZ-JKFIT

    Orbital Energies [Eh]
    ---------------------

    Doubly Occupied:

       1A    -20.550505     2A    -20.533040     3A    -15.598240
       4A    -11.360283     5A    -11.296433     6A    -11.273692
       7A    -11.233304     8A    -11.222587     9A     -1.398478
      10A     -1.348996    11A     -1.245258    12A     -1.045289
      13A     -1.000169    14A     -0.901569    15A     -0.856996
      16A     -0.796428    17A     -0.750411    18A     -0.683096
      19A     -0.653732    20A     -0.636449    21A     -0.613372
      22A     -0.597191    23A     -0.567088    24A     -0.556563
      25A     -0.547248    26A     -0.541701    27A     -0.521556
      28A     -0.513093    29A     -0.500375    30A     -0.443796
      31A     -0.425221    32A     -0.402478

  @DF-RHF Final Energy:  -400.06688146702538

   => Energetics <=

    Nuclear Repulsion Energy =            399.6833715427893026
    One-Electron Energy =               -1338.2712353080037246
    Two-Electron Energy =                 538.5209822981890966
    Total Energy =                       -400.0668814670253823
  Basis Set: (AUG-CC-PVTZ AUX)
    Blend: AUG-CC-PVTZ-RI
    Molecular point group: c1

    Geometry (in Angstrom), charge = 0, multiplicity = 1:

       Center              X                  Y                   Z               Mass
    ------------   -----------------  -----------------  -----------------  -----------------
         O           -2.490534065507    -0.613221181321    -0.166872523130    15.994914619570
         O           -0.004989065507    -1.397717181321    -0.393832523130    15.994914619570
         N            0.886578934493     0.375893818679     0.720992476870    14.003074004430
         C           -1.557979565507     0.237166118679     0.449402676870    12.000000000000
         C            2.258973934493    -0.093751181321     0.590199476870    12.000000000000
         C           -0.147047065507    -0.311312181321     0.184853476870    12.000000000000
         C           -1.643842065507     1.612178818679    -0.463950523130    12.000000000000
         C            2.867829934493     0.259611818679    -0.759514523130    12.000000000000
         H           -1.730243065507     0.499760818679     1.386450476870     1.007825032230
         H            2.835642934493     0.339501818679     1.412029476870     1.007825032230
         H            2.241981934493    -1.177296181321     0.725078476870     1.007825032230
         H            0.711669934493     1.284383818679     1.129554476870     1.007825032230
         H           -1.389341065507     1.427853818679    -1.510509523130     1.007825032230
         H           -0.984729065507     2.391481818679    -0.068173523130     1.007825032230
         H           -2.673264065507     1.973004818679    -0.416210523130     1.007825032230
         H            2.286729934493    -0.207024181321    -1.557182523130     1.007825032230
         H            2.873747934493     1.341724818679    -0.913046523130     1.007825032230
         H            3.898004934493    -0.103377181321    -0.821806523130     1.007825032230
         H           -1.952445065507    -1.365730181321    -0.496904523130     1.007825032230

  Basis Set: AUG-CC-PVTZ
    Blend: AUG-CC-PVTZ
  Basis Set: (AUG-CC-PVTZ AUX)
    Blend: AUG-CC-PVTZ-JKFIT
	 Reference Energy          =    -400.0668814670253823 [Eh]
	 Singles Energy            =      -0.0000000000000000 [Eh]
	 Same-Spin Energy          =      -0.4019822600151678 [Eh]
	 Opposite-Spin Energy      =      -1.3082183082729779 [Eh]
	 Correlation Energy        =      -1.7102005682881458 [Eh]
	 Total Energy              =    -401.7770820353135264 [Eh]

	 ================> DF-SCS-MP2 Energies <==================
	-----------------------------------------------------------
	 SCS Same-Spin Scale       =       0.3333333333333333 [-]
	 SCS Opposite-Spin Scale   =       1.2000000000000000 [-]
	 SCS Same-Spin Energy      =      -0.1339940866717226 [Eh]
	 SCS Opposite-Spin Energy  =      -1.5698619699275735 [Eh]
	 SCS Correlation Energy    =      -1.7038560565992962 [Eh]
	 SCS Total Energy          =    -401.7707375236246889 [Eh]
	-----------------------------------------------------------

  Dipole Moment: [D]
     X:     2.8194      Y:     2.9857      Z:     1.7412     Total:     4.4604

*** Psi4 exiting successfully. Buy a developer a beer!
