                               Psi4 1.3.2 release

  ==> Input File <==

--------------------------------------------------------------------------
#psi4
#
memory 32 gb

molecule  {
0 1
  O       -2.4925410    -0.6205970    -0.1535330
  O       -0.0069960    -1.4050930    -0.3804930
  N        0.8845720     0.3685180     0.7343320
  C       -1.5404070     0.3017530     0.3325960
  C        2.2569670    -0.1011270     0.6035390
  C       -0.1490540    -0.3186880     0.1981930
  C       -1.6458490     1.6048030    -0.4506110
  C        2.8658230     0.2522360    -0.7461750
  H       -1.7322500     0.4923850     1.3997900
  H        2.8336360     0.3321260     1.4253690
  H        2.2399750    -1.1846720     0.7384180
  H        0.7202907     1.3233669     1.0549287
  H       -1.3913480     1.4204780    -1.4971700
  H       -0.9867360     2.3841060    -0.0548340
  H       -2.6752710     1.9656290    -0.4028710
  H        2.2847230    -0.2144000    -1.5438430
  H        2.8717410     1.3343490    -0.8997070
  H        3.8959980    -0.1107530    -0.8084670
  H       -1.9544520    -1.3731060    -0.4835650
units angstrom
no_reorient  #important for SAPT in psi4, default
symmetry c1  #important for SAPT in psi4, default
}

set PROPERTIES_ORIGIN ["COM"]
properties('MP2/aug-cc-pvtz', properties = ['dipole'])
--------------------------------------------------------------------------

    Molecular point group: c1
  Charge       = 0
  Multiplicity = 1
  Basis Set: AUG-CC-PVTZ
    Blend: AUG-CC-PVTZ
  Basis Set: (AUG-CC-PVTZ AUX)
    Blend: AUG-CC-PVTZ-JKFIT

    Orbital Energies [Eh]
    ---------------------

    Doubly Occupied:

       1A    -20.548639     2A    -20.533749     3A    -15.599370
       4A    -11.359093     5A    -11.298210     6A    -11.273801
       7A    -11.231901     8A    -11.223609     9A     -1.398504
      10A     -1.346740    11A     -1.245057    12A     -1.053037
      13A     -1.012786    14A     -0.902879    15A     -0.849515
      16A     -0.791667    17A     -0.744965    18A     -0.676491
      19A     -0.646980    20A     -0.641422    21A     -0.612167
      22A     -0.599888    23A     -0.577229    24A     -0.564310
      25A     -0.542960    26A     -0.534479    27A     -0.521180
      28A     -0.514711    29A     -0.502626    30A     -0.445851
      31A     -0.436442    32A     -0.403705

  @DF-RHF Final Energy:  -400.08723155797276

   => Energetics <=

    Nuclear Repulsion Energy =            400.6323236348264913
    One-Electron Energy =               -1340.1711829218736511
    Two-Electron Energy =                 539.4516277290745165
    Total Energy =                       -400.0872315579727001
  Basis Set: (AUG-CC-PVTZ AUX)
    Blend: AUG-CC-PVTZ-RI
    Molecular point group: c1

    Geometry (in Angstrom), charge = 0, multiplicity = 1:

       Center              X                  Y                   Z               Mass
    ------------   -----------------  -----------------  -----------------  -----------------
         O           -2.492632348777    -0.620996053214    -0.152775987175    15.994914619570
         O           -0.007087348777    -1.405492053214    -0.379735987175    15.994914619570
         N            0.884480651223     0.368118946786     0.735089012825    14.003074004430
         C           -1.540498348777     0.301353946786     0.333353012825    12.000000000000
         C            2.256875651223    -0.101526053214     0.604296012825    12.000000000000
         C           -0.149145348777    -0.319087053214     0.198950012825    12.000000000000
         C           -1.645940348777     1.604403946786    -0.449853987175    12.000000000000
         C            2.865731651223     0.251836946786    -0.745417987175    12.000000000000
         H           -1.732341348777     0.491985946786     1.400547012825     1.007825032230
         H            2.833544651223     0.331726946786     1.426126012825     1.007825032230
         H            2.239883651223    -1.185071053214     0.739175012825     1.007825032230
         H            0.720199351223     1.322967846786     1.055685712825     1.007825032230
         H           -1.391439348777     1.420078946786    -1.496412987175     1.007825032230
         H           -0.986827348777     2.383706946786    -0.054076987175     1.007825032230
         H           -2.675362348777     1.965229946786    -0.402113987175     1.007825032230
         H            2.284631651223    -0.214799053214    -1.543085987175     1.007825032230
         H            2.871649651223     1.333949946786    -0.898949987175     1.007825032230
         H            3.895906651223    -0.111152053214    -0.807709987175     1.007825032230
         H           -1.954543348777    -1.373505053214    -0.482807987175     1.007825032230

  Basis Set: AUG-CC-PVTZ
    Blend: AUG-CC-PVTZ
  Basis Set: (AUG-CC-PVTZ AUX)
    Blend: AUG-CC-PVTZ-JKFIT
	 Reference Energy          =    -400.0872315579727569 [Eh]
	 Singles Energy            =      -0.0000000000000000 [Eh]
	 Same-Spin Energy          =      -0.4021919135232674 [Eh]
	 Opposite-Spin Energy      =      -1.3078637980677246 [Eh]
	 Correlation Energy        =      -1.7100557115909920 [Eh]
	 Total Energy              =    -401.7972872695637534 [Eh]

	 ================> DF-SCS-MP2 Energies <==================
	-----------------------------------------------------------
	 SCS Same-Spin Scale       =       0.3333333333333333 [-]
	 SCS Opposite-Spin Scale   =       1.2000000000000000 [-]
	 SCS Same-Spin Energy      =      -0.1340639711744225 [Eh]
	 SCS Opposite-Spin Energy  =      -1.5694365576812694 [Eh]
	 SCS Correlation Energy    =      -1.7035005288556919 [Eh]
	 SCS Total Energy          =    -401.7907320868284273 [Eh]
	-----------------------------------------------------------

  Dipole Moment: [D]
     X:     2.9029      Y:     3.1826      Z:     1.4330     Total:     4.5397

*** Psi4 exiting successfully. Buy a developer a beer!
