                               Psi4 1.3.2 release

  ==> Input File <==

--------------------------------------------------------------------------
#psi4
#
memory 32 gb

molecule  {
0 1
  O       -2.4925410    -0.6205970    -0.1535330
  O       -0.0069960    -1.4050930    -0.3804930
  N        0.8845720     0.3685180     0.7343320
  C       -1.5404070     0.3017530     0.3325960
  C        2.2569670    -0.1011270     0.6035390
  C       -0.1490540    -0.3186880     0.1981930
  C       -1.6458490     1.6048030    -0.4506110
  C        2.8658230     0.2522360    -0.7461750
  H       -1.7322500     0.4923850     1.3997900
  H        2.8336360     0.3321260     1.4253690
  H        2.2399750    -1.1846720     0.7384180
  H        0.7096630     1.2770080     1.1428940
  H       -1.3913480     1.4204780    -1.4971700
  H       -0.9867360     2.3841060    -0.0548340
  H       -2.6752710     1.9656290    -0.4028710
  H        2.2847230    -0.2144000    -1.5438430
  H        2.8717410     1.3343490    -0.8997070
  H        3.8959980    -0.1107530    -0.8084670
  H       -1.9544520    -1.3731060    -0.4835650
units angstrom
no_reorient  #important for SAPT in psi4, default
symmetry c1  #important for SAPT in psi4, default
}

set PROPERTIES_ORIGIN ["COM"]
properties('MP2/aug-cc-pvtz', properties = ['dipole'])
--------------------------------------------------------------------------

    Molecular point group: c1
  Charge       = 0
  Multiplicity = 1
  Basis Set: AUG-CC-PVTZ
    Blend: AUG-CC-PVTZ
  Basis Set: (AUG-CC-PVTZ AUX)
    Blend: AUG-CC-PVTZ-JKFIT

    Orbital Energies [Eh]
    ---------------------

    Doubly Occupied:

       1A    -20.548543     2A    -20.533394     3A    -15.598822
       4A    -11.359030     5A    -11.298188     6A    -11.274015
       7A    -11.231100     8A    -11.223279     9A     -1.398329
      10A     -1.346622    11A     -1.245804    12A     -1.052765
      13A     -1.012778    14A     -0.902770    15A     -0.849103
      16A     -0.794089    17A     -0.744847    18A     -0.676719
      19A     -0.647963    20A     -0.641460    21A     -0.613341
      22A     -0.597722    23A     -0.577089    24A     -0.563508
      25A     -0.543012    26A     -0.534035    27A     -0.521326
      28A     -0.514541    29A     -0.502150    30A     -0.445692
      31A     -0.436157    32A     -0.403556

  @DF-RHF Final Energy:  -400.08781262876965

   => Energetics <=

    Nuclear Repulsion Energy =            400.6261964447650143
    One-Electron Energy =               -1340.1645179010101856
    Two-Electron Energy =                 539.4505088274754598
    Total Energy =                       -400.0878126287697114
  Basis Set: (AUG-CC-PVTZ AUX)
    Blend: AUG-CC-PVTZ-RI
    Molecular point group: c1

    Geometry (in Angstrom), charge = 0, multiplicity = 1:

       Center              X                  Y                   Z               Mass
    ------------   -----------------  -----------------  -----------------  -----------------
         O           -2.492540864702    -0.620596992166    -0.153533199378    15.994914619570
         O           -0.006995864702    -1.405092992166    -0.380493199378    15.994914619570
         N            0.884572135298     0.368518007834     0.734331800622    14.003074004430
         C           -1.540406864702     0.301753007834     0.332595800622    12.000000000000
         C            2.256967135298    -0.101126992166     0.603538800622    12.000000000000
         C           -0.149053864702    -0.318687992166     0.198192800622    12.000000000000
         C           -1.645848864702     1.604803007834    -0.450611199378    12.000000000000
         C            2.865823135298     0.252236007834    -0.746175199378    12.000000000000
         H           -1.732249864702     0.492385007834     1.399789800622     1.007825032230
         H            2.833636135298     0.332126007834     1.425368800622     1.007825032230
         H            2.239975135298    -1.184671992166     0.738417800622     1.007825032230
         H            0.709663135298     1.277008007834     1.142893800622     1.007825032230
         H           -1.391347864702     1.420478007834    -1.497170199378     1.007825032230
         H           -0.986735864702     2.384106007834    -0.054834199378     1.007825032230
         H           -2.675270864702     1.965629007834    -0.402871199378     1.007825032230
         H            2.284723135298    -0.214399992166    -1.543843199378     1.007825032230
         H            2.871741135298     1.334349007834    -0.899707199378     1.007825032230
         H            3.895998135298    -0.110752992166    -0.808467199378     1.007825032230
         H           -1.954451864702    -1.373105992166    -0.483565199378     1.007825032230

  Basis Set: AUG-CC-PVTZ
    Blend: AUG-CC-PVTZ
  Basis Set: (AUG-CC-PVTZ AUX)
    Blend: AUG-CC-PVTZ-JKFIT
	 Reference Energy          =    -400.0878126287696546 [Eh]
	 Singles Energy            =      -0.0000000000000000 [Eh]
	 Same-Spin Energy          =      -0.4021174971042608 [Eh]
	 Opposite-Spin Energy      =      -1.3076869020892861 [Eh]
	 Correlation Energy        =      -1.7098043991935468 [Eh]
	 Total Energy              =    -401.7976170279632129 [Eh]

	 ================> DF-SCS-MP2 Energies <==================
	-----------------------------------------------------------
	 SCS Same-Spin Scale       =       0.3333333333333333 [-]
	 SCS Opposite-Spin Scale   =       1.2000000000000000 [-]
	 SCS Same-Spin Energy      =      -0.1340391657014202 [Eh]
	 SCS Opposite-Spin Energy  =      -1.5692242825071432 [Eh]
	 SCS Correlation Energy    =      -1.7032634482085633 [Eh]
	 SCS Total Energy          =    -401.7910760769782428 [Eh]
	-----------------------------------------------------------

  Dipole Moment: [D]
     X:     2.9027      Y:     3.1483      Z:     1.5602     Total:     4.5576

*** Psi4 exiting successfully. Buy a developer a beer!
