                               Psi4 1.3.2 release

  ==> Input File <==

--------------------------------------------------------------------------
#psi4
#
memory 32 gb

molecule  {
0 1
  O       -2.4925410    -0.6205970    -0.1535330
  O       -0.0069960    -1.4050930    -0.3804930
  N        0.8845720     0.3685180     0.7343320
  C       -1.5404070     0.3017530     0.3325960
  C        2.2569670    -0.1011270     0.6035390
  C       -0.1490540    -0.3186880     0.1981930
  C       -1.6458490     1.6048030    -0.4506110
  C        2.8658230     0.2522360    -0.7461750
  H       -1.7322500     0.4923850     1.3997900
  H        2.8336360     0.3321260     1.4253690
  H        2.2399750    -1.1846720     0.7384180
  H        0.7256046     1.3465464     1.0109460
  H       -1.3913480     1.4204780    -1.4971700
  H       -0.9867360     2.3841060    -0.0548340
  H       -2.6752710     1.9656290    -0.4028710
  H        2.2847230    -0.2144000    -1.5438430
  H        2.8717410     1.3343490    -0.8997070
  H        3.8959980    -0.1107530    -0.8084670
  H       -1.9544520    -1.3731060    -0.4835650
units angstrom
no_reorient  #important for SAPT in psi4, default
symmetry c1  #important for SAPT in psi4, default
}

set PROPERTIES_ORIGIN ["COM"]
properties('MP2/aug-cc-pvtz', properties = ['dipole'])
--------------------------------------------------------------------------

    Molecular point group: c1
  Charge       = 0
  Multiplicity = 1
  Basis Set: AUG-CC-PVTZ
    Blend: AUG-CC-PVTZ
  Basis Set: (AUG-CC-PVTZ AUX)
    Blend: AUG-CC-PVTZ-JKFIT

    Orbital Energies [Eh]
    ---------------------

    Doubly Occupied:

       1A    -20.548697     2A    -20.534050     3A    -15.599884
       4A    -11.359145     5A    -11.298224     6A    -11.273644
       7A    -11.232284     8A    -11.223786     9A     -1.398638
      10A     -1.346819    11A     -1.244349    12A     -1.053152
      13A     -1.012722    14A     -0.902913    15A     -0.849642
      16A     -0.789547    17A     -0.745001    18A     -0.676403
      19A     -0.646476    20A     -0.641343    21A     -0.611758
      22A     -0.600541    23A     -0.577273    24A     -0.564686
      25A     -0.542926    26A     -0.534688    27A     -0.521116
      28A     -0.514727    29A     -0.502837    30A     -0.445932
      31A     -0.436639    32A     -0.403834

  @DF-RHF Final Energy:  -400.08657423392788

   => Energetics <=

    Nuclear Repulsion Energy =            400.6181311635376119
    One-Electron Energy =               -1340.1420574897431379
    Two-Electron Energy =                 539.4373520922777061
    Total Energy =                       -400.0865742339278768
  Basis Set: (AUG-CC-PVTZ AUX)
    Blend: AUG-CC-PVTZ-RI
    Molecular point group: c1

    Geometry (in Angstrom), charge = 0, multiplicity = 1:

       Center              X                  Y                   Z               Mass
    ------------   -----------------  -----------------  -----------------  -----------------
         O           -2.492678091245    -0.621195584168    -0.152397380644    15.994914619570
         O           -0.007133091245    -1.405691584168    -0.379357380644    15.994914619570
         N            0.884434908755     0.367919415832     0.735467619356    14.003074004430
         C           -1.540544091245     0.301154415832     0.333731619356    12.000000000000
         C            2.256829908755    -0.101725584168     0.604674619356    12.000000000000
         C           -0.149191091245    -0.319286584168     0.199328619356    12.000000000000
         C           -1.645986091245     1.604204415832    -0.449475380644    12.000000000000
         C            2.865685908755     0.251637415832    -0.745039380644    12.000000000000
         H           -1.732387091245     0.491786415832     1.400925619356     1.007825032230
         H            2.833498908755     0.331527415832     1.426504619356     1.007825032230
         H            2.239837908755    -1.185270584168     0.739553619356     1.007825032230
         H            0.725467508755     1.345947815832     1.012081619356     1.007825032230
         H           -1.391485091245     1.419879415832    -1.496034380644     1.007825032230
         H           -0.986873091245     2.383507415832    -0.053698380644     1.007825032230
         H           -2.675408091245     1.965030415832    -0.401735380644     1.007825032230
         H            2.284585908755    -0.214998584168    -1.542707380644     1.007825032230
         H            2.871603908755     1.333750415832    -0.898571380644     1.007825032230
         H            3.895860908755    -0.111351584168    -0.807331380644     1.007825032230
         H           -1.954589091245    -1.373704584168    -0.482429380644     1.007825032230

  Basis Set: AUG-CC-PVTZ
    Blend: AUG-CC-PVTZ
  Basis Set: (AUG-CC-PVTZ AUX)
    Blend: AUG-CC-PVTZ-JKFIT
	 Reference Energy          =    -400.0865742339278768 [Eh]
	 Singles Energy            =      -0.0000000000000000 [Eh]
	 Same-Spin Energy          =      -0.4022571230056005 [Eh]
	 Opposite-Spin Energy      =      -1.3080297876898062 [Eh]
	 Correlation Energy        =      -1.7102869106954066 [Eh]
	 Total Energy              =    -401.7968611446232785 [Eh]

	 ================> DF-SCS-MP2 Energies <==================
	-----------------------------------------------------------
	 SCS Same-Spin Scale       =       0.3333333333333333 [-]
	 SCS Opposite-Spin Scale   =       1.2000000000000000 [-]
	 SCS Same-Spin Energy      =      -0.1340857076685335 [Eh]
	 SCS Opposite-Spin Energy  =      -1.5696357452277674 [Eh]
	 SCS Correlation Energy    =      -1.7037214528963009 [Eh]
	 SCS Total Energy          =    -401.7902956868241517 [Eh]
	-----------------------------------------------------------

  Dipole Moment: [D]
     X:     2.9013      Y:     3.1947      Z:     1.3679     Total:     4.5271

*** Psi4 exiting successfully. Buy a developer a beer!
