                               Psi4 1.3.2 release

  ==> Input File <==

--------------------------------------------------------------------------
#psi4
#
memory 32 gb

molecule  {
0 1
  O       -2.4925410    -0.6205970    -0.1535330
  O       -0.0069960    -1.4050930    -0.3804930
  N        0.8845720     0.3685180     0.7343320
  C       -1.5404070     0.3017530     0.3325960
  C        2.2569670    -0.1011270     0.6035390
  C       -0.1490540    -0.3186880     0.1981930
  C       -1.6458490     1.6048030    -0.4506110
  C        2.8658230     0.2522360    -0.7461750
  H       -1.7322500     0.4923850     1.3997900
  H        2.8336360     0.3321260     1.4253690
  H        2.2399750    -1.1846720     0.7384180
  H        0.7309184     1.3697258     0.9669633
  H       -1.3913480     1.4204780    -1.4971700
  H       -0.9867360     2.3841060    -0.0548340
  H       -2.6752710     1.9656290    -0.4028710
  H        2.2847230    -0.2144000    -1.5438430
  H        2.8717410     1.3343490    -0.8997070
  H        3.8959980    -0.1107530    -0.8084670
  H       -1.9544520    -1.3731060    -0.4835650
units angstrom
no_reorient  #important for SAPT in psi4, default
symmetry c1  #important for SAPT in psi4, default
}

set PROPERTIES_ORIGIN ["COM"]
properties('MP2/aug-cc-pvtz', properties = ['dipole'])
--------------------------------------------------------------------------

    Molecular point group: c1
  Charge       = 0
  Multiplicity = 1
  Basis Set: AUG-CC-PVTZ
    Blend: AUG-CC-PVTZ
  Basis Set: (AUG-CC-PVTZ AUX)
    Blend: AUG-CC-PVTZ-JKFIT

    Orbital Energies [Eh]
    ---------------------

    Doubly Occupied:

       1A    -20.548759     2A    -20.534425     3A    -15.600548
       4A    -11.359211     5A    -11.298240     6A    -11.273459
       7A    -11.232653     8A    -11.223970     9A     -1.398800
      10A     -1.346910    11A     -1.243445    12A     -1.053253
      13A     -1.012622    14A     -0.902936    15A     -0.849720
      16A     -0.786893    17A     -0.745017    18A     -0.676335
      19A     -0.645995    20A     -0.641197    21A     -0.611561
      22A     -0.600797    23A     -0.577299    24A     -0.565042
      25A     -0.542886    26A     -0.534889    27A     -0.521064
      28A     -0.514680    29A     -0.503029    30A     -0.446013
      31A     -0.436868    32A     -0.403996

  @DF-RHF Final Energy:  -400.08557872876418

   => Energetics <=

    Nuclear Repulsion Energy =            400.5931620654341145
    One-Electron Energy =               -1340.0924571254620332
    Two-Electron Energy =                 539.4137163312636858
    Total Energy =                       -400.0855787287641760
  Basis Set: (AUG-CC-PVTZ AUX)
    Blend: AUG-CC-PVTZ-RI
    Molecular point group: c1

    Geometry (in Angstrom), charge = 0, multiplicity = 1:

       Center              X                  Y                   Z               Mass
    ------------   -----------------  -----------------  -----------------  -----------------
         O           -2.492723832852    -0.621395114262    -0.152018774112    15.994914619570
         O           -0.007178832852    -1.405891114262    -0.378978774112    15.994914619570
         N            0.884389167148     0.367719885738     0.735846225888    14.003074004430
         C           -1.540589832852     0.300954885738     0.334110225888    12.000000000000
         C            2.256784167148    -0.101925114262     0.605053225888    12.000000000000
         C           -0.149236832852    -0.319486114262     0.199707225888    12.000000000000
         C           -1.646031832852     1.604004885738    -0.449096774112    12.000000000000
         C            2.865640167148     0.251437885738    -0.744660774112    12.000000000000
         H           -1.732432832852     0.491586885738     1.401304225888     1.007825032230
         H            2.833453167148     0.331327885738     1.426883225888     1.007825032230
         H            2.239792167148    -1.185470114262     0.739932225888     1.007825032230
         H            0.730735567148     1.368927685738     0.968477525888     1.007825032230
         H           -1.391530832852     1.419679885738    -1.495655774112     1.007825032230
         H           -0.986918832852     2.383307885738    -0.053319774112     1.007825032230
         H           -2.675453832852     1.964830885738    -0.401356774112     1.007825032230
         H            2.284540167148    -0.215198114262    -1.542328774112     1.007825032230
         H            2.871558167148     1.333550885738    -0.898192774112     1.007825032230
         H            3.895815167148    -0.111551114262    -0.806952774112     1.007825032230
         H           -1.954634832852    -1.373904114262    -0.482050774112     1.007825032230

  Basis Set: AUG-CC-PVTZ
    Blend: AUG-CC-PVTZ
  Basis Set: (AUG-CC-PVTZ AUX)
    Blend: AUG-CC-PVTZ-JKFIT
	 Reference Energy          =    -400.0855787287641760 [Eh]
	 Singles Energy            =      -0.0000000000000000 [Eh]
	 Same-Spin Energy          =      -0.4023411270647104 [Eh]
	 Opposite-Spin Energy      =      -1.3082477194153577 [Eh]
	 Correlation Energy        =      -1.7105888464800680 [Eh]
	 Total Energy              =    -401.7961675752442261 [Eh]

	 ================> DF-SCS-MP2 Energies <==================
	-----------------------------------------------------------
	 SCS Same-Spin Scale       =       0.3333333333333333 [-]
	 SCS Opposite-Spin Scale   =       1.2000000000000000 [-]
	 SCS Same-Spin Energy      =      -0.1341137090215701 [Eh]
	 SCS Opposite-Spin Energy  =      -1.5698972632984292 [Eh]
	 SCS Correlation Energy    =      -1.7040109723199992 [Eh]
	 SCS Total Energy          =    -401.7895897010841963 [Eh]
	-----------------------------------------------------------

  Dipole Moment: [D]
     X:     2.8987      Y:     3.2034      Z:     1.3023     Total:     4.5123

*** Psi4 exiting successfully. Buy a developer a beer!
