                               Psi4 1.3.2 release

  ==> Input File <==

--------------------------------------------------------------------------
#psi4
#
memory 32 gb

molecule  {
0 1
  O       -2.4925410    -0.6205970    -0.1535330
  O       -0.0069960    -1.4050930    -0.3804930
  N        0.8845720     0.3685180     0.7343320
  C       -1.5795659     0.1578277     0.5928883
  C        2.2569670    -0.1011270     0.6035390
  C       -0.1490540    -0.3186880     0.1981930
  C       -1.6458490     1.6048030    -0.4506110
  C        2.8658230     0.2522360    -0.7461750
  H       -1.7322500     0.4923850     1.3997900
  H        2.8336360     0.3321260     1.4253690
  H        2.2399750    -1.1846720     0.7384180
  H        0.7096630     1.2770080     1.1428940
  H       -1.3913480     1.4204780    -1.4971700
  H       -0.9867360     2.3841060    -0.0548340
  H       -2.6752710     1.9656290    -0.4028710
  H        2.2847230    -0.2144000    -1.5438430
  H        2.8717410     1.3343490    -0.8997070
  H        3.8959980    -0.1107530    -0.8084670
  H       -1.9544520    -1.3731060    -0.4835650
units angstrom
no_reorient  #important for SAPT in psi4, default
symmetry c1  #important for SAPT in psi4, default
}

set PROPERTIES_ORIGIN ["COM"]
properties('MP2/aug-cc-pvtz', properties = ['dipole'])
--------------------------------------------------------------------------

    Molecular point group: c1
  Charge       = 0
  Multiplicity = 1
  Basis Set: AUG-CC-PVTZ
    Blend: AUG-CC-PVTZ
  Basis Set: (AUG-CC-PVTZ AUX)
    Blend: AUG-CC-PVTZ-JKFIT

    Orbital Energies [Eh]
    ---------------------

    Doubly Occupied:

       1A    -20.554444     2A    -20.532892     3A    -15.597197
       4A    -11.364797     5A    -11.299646     6A    -11.273260
       7A    -11.235593     8A    -11.221834     9A     -1.397580
      10A     -1.348394    11A     -1.244500    12A     -1.042490
      13A     -0.994115    14A     -0.901064    15A     -0.866657
      16A     -0.799259    17A     -0.754710    18A     -0.691086
      19A     -0.656775    20A     -0.633486    21A     -0.613667
      22A     -0.597476    23A     -0.565303    24A     -0.552334
      25A     -0.547450    26A     -0.544637    27A     -0.522847
      28A     -0.509917    29A     -0.497833    30A     -0.442812
      31A     -0.409868    32A     -0.390410

  @DF-RHF Final Energy:  -400.00029613858538

   => Energetics <=

    Nuclear Repulsion Energy =            398.4976118547478450
    One-Electron Energy =               -1335.7871510634074639
    Two-Electron Energy =                 537.2892430700741215
    Total Energy =                       -400.0002961385854405
  Basis Set: (AUG-CC-PVTZ AUX)
    Blend: AUG-CC-PVTZ-RI
    Molecular point group: c1

    Geometry (in Angstrom), charge = 0, multiplicity = 1:

       Center              X                  Y                   Z               Mass
    ------------   -----------------  -----------------  -----------------  -----------------
         O           -2.488527276561    -0.605845380727    -0.180211836632    15.994914619570
         O           -0.002982276561    -1.390341380727    -0.407171836632    15.994914619570
         N            0.888585723439     0.383269619273     0.707653163368    14.003074004430
         C           -1.575552176561     0.172579319273     0.566209463368    12.000000000000
         C            2.260980723439    -0.086375380727     0.576860163368    12.000000000000
         C           -0.145040276561    -0.303936380727     0.171514163368    12.000000000000
         C           -1.641835276561     1.619554619273    -0.477289836632    12.000000000000
         C            2.869836723439     0.266987619273    -0.772853836632    12.000000000000
         H           -1.728236276561     0.507136619273     1.373111163368     1.007825032230
         H            2.837649723439     0.346877619273     1.398690163368     1.007825032230
         H            2.243988723439    -1.169920380727     0.711739163368     1.007825032230
         H            0.713676723439     1.291759619273     1.116215163368     1.007825032230
         H           -1.387334276561     1.435229619273    -1.523848836632     1.007825032230
         H           -0.982722276561     2.398857619273    -0.081512836632     1.007825032230
         H           -2.671257276561     1.980380619273    -0.429549836632     1.007825032230
         H            2.288736723439    -0.199648380727    -1.570521836632     1.007825032230
         H            2.875754723439     1.349100619273    -0.926385836632     1.007825032230
         H            3.900011723439    -0.096001380727    -0.835145836632     1.007825032230
         H           -1.950438276561    -1.358354380727    -0.510243836632     1.007825032230

  Basis Set: AUG-CC-PVTZ
    Blend: AUG-CC-PVTZ
  Basis Set: (AUG-CC-PVTZ AUX)
    Blend: AUG-CC-PVTZ-JKFIT
	 Reference Energy          =    -400.0002961385853837 [Eh]
	 Singles Energy            =      -0.0000000000000000 [Eh]
	 Same-Spin Energy          =      -0.4030429074772969 [Eh]
	 Opposite-Spin Energy      =      -1.3119420513850768 [Eh]
	 Correlation Energy        =      -1.7149849588623738 [Eh]
	 Total Energy              =    -401.7152810974477575 [Eh]

	 ================> DF-SCS-MP2 Energies <==================
	-----------------------------------------------------------
	 SCS Same-Spin Scale       =       0.3333333333333333 [-]
	 SCS Opposite-Spin Scale   =       1.2000000000000000 [-]
	 SCS Same-Spin Energy      =      -0.1343476358257656 [Eh]
	 SCS Opposite-Spin Energy  =      -1.5743304616620921 [Eh]
	 SCS Correlation Energy    =      -1.7086780974878577 [Eh]
	 SCS Total Energy          =    -401.7089742360732316 [Eh]
	-----------------------------------------------------------

  Dipole Moment: [D]
     X:     2.7144      Y:     2.8352      Z:     1.8601     Total:     4.3436

*** Psi4 exiting successfully. Buy a developer a beer!
