                               Psi4 1.4a3.dev225

  ==> Input File <==

--------------------------------------------------------------------------
#psi4
#
memory 32 gb

molecule  {
0 1
  O        2.2381840    -1.1587810    -0.1175950
  O        2.2381840     1.1587830    -0.1175780
  C       -1.4506090    -0.7058110    -0.0005310
  C       -1.4506100     0.7058110    -0.0005190
  C        0.9370840    -0.6945160    -0.0405820
  C        0.9370830     0.6945180    -0.0405590
  C       -0.2384000    -1.4209720    -0.0261700
  C       -0.2384020     1.4209720    -0.0261890
  C        3.0186620    -0.0000010     0.2058680
  C       -2.7100430    -1.4384524     0.0312013
  C       -2.7532530     1.4635870     0.0322790
  H       -0.2243070    -2.5079120    -0.0340590
  H       -0.2243080     2.5079120    -0.0340480
  H        3.2379270    -0.0000100     1.2832160
  H        3.9284370     0.0000040    -0.3938210
  H       -2.5724980    -2.5416060     0.0194510
  H       -3.3330080    -1.2312860     0.9325220
  H       -3.3837460    -1.2187210    -0.8295640
  H       -3.3329960     1.2313300     0.9325330
  H       -2.5725010     2.5416050     0.0193840
  H       -3.3837580     1.2186740    -0.8295530
units angstrom
no_reorient  #important for SAPT in psi4, default
symmetry c1  #important for SAPT in psi4, default
}

set PROPERTIES_ORIGIN ["COM"]
properties('MP2/aug-cc-pvtz', properties = ['dipole'])
--------------------------------------------------------------------------

    Molecular point group: c1
  Charge       = 0
  Multiplicity = 1
  Basis Set: AUG-CC-PVTZ
    Blend: AUG-CC-PVTZ
  Basis Set: (AUG-CC-PVTZ AUX)
    Blend: AUG-CC-PVTZ-JKFIT

    Orbital Energies [Eh]
    ---------------------

    Doubly Occupied:

       1A    -20.596336     2A    -20.596281     3A    -11.352499
       4A    -11.292376     5A    -11.291097     6A    -11.242123
       7A    -11.239435     8A    -11.238512     9A    -11.238131
      10A    -11.227251    11A    -11.225366    12A     -1.467405
      13A     -1.364884    14A     -1.160656    15A     -1.056786
      16A     -1.040507    17A     -0.952840    18A     -0.942690
      19A     -0.881721    20A     -0.837000    21A     -0.795319
      22A     -0.716674    23A     -0.713353    24A     -0.677310
      25A     -0.649930    26A     -0.615349    27A     -0.611484
      28A     -0.594194    29A     -0.574337    30A     -0.570792
      31A     -0.547202    32A     -0.540788    33A     -0.534958
      34A     -0.531195    35A     -0.526311    36A     -0.505624
      37A     -0.490877    38A     -0.440508    39A     -0.334249
      40A     -0.292771

  @DF-RHF Final Energy:  -496.51098446395116

   => Energetics <=

    Nuclear Repulsion Energy =            602.2243721224468800
    One-Electron Energy =               -1870.4564626343503733
    Two-Electron Energy =                 771.7211060479523894
    Total Energy =                       -496.5109844639512175
  Basis Set: (AUG-CC-PVTZ AUX)
    Blend: AUG-CC-PVTZ-RI
    Molecular point group: c1

    Geometry (in Angstrom), charge = 0, multiplicity = 1:

       Center              X                  Y                   Z               Mass
    ------------   -----------------  -----------------  -----------------  -----------------
         O            2.156463095808    -1.160791081774    -0.110467638223    15.994914619570
         O            2.156463095808     1.156772918226    -0.110450638223    15.994914619570
         C           -1.532329904192    -0.707821081774     0.006596361777    12.000000000000
         C           -1.532330904192     0.703800918226     0.006608361777    12.000000000000
         C            0.855363095808    -0.696526081774    -0.033454638223    12.000000000000
         C            0.855362095808     0.692507918226    -0.033431638223    12.000000000000
         C           -0.320120904192    -1.422982081774    -0.019042638223    12.000000000000
         C           -0.320122904192     1.418961918226    -0.019061638223    12.000000000000
         C            2.936941095808    -0.002011081774     0.212995361777    12.000000000000
         C           -2.791763904192    -1.440462481774     0.038328661777    12.000000000000
         C           -2.834973904192     1.461576918226     0.039406361777    12.000000000000
         H           -0.306027904192    -2.509922081774    -0.026931638223     1.007825032230
         H           -0.306028904192     2.505901918226    -0.026920638223     1.007825032230
         H            3.156206095808    -0.002020081774     1.290343361777     1.007825032230
         H            3.846716095808    -0.002006081774    -0.386693638223     1.007825032230
         H           -2.654218904192    -2.543616081774     0.026578361777     1.007825032230
         H           -3.414728904192    -1.233296081774     0.939649361777     1.007825032230
         H           -3.465466904192    -1.220731081774    -0.822436638223     1.007825032230
         H           -3.414716904192     1.229319918226     0.939660361777     1.007825032230
         H           -2.654221904192     2.539594918226     0.026511361777     1.007825032230
         H           -3.465478904192     1.216663918226    -0.822425638223     1.007825032230

  Basis Set: AUG-CC-PVTZ
    Blend: AUG-CC-PVTZ
  Basis Set: (AUG-CC-PVTZ AUX)
    Blend: AUG-CC-PVTZ-JKFIT
	 Reference Energy          =    -496.5109844639511607 [Eh]
	 Singles Energy            =      -0.0000000000000000 [Eh]
	 Same-Spin Energy          =      -0.5246267182431221 [Eh]
	 Opposite-Spin Energy      =      -1.6328341412160035 [Eh]
	 Correlation Energy        =      -2.1574608594591256 [Eh]
	 Total Energy              =    -498.6684453234103103 [Eh]

	 ================> DF-SCS-MP2 Energies <==================
	-----------------------------------------------------------
	 SCS Same-Spin Scale       =       0.3333333333333333 [-]
	 SCS Opposite-Spin Scale   =       1.2000000000000000 [-]
	 SCS Same-Spin Energy      =      -0.1748755727477074 [Eh]
	 SCS Opposite-Spin Energy  =      -1.9594009694592041 [Eh]
	 SCS Correlation Energy    =      -2.1342765422069112 [Eh]
	 SCS Total Energy          =    -498.6452610061580799 [Eh]
	-----------------------------------------------------------

  Dipole Moment: [D]
     X:    -0.5617      Y:     0.0049      Z:     0.5638     Total:     0.7959

*** Psi4 exiting successfully. Buy a developer a beer!
