                               Psi4 1.4a3.dev225

  ==> Input File <==

--------------------------------------------------------------------------
#psi4
#
memory 32 gb

molecule  {
0 1
  O        2.2381840    -1.1587810    -0.1175950
  O        2.2381840     1.1587830    -0.1175780
  C       -1.4506090    -0.7058110    -0.0005310
  C       -1.4506100     0.7058110    -0.0005190
  C        0.9370840    -0.6945160    -0.0405820
  C        0.9370830     0.6945180    -0.0405590
  C       -0.2384000    -1.4209720    -0.0261700
  C       -0.2384020     1.4209720    -0.0261890
  C        3.0186620    -0.0000010     0.2058680
  C       -2.7532520    -1.4635880     0.0322900
  C       -2.7532530     1.4635870     0.0322790
  H       -0.2243070    -2.5079120    -0.0340590
  H       -0.2243080     2.5079120    -0.0340480
  H        3.2478987    -0.0000104     1.3322116
  H        3.9284370     0.0000040    -0.3938210
  H       -2.5724980    -2.5416060     0.0194510
  H       -3.3330080    -1.2312860     0.9325220
  H       -3.3837460    -1.2187210    -0.8295640
  H       -3.3329960     1.2313300     0.9325330
  H       -2.5725010     2.5416050     0.0193840
  H       -3.3837580     1.2186740    -0.8295530
units angstrom
no_reorient  #important for SAPT in psi4, default
symmetry c1  #important for SAPT in psi4, default
}

set PROPERTIES_ORIGIN ["COM"]
properties('MP2/aug-cc-pvtz', properties = ['dipole'])
--------------------------------------------------------------------------

    Molecular point group: c1
  Charge       = 0
  Multiplicity = 1
  Basis Set: AUG-CC-PVTZ
    Blend: AUG-CC-PVTZ
  Basis Set: (AUG-CC-PVTZ AUX)
    Blend: AUG-CC-PVTZ-JKFIT

    Orbital Energies [Eh]
    ---------------------

    Doubly Occupied:

       1A    -20.597147     2A    -20.597127     3A    -11.358061
       4A    -11.292473     5A    -11.291201     6A    -11.242582
       7A    -11.241484     8A    -11.238583     9A    -11.238564
      10A    -11.225494    11A    -11.225487    12A     -1.467671
      13A     -1.365387    14A     -1.158705    15A     -1.053096
      16A     -1.038587    17A     -0.952602    18A     -0.940716
      19A     -0.880470    20A     -0.837235    21A     -0.796027
      22A     -0.715815    23A     -0.707908    24A     -0.675445
      25A     -0.648369    26A     -0.615340    27A     -0.610361
      28A     -0.595431    29A     -0.574466    30A     -0.565610
      31A     -0.551696    32A     -0.541248    33A     -0.535726
      34A     -0.532863    35A     -0.527717    36A     -0.501075
      37A     -0.491585    38A     -0.440504    39A     -0.334634
      40A     -0.293515

  @DF-RHF Final Energy:  -496.51194998493406

   => Energetics <=

    Nuclear Repulsion Energy =            601.0312538549089822
    One-Electron Energy =               -1868.0903904650353979
    Two-Electron Energy =                 770.5471866251923529
    Total Energy =                       -496.5119499849340627
  Basis Set: (AUG-CC-PVTZ AUX)
    Blend: AUG-CC-PVTZ-RI
    Molecular point group: c1

    Geometry (in Angstrom), charge = 0, multiplicity = 1:

       Center              X                  Y                   Z               Mass
    ------------   -----------------  -----------------  -----------------  -----------------
         O            2.159851279841    -1.158781143325    -0.110883738652    15.994914619570
         O            2.159851279841     1.158782856675    -0.110866738652    15.994914619570
         C           -1.528941720159    -0.705811143325     0.006180261348    12.000000000000
         C           -1.528942720159     0.705810856675     0.006192261348    12.000000000000
         C            0.858751279841    -0.694516143325    -0.033870738652    12.000000000000
         C            0.858750279841     0.694517856675    -0.033847738652    12.000000000000
         C           -0.316732720159    -1.420972143325    -0.019458738652    12.000000000000
         C           -0.316734720159     1.420971856675    -0.019477738652    12.000000000000
         C            2.940329279841    -0.000001143325     0.212579261348    12.000000000000
         C           -2.831584720159    -1.463588143325     0.039001261348    12.000000000000
         C           -2.831585720159     1.463586856675     0.038990261348    12.000000000000
         H           -0.302639720159    -2.507912143325    -0.027347738652     1.007825032230
         H           -0.302640720159     2.507911856675    -0.027336738652     1.007825032230
         H            3.169565979841    -0.000010543325     1.338922861348     1.007825032230
         H            3.850104279841     0.000003856675    -0.387109738652     1.007825032230
         H           -2.650830720159    -2.541606143325     0.026162261348     1.007825032230
         H           -3.411340720159    -1.231286143325     0.939233261348     1.007825032230
         H           -3.462078720159    -1.218721143325    -0.822852738652     1.007825032230
         H           -3.411328720159     1.231329856675     0.939244261348     1.007825032230
         H           -2.650833720159     2.541604856675     0.026095261348     1.007825032230
         H           -3.462090720159     1.218673856675    -0.822841738652     1.007825032230

  Basis Set: AUG-CC-PVTZ
    Blend: AUG-CC-PVTZ
  Basis Set: (AUG-CC-PVTZ AUX)
    Blend: AUG-CC-PVTZ-JKFIT
	 Reference Energy          =    -496.5119499849340627 [Eh]
	 Singles Energy            =      -0.0000000000000000 [Eh]
	 Same-Spin Energy          =      -0.5241939670150578 [Eh]
	 Opposite-Spin Energy      =      -1.6327309229429745 [Eh]
	 Correlation Energy        =      -2.1569248899580322 [Eh]
	 Total Energy              =    -498.6688748748920830 [Eh]

	 ================> DF-SCS-MP2 Energies <==================
	-----------------------------------------------------------
	 SCS Same-Spin Scale       =       0.3333333333333333 [-]
	 SCS Opposite-Spin Scale   =       1.2000000000000000 [-]
	 SCS Same-Spin Energy      =      -0.1747313223383526 [Eh]
	 SCS Opposite-Spin Energy  =      -1.9592771075315694 [Eh]
	 SCS Correlation Energy    =      -2.1340084298699220 [Eh]
	 SCS Total Energy          =    -498.6459584148039994 [Eh]
	-----------------------------------------------------------

  Dipole Moment: [D]
     X:    -0.6170      Y:    -0.0000      Z:     0.5211     Total:     0.8077

*** Psi4 exiting successfully. Buy a developer a beer!
