                               Psi4 1.4a3.dev225

  ==> Input File <==

--------------------------------------------------------------------------
#psi4
#
memory 32 gb

molecule  {
0 1
  O        2.2381840    -1.1587810    -0.1175950
  O        2.1822392     1.2923023    -0.1216616
  C       -1.4506090    -0.7058110    -0.0005310
  C       -1.4506100     0.7058110    -0.0005190
  C        0.9370840    -0.6945160    -0.0405820
  C        0.9370830     0.6945180    -0.0405590
  C       -0.2384000    -1.4209720    -0.0261700
  C       -0.2384020     1.4209720    -0.0261890
  C        3.0186620    -0.0000010     0.2058680
  C       -2.7532520    -1.4635880     0.0322900
  C       -2.7532530     1.4635870     0.0322790
  H       -0.2243070    -2.5079120    -0.0340590
  H       -0.2243080     2.5079120    -0.0340480
  H        3.2379270    -0.0000100     1.2832160
  H        3.9284370     0.0000040    -0.3938210
  H       -2.5724980    -2.5416060     0.0194510
  H       -3.3330080    -1.2312860     0.9325220
  H       -3.3837460    -1.2187210    -0.8295640
  H       -3.3329960     1.2313300     0.9325330
  H       -2.5725010     2.5416050     0.0193840
  H       -3.3837580     1.2186740    -0.8295530
units angstrom
no_reorient  #important for SAPT in psi4, default
symmetry c1  #important for SAPT in psi4, default
}

set PROPERTIES_ORIGIN ["COM"]
properties('MP2/aug-cc-pvtz', properties = ['dipole'])
--------------------------------------------------------------------------

    Molecular point group: c1
  Charge       = 0
  Multiplicity = 1
  Basis Set: AUG-CC-PVTZ
    Blend: AUG-CC-PVTZ
  Basis Set: (AUG-CC-PVTZ AUX)
    Blend: AUG-CC-PVTZ-JKFIT

    Orbital Energies [Eh]
    ---------------------

    Doubly Occupied:

       1A    -20.604616     2A    -20.597842     3A    -11.365676
       4A    -11.292936     5A    -11.287815     6A    -11.240740
       7A    -11.239784     8A    -11.238871     9A    -11.232332
      10A    -11.224488    11A    -11.223865    12A     -1.449552
      13A     -1.356621    14A     -1.155313    15A     -1.048527
      16A     -1.035713    17A     -0.950864    18A     -0.938914
      19A     -0.890185    20A     -0.835221    21A     -0.786901
      22A     -0.710193    23A     -0.704291    24A     -0.665059
      25A     -0.650210    26A     -0.613408    27A     -0.600185
      28A     -0.594318    29A     -0.572060    30A     -0.566593
      31A     -0.550419    32A     -0.541542    33A     -0.539010
      34A     -0.535023    35A     -0.525146    36A     -0.496658
      37A     -0.491333    38A     -0.443899    39A     -0.331927
      40A     -0.293104

  @DF-RHF Final Energy:  -496.49592686024977

   => Energetics <=

    Nuclear Repulsion Energy =            598.6466705180334884
    One-Electron Energy =               -1863.4428920639825265
    Two-Electron Energy =                 768.3002946856992139
    Total Energy =                       -496.4959268602498241
  Basis Set: (AUG-CC-PVTZ AUX)
    Blend: AUG-CC-PVTZ-RI
    Molecular point group: c1

    Geometry (in Angstrom), charge = 0, multiplicity = 1:

       Center              X                  Y                   Z               Mass
    ------------   -----------------  -----------------  -----------------  -----------------
         O            2.165881089984    -1.173012219067    -0.110119446699    15.994914619570
         O            2.109936289984     1.278071080933    -0.114186046699    15.994914619570
         C           -1.522911910016    -0.720042219067     0.006944553301    12.000000000000
         C           -1.522912910016     0.691579780933     0.006956553301    12.000000000000
         C            0.864781089984    -0.708747219067    -0.033106446699    12.000000000000
         C            0.864780089984     0.680286780933    -0.033083446699    12.000000000000
         C           -0.310702910016    -1.435203219067    -0.018694446699    12.000000000000
         C           -0.310704910016     1.406740780933    -0.018713446699    12.000000000000
         C            2.946359089984    -0.014232219067     0.213343553301    12.000000000000
         C           -2.825554910016    -1.477819219067     0.039765553301    12.000000000000
         C           -2.825555910016     1.449355780933     0.039754553301    12.000000000000
         H           -0.296609910016    -2.522143219067    -0.026583446699     1.007825032230
         H           -0.296610910016     2.493680780933    -0.026572446699     1.007825032230
         H            3.165624089984    -0.014241219067     1.290691553301     1.007825032230
         H            3.856134089984    -0.014227219067    -0.386345446699     1.007825032230
         H           -2.644800910016    -2.555837219067     0.026926553301     1.007825032230
         H           -3.405310910016    -1.245517219067     0.939997553301     1.007825032230
         H           -3.456048910016    -1.232952219067    -0.822088446699     1.007825032230
         H           -3.405298910016     1.217098780933     0.940008553301     1.007825032230
         H           -2.644803910016     2.527373780933     0.026859553301     1.007825032230
         H           -3.456060910016     1.204442780933    -0.822077446699     1.007825032230

  Basis Set: AUG-CC-PVTZ
    Blend: AUG-CC-PVTZ
  Basis Set: (AUG-CC-PVTZ AUX)
    Blend: AUG-CC-PVTZ-JKFIT
	 Reference Energy          =    -496.4959268602497673 [Eh]
	 Singles Energy            =      -0.0000000000000000 [Eh]
	 Same-Spin Energy          =      -0.5255612983413327 [Eh]
	 Opposite-Spin Energy      =      -1.6374103536745417 [Eh]
	 Correlation Energy        =      -2.1629716520158744 [Eh]
	 Total Energy              =    -498.6588985122656368 [Eh]

	 ================> DF-SCS-MP2 Energies <==================
	-----------------------------------------------------------
	 SCS Same-Spin Scale       =       0.3333333333333333 [-]
	 SCS Opposite-Spin Scale   =       1.2000000000000000 [-]
	 SCS Same-Spin Energy      =      -0.1751870994471109 [Eh]
	 SCS Opposite-Spin Energy  =      -1.9648924244094499 [Eh]
	 SCS Correlation Energy    =      -2.1400795238565609 [Eh]
	 SCS Total Energy          =    -498.6360063841063379 [Eh]
	-----------------------------------------------------------

  Dipole Moment: [D]
     X:    -0.3233      Y:    -0.3049      Z:     0.6309     Total:     0.7717

*** Psi4 exiting successfully. Buy a developer a beer!
