                               Psi4 1.4a3.dev225

  ==> Input File <==

--------------------------------------------------------------------------
#psi4
#
memory 32 gb

molecule  {
0 1
  O        2.2381840    -1.1587810    -0.1175950
  O        2.2381840     1.1587830    -0.1175780
  C       -1.4506090    -0.7058110    -0.0005310
  C       -1.4506100     0.7058110    -0.0005190
  C        0.9370840    -0.6945160    -0.0405820
  C        0.9370830     0.6945180    -0.0405590
  C       -0.2384000    -1.4209720    -0.0261700
  C       -0.2384020     1.4209720    -0.0261890
  C        3.0186620    -0.0000010     0.2058680
  C       -2.7532520    -1.4635880     0.0322900
  C       -2.7532530     1.4635870     0.0322790
  H       -0.2243070    -2.5079120    -0.0340590
  H       -0.2243080     2.5079120    -0.0340480
  H        3.2379270    -0.0000100     1.2832160
  H        3.9284370     0.0000040    -0.3938210
  H       -2.5724980    -2.5416060     0.0194510
  H       -3.3330080    -1.2312860     0.9325220
  H       -3.3837460    -1.2187210    -0.8295640
  H       -3.3224136     1.2355695     0.9161001
  H       -2.5725010     2.5416050     0.0193840
  H       -3.3837580     1.2186740    -0.8295530
units angstrom
no_reorient  #important for SAPT in psi4, default
symmetry c1  #important for SAPT in psi4, default
}

set PROPERTIES_ORIGIN ["COM"]
properties('MP2/aug-cc-pvtz', properties = ['dipole'])
--------------------------------------------------------------------------

    Molecular point group: c1
  Charge       = 0
  Multiplicity = 1
  Basis Set: AUG-CC-PVTZ
    Blend: AUG-CC-PVTZ
  Basis Set: (AUG-CC-PVTZ AUX)
    Blend: AUG-CC-PVTZ-JKFIT

    Orbital Energies [Eh]
    ---------------------

    Doubly Occupied:

       1A    -20.596036     2A    -20.596013     3A    -11.352275
       4A    -11.292038     5A    -11.290766     6A    -11.242194
       7A    -11.241094     8A    -11.238222     9A    -11.238146
      10A    -11.225344    11A    -11.222882    12A     -1.467125
      13A     -1.364608    14A     -1.158457    15A     -1.053462
      16A     -1.038416    17A     -0.953071    18A     -0.943291
      19A     -0.882729    20A     -0.837059    21A     -0.795820
      22A     -0.716154    23A     -0.712683    24A     -0.675167
      25A     -0.648161    26A     -0.615003    27A     -0.611437
      28A     -0.596247    29A     -0.574031    30A     -0.566251
      31A     -0.553106    32A     -0.541009    33A     -0.535183
      34A     -0.533550    35A     -0.530348    36A     -0.500989
      37A     -0.491191    38A     -0.441772    39A     -0.334339
      40A     -0.293195

  @DF-RHF Final Energy:  -496.51438453544068

   => Energetics <=

    Nuclear Repulsion Energy =            601.3749030827575552
    One-Electron Energy =               -1868.7808443259566502
    Two-Electron Energy =                 770.8915567077583546
    Total Energy =                       -496.5143845354407404
  Basis Set: (AUG-CC-PVTZ AUX)
    Blend: AUG-CC-PVTZ-RI
    Molecular point group: c1

    Geometry (in Angstrom), charge = 0, multiplicity = 1:

       Center              X                  Y                   Z               Mass
    ------------   -----------------  -----------------  -----------------  -----------------
         O            2.159847178511    -1.158809617584    -0.110444334880    15.994914619570
         O            2.159847178511     1.158754382416    -0.110427334880    15.994914619570
         C           -1.528945821489    -0.705839617584     0.006619665120    12.000000000000
         C           -1.528946821489     0.705782382416     0.006631665120    12.000000000000
         C            0.858747178511    -0.694544617584    -0.033431334880    12.000000000000
         C            0.858746178511     0.694489382416    -0.033408334880    12.000000000000
         C           -0.316736821489    -1.421000617584    -0.019019334880    12.000000000000
         C           -0.316738821489     1.420943382416    -0.019038334880    12.000000000000
         C            2.940325178511    -0.000029617584     0.213018665120    12.000000000000
         C           -2.831588821489    -1.463616617584     0.039440665120    12.000000000000
         C           -2.831589821489     1.463558382416     0.039429665120    12.000000000000
         H           -0.302643821489    -2.507940617584    -0.026908334880     1.007825032230
         H           -0.302644821489     2.507883382416    -0.026897334880     1.007825032230
         H            3.159590178511    -0.000038617584     1.290366665120     1.007825032230
         H            3.850100178511    -0.000024617584    -0.386670334880     1.007825032230
         H           -2.650834821489    -2.541634617584     0.026601665120     1.007825032230
         H           -3.411344821489    -1.231314617584     0.939672665120     1.007825032230
         H           -3.462082821489    -1.218749617584    -0.822413334880     1.007825032230
         H           -3.400750421489     1.235540882416     0.923250765120     1.007825032230
         H           -2.650837821489     2.541576382416     0.026534665120     1.007825032230
         H           -3.462094821489     1.218645382416    -0.822402334880     1.007825032230

  Basis Set: AUG-CC-PVTZ
    Blend: AUG-CC-PVTZ
  Basis Set: (AUG-CC-PVTZ AUX)
    Blend: AUG-CC-PVTZ-JKFIT
	 Reference Energy          =    -496.5143845354406835 [Eh]
	 Singles Energy            =      -0.0000000000000000 [Eh]
	 Same-Spin Energy          =      -0.5240353911382033 [Eh]
	 Opposite-Spin Energy      =      -1.6321145355810325 [Eh]
	 Correlation Energy        =      -2.1561499267192357 [Eh]
	 Total Energy              =    -498.6705344621599352 [Eh]

	 ================> DF-SCS-MP2 Energies <==================
	-----------------------------------------------------------
	 SCS Same-Spin Scale       =       0.3333333333333333 [-]
	 SCS Opposite-Spin Scale   =       1.2000000000000000 [-]
	 SCS Same-Spin Energy      =      -0.1746784637127344 [Eh]
	 SCS Opposite-Spin Energy  =      -1.9585374426972388 [Eh]
	 SCS Correlation Energy    =      -2.1332159064099732 [Eh]
	 SCS Total Energy          =    -498.6476004418506704 [Eh]
	-----------------------------------------------------------

  Dipole Moment: [D]
     X:    -0.5806      Y:     0.0014      Z:     0.5708     Total:     0.8142

*** Psi4 exiting successfully. Buy a developer a beer!
