                               Psi4 1.4a3.dev225

  ==> Input File <==

--------------------------------------------------------------------------
#psi4
#
memory 32 gb

molecule  {
0 1
  O        2.2381840    -1.1587810    -0.1175950
  O        2.2381840     1.1587830    -0.1175780
  C       -1.4506090    -0.7058110    -0.0005310
  C       -1.4506100     0.7058110    -0.0005190
  C        0.9370840    -0.6945160    -0.0405820
  C        0.9370830     0.6945180    -0.0405590
  C       -0.2384000    -1.4209720    -0.0261700
  C       -0.2384020     1.4209720    -0.0261890
  C        3.0186620    -0.0000010     0.2058680
  C       -2.7532520    -1.4635880     0.0322900
  C       -2.7532530     1.4635870     0.0322790
  H       -0.2243070    -2.5079120    -0.0340590
  H       -0.2243080     2.5079120    -0.0340480
  H        3.2379270    -0.0000100     1.2832160
  H        3.9284370     0.0000040    -0.3938210
  H       -2.5629361    -2.5396387     0.0030591
  H       -3.3330080    -1.2312860     0.9325220
  H       -3.3837460    -1.2187210    -0.8295640
  H       -3.3329960     1.2313300     0.9325330
  H       -2.5725010     2.5416050     0.0193840
  H       -3.3837580     1.2186740    -0.8295530
units angstrom
no_reorient  #important for SAPT in psi4, default
symmetry c1  #important for SAPT in psi4, default
}

set PROPERTIES_ORIGIN ["COM"]
properties('MP2/aug-cc-pvtz', properties = ['dipole'])
--------------------------------------------------------------------------

    Molecular point group: c1
  Charge       = 0
  Multiplicity = 1
  Basis Set: AUG-CC-PVTZ
    Blend: AUG-CC-PVTZ
  Basis Set: (AUG-CC-PVTZ AUX)
    Blend: AUG-CC-PVTZ-JKFIT

    Orbital Energies [Eh]
    ---------------------

    Doubly Occupied:

       1A    -20.596099     2A    -20.596076     3A    -11.352327
       4A    -11.292121     5A    -11.290849     6A    -11.242228
       7A    -11.241130     8A    -11.238284     9A    -11.238252
      10A    -11.225335    11A    -11.225327    12A     -1.467187
      13A     -1.364670    14A     -1.158498    15A     -1.053276
      16A     -1.038380    17A     -0.952363    18A     -0.942930
      19A     -0.882451    20A     -0.836982    21A     -0.795529
      22A     -0.716189    23A     -0.712764    24A     -0.674943
      25A     -0.648080    26A     -0.615116    27A     -0.611454
      28A     -0.595349    29A     -0.574092    30A     -0.565850
      31A     -0.551700    32A     -0.540774    33A     -0.535177
      34A     -0.533548    35A     -0.530366    36A     -0.500890
      37A     -0.491131    38A     -0.441691    39A     -0.334386
      40A     -0.293197

  @DF-RHF Final Energy:  -496.51429509880609

   => Energetics <=

    Nuclear Repulsion Energy =            601.3042314879700143
    One-Electron Energy =               -1868.6430669726817086
    Two-Electron Energy =                 770.8245403859054932
    Total Energy =                       -496.5142950988060875
  Basis Set: (AUG-CC-PVTZ AUX)
    Blend: AUG-CC-PVTZ-RI
    Molecular point group: c1

    Geometry (in Angstrom), charge = 0, multiplicity = 1:

       Center              X                  Y                   Z               Mass
    ------------   -----------------  -----------------  -----------------  -----------------
         O            2.159854031970    -1.158794357976    -0.110444610227    15.994914619570
         O            2.159854031970     1.158769642024    -0.110427610227    15.994914619570
         C           -1.528938968030    -0.705824357976     0.006619389773    12.000000000000
         C           -1.528939968030     0.705797642024     0.006631389773    12.000000000000
         C            0.858754031970    -0.694529357976    -0.033431610227    12.000000000000
         C            0.858753031970     0.694504642024    -0.033408610227    12.000000000000
         C           -0.316729968030    -1.420985357976    -0.019019610227    12.000000000000
         C           -0.316731968030     1.420958642024    -0.019038610227    12.000000000000
         C            2.940332031970    -0.000014357976     0.213018389773    12.000000000000
         C           -2.831581968030    -1.463601357976     0.039440389773    12.000000000000
         C           -2.831582968030     1.463573642024     0.039429389773    12.000000000000
         H           -0.302636968030    -2.507925357976    -0.026908610227     1.007825032230
         H           -0.302637968030     2.507898642024    -0.026897610227     1.007825032230
         H            3.159597031970    -0.000023357976     1.290366389773     1.007825032230
         H            3.850107031970    -0.000009357976    -0.386670610227     1.007825032230
         H           -2.641266068030    -2.539652057976     0.010209489773     1.007825032230
         H           -3.411337968030    -1.231299357976     0.939672389773     1.007825032230
         H           -3.462075968030    -1.218734357976    -0.822413610227     1.007825032230
         H           -3.411325968030     1.231316642024     0.939683389773     1.007825032230
         H           -2.650830968030     2.541591642024     0.026534389773     1.007825032230
         H           -3.462087968030     1.218660642024    -0.822402610227     1.007825032230

  Basis Set: AUG-CC-PVTZ
    Blend: AUG-CC-PVTZ
  Basis Set: (AUG-CC-PVTZ AUX)
    Blend: AUG-CC-PVTZ-JKFIT
	 Reference Energy          =    -496.5142950988060875 [Eh]
	 Singles Energy            =      -0.0000000000000000 [Eh]
	 Same-Spin Energy          =      -0.5240535906332549 [Eh]
	 Opposite-Spin Energy      =      -1.6322517430548098 [Eh]
	 Correlation Energy        =      -2.1563053336880644 [Eh]
	 Total Energy              =    -498.6706004324941546 [Eh]

	 ================> DF-SCS-MP2 Energies <==================
	-----------------------------------------------------------
	 SCS Same-Spin Scale       =       0.3333333333333333 [-]
	 SCS Opposite-Spin Scale   =       1.2000000000000000 [-]
	 SCS Same-Spin Energy      =      -0.1746845302110849 [Eh]
	 SCS Opposite-Spin Energy  =      -1.9587020916657716 [Eh]
	 SCS Correlation Energy    =      -2.1333866218768565 [Eh]
	 SCS Total Energy          =    -498.6476817206829537 [Eh]
	-----------------------------------------------------------

  Dipole Moment: [D]
     X:    -0.5688      Y:     0.0030      Z:     0.5584     Total:     0.7971

*** Psi4 exiting successfully. Buy a developer a beer!
