                               Psi4 1.4a3.dev225

  ==> Input File <==

--------------------------------------------------------------------------
#psi4
#
memory 32 gb

molecule  {
0 1
  O        2.2381840    -1.1587810    -0.1175950
  O        2.2381840     1.1587830    -0.1175780
  C       -1.4506090    -0.7058110    -0.0005310
  C       -1.4506100     0.7058110    -0.0005190
  C        0.9370840    -0.6945160    -0.0405820
  C        0.9370830     0.6945180    -0.0405590
  C       -0.2384000    -1.4209720    -0.0261700
  C       -0.2384020     1.4209720    -0.0261890
  C        3.0186620    -0.0000010     0.2058680
  C       -2.7532520    -1.4635880     0.0322900
  C       -2.7532530     1.4635870     0.0322790
  H       -0.2243070    -2.5079120    -0.0340590
  H       -0.2243080     2.5079120    -0.0340480
  H        3.2379270    -0.0000100     1.2832160
  H        3.9284370     0.0000040    -0.3938210
  H       -2.5534322    -2.5373436    -0.0133240
  H       -3.3330080    -1.2312860     0.9325220
  H       -3.3837460    -1.2187210    -0.8295640
  H       -3.3329960     1.2313300     0.9325330
  H       -2.5725010     2.5416050     0.0193840
  H       -3.3837580     1.2186740    -0.8295530
units angstrom
no_reorient  #important for SAPT in psi4, default
symmetry c1  #important for SAPT in psi4, default
}

set PROPERTIES_ORIGIN ["COM"]
properties('MP2/aug-cc-pvtz', properties = ['dipole'])
--------------------------------------------------------------------------

    Molecular point group: c1
  Charge       = 0
  Multiplicity = 1
  Basis Set: AUG-CC-PVTZ
    Blend: AUG-CC-PVTZ
  Basis Set: (AUG-CC-PVTZ AUX)
    Blend: AUG-CC-PVTZ-JKFIT

    Orbital Energies [Eh]
    ---------------------

    Doubly Occupied:

       1A    -20.596101     2A    -20.596072     3A    -11.352327
       4A    -11.292120     5A    -11.290848     6A    -11.242145
       7A    -11.241046     8A    -11.238287     9A    -11.238233
      10A    -11.225356    11A    -11.225343    12A     -1.467187
      13A     -1.364670    14A     -1.158501    15A     -1.053297
      16A     -1.038439    17A     -0.952375    18A     -0.942914
      19A     -0.882414    20A     -0.836966    21A     -0.795472
      22A     -0.716212    23A     -0.712806    24A     -0.674871
      25A     -0.647967    26A     -0.615175    27A     -0.611662
      28A     -0.595363    29A     -0.574092    30A     -0.565826
      31A     -0.552055    32A     -0.540407    33A     -0.535281
      34A     -0.533647    35A     -0.530289    36A     -0.500967
      37A     -0.490948    38A     -0.441687    39A     -0.334390
      40A     -0.293178

  @DF-RHF Final Energy:  -496.51417634950690

   => Energetics <=

    Nuclear Repulsion Energy =            601.3234072476116125
    One-Electron Energy =               -1868.6812977076135667
    Two-Electron Energy =                 770.8437141104950570
    Total Energy =                       -496.5141763495068972
  Basis Set: (AUG-CC-PVTZ AUX)
    Blend: AUG-CC-PVTZ-RI
    Molecular point group: c1

    Geometry (in Angstrom), charge = 0, multiplicity = 1:

       Center              X                  Y                   Z               Mass
    ------------   -----------------  -----------------  -----------------  -----------------
         O            2.159790205817    -1.158809771375    -0.110334584842    15.994914619570
         O            2.159790205817     1.158754228625    -0.110317584842    15.994914619570
         C           -1.529002794183    -0.705839771375     0.006729415158    12.000000000000
         C           -1.529003794184     0.705782228625     0.006741415158    12.000000000000
         C            0.858690205817    -0.694544771375    -0.033321584842    12.000000000000
         C            0.858689205817     0.694489228625    -0.033298584842    12.000000000000
         C           -0.316793794183    -1.421000771375    -0.018909584842    12.000000000000
         C           -0.316795794183     1.420943228625    -0.018928584842    12.000000000000
         C            2.940268205816    -0.000029771375     0.213128415158    12.000000000000
         C           -2.831645794183    -1.463616771375     0.039550415158    12.000000000000
         C           -2.831646794183     1.463558228625     0.039539415158    12.000000000000
         H           -0.302700794183    -2.507940771375    -0.026798584842     1.007825032230
         H           -0.302701794183     2.507883228625    -0.026787584842     1.007825032230
         H            3.159533205816    -0.000038771375     1.290476415158     1.007825032230
         H            3.850043205816    -0.000024771375    -0.386560584842     1.007825032230
         H           -2.631825994183    -2.537372371375    -0.006063584842     1.007825032230
         H           -3.411401794183    -1.231314771375     0.939782415158     1.007825032230
         H           -3.462139794183    -1.218749771375    -0.822303584842     1.007825032230
         H           -3.411389794183     1.231301228625     0.939793415158     1.007825032230
         H           -2.650894794183     2.541576228625     0.026644415158     1.007825032230
         H           -3.462151794183     1.218645228625    -0.822292584842     1.007825032230

  Basis Set: AUG-CC-PVTZ
    Blend: AUG-CC-PVTZ
  Basis Set: (AUG-CC-PVTZ AUX)
    Blend: AUG-CC-PVTZ-JKFIT
	 Reference Energy          =    -496.5141763495068972 [Eh]
	 Singles Energy            =      -0.0000000000000000 [Eh]
	 Same-Spin Energy          =      -0.5240665593235341 [Eh]
	 Opposite-Spin Energy      =      -1.6322697773006598 [Eh]
	 Correlation Energy        =      -2.1563363366241939 [Eh]
	 Total Energy              =    -498.6705126861310760 [Eh]

	 ================> DF-SCS-MP2 Energies <==================
	-----------------------------------------------------------
	 SCS Same-Spin Scale       =       0.3333333333333333 [-]
	 SCS Opposite-Spin Scale   =       1.2000000000000000 [-]
	 SCS Same-Spin Energy      =      -0.1746888531078447 [Eh]
	 SCS Opposite-Spin Energy  =      -1.9587237327607916 [Eh]
	 SCS Correlation Energy    =      -2.1334125858686361 [Eh]
	 SCS Total Energy          =    -498.6475889353755520 [Eh]
	-----------------------------------------------------------

  Dipole Moment: [D]
     X:    -0.5673      Y:     0.0061      Z:     0.5529     Total:     0.7922

*** Psi4 exiting successfully. Buy a developer a beer!
