                               Psi4 1.4a3.dev225

  ==> Input File <==

--------------------------------------------------------------------------
#psi4
#
memory 32 gb

molecule  {
0 1
  O        2.2381840    -1.1587810    -0.1175950
  O        2.2381840     1.1587830    -0.1175780
  C       -1.4506090    -0.7058110    -0.0005310
  C       -1.4506100     0.7058110    -0.0005190
  C        0.9370840    -0.6945160    -0.0405820
  C        0.9370830     0.6945180    -0.0405590
  C       -0.2384000    -1.4209720    -0.0261700
  C       -0.2384020     1.4209720    -0.0261890
  C        3.0186620    -0.0000010     0.2058680
  C       -2.7532520    -1.4635880     0.0322900
  C       -2.7532530     1.4635870     0.0322790
  H       -0.2243070    -2.5079120    -0.0340590
  H       -0.2243080     2.5079120    -0.0340480
  H        3.2379270    -0.0000100     1.2832160
  H        3.9284370     0.0000040    -0.3938210
  H       -2.5724980    -2.5416060     0.0194510
  H       -3.3330080    -1.2312860     0.9325220
  H       -3.3837460    -1.2187210    -0.8295640
  H       -3.2730971     1.2547661     0.9739044
  H       -2.5725010     2.5416050     0.0193840
  H       -3.3837580     1.2186740    -0.8295530
units angstrom
no_reorient  #important for SAPT in psi4, default
symmetry c1  #important for SAPT in psi4, default
}

set PROPERTIES_ORIGIN ["COM"]
properties('MP2/aug-cc-pvtz', properties = ['dipole'])
--------------------------------------------------------------------------

    Molecular point group: c1
  Charge       = 0
  Multiplicity = 1
  Basis Set: AUG-CC-PVTZ
    Blend: AUG-CC-PVTZ
  Basis Set: (AUG-CC-PVTZ AUX)
    Blend: AUG-CC-PVTZ-JKFIT

    Orbital Energies [Eh]
    ---------------------

    Doubly Occupied:

       1A    -20.595974     2A    -20.595929     3A    -11.352224
       4A    -11.291925     5A    -11.290652     6A    -11.241964
       7A    -11.240847     8A    -11.238153     9A    -11.237932
      10A    -11.225375    11A    -11.225112    12A     -1.467055
      13A     -1.364538    14A     -1.158373    15A     -1.053242
      16A     -1.038300    17A     -0.952371    18A     -0.942735
      19A     -0.882198    20A     -0.836796    21A     -0.795132
      22A     -0.715890    23A     -0.712487    24A     -0.674413
      25A     -0.648050    26A     -0.614852    27A     -0.610362
      28A     -0.598657    29A     -0.573976    30A     -0.564744
      31A     -0.555163    32A     -0.540348    33A     -0.534696
      34A     -0.532350    35A     -0.529718    36A     -0.498671
      37A     -0.491123    38A     -0.441788    39A     -0.334275
      40A     -0.293127

  @DF-RHF Final Energy:  -496.51381345480240

   => Energetics <=

    Nuclear Repulsion Energy =            601.3377628909451005
    One-Electron Energy =               -1868.7201126823397317
    Two-Electron Energy =                 770.8685363365921148
    Total Energy =                       -496.5138134548024027
  Basis Set: (AUG-CC-PVTZ AUX)
    Blend: AUG-CC-PVTZ-RI
    Molecular point group: c1

    Geometry (in Angstrom), charge = 0, multiplicity = 1:

       Center              X                  Y                   Z               Mass
    ------------   -----------------  -----------------  -----------------  -----------------
         O            2.159515979476    -1.158938537831    -0.110832536160    15.994914619570
         O            2.159515979476     1.158625462169    -0.110815536160    15.994914619570
         C           -1.529277020524    -0.705968537831     0.006231463840    12.000000000000
         C           -1.529278020524     0.705653462169     0.006243463840    12.000000000000
         C            0.858415979476    -0.694673537831    -0.033819536160    12.000000000000
         C            0.858414979476     0.694360462169    -0.033796536160    12.000000000000
         C           -0.317068020524    -1.421129537831    -0.019407536160    12.000000000000
         C           -0.317070020524     1.420814462169    -0.019426536160    12.000000000000
         C            2.939993979476    -0.000158537831     0.212630463840    12.000000000000
         C           -2.831920020524    -1.463745537831     0.039052463840    12.000000000000
         C           -2.831921020524     1.463429462169     0.039041463840    12.000000000000
         H           -0.302975020524    -2.508069537831    -0.027296536160     1.007825032230
         H           -0.302976020524     2.507754462169    -0.027285536160     1.007825032230
         H            3.159258979476    -0.000167537831     1.289978463840     1.007825032230
         H            3.849768979476    -0.000153537831    -0.387058536160     1.007825032230
         H           -2.651166020524    -2.541763537831     0.026213463840     1.007825032230
         H           -3.411676020524    -1.231443537831     0.939284463840     1.007825032230
         H           -3.462414020524    -1.218878537831    -0.822801536160     1.007825032230
         H           -3.351765120524     1.254608562169     0.980666863840     1.007825032230
         H           -2.651169020524     2.541447462169     0.026146463840     1.007825032230
         H           -3.462426020524     1.218516462169    -0.822790536160     1.007825032230

  Basis Set: AUG-CC-PVTZ
    Blend: AUG-CC-PVTZ
  Basis Set: (AUG-CC-PVTZ AUX)
    Blend: AUG-CC-PVTZ-JKFIT
	 Reference Energy          =    -496.5138134548024027 [Eh]
	 Singles Energy            =      -0.0000000000000000 [Eh]
	 Same-Spin Energy          =      -0.5240528431595590 [Eh]
	 Opposite-Spin Energy      =      -1.6323106740744360 [Eh]
	 Correlation Energy        =      -2.1563635172339950 [Eh]
	 Total Energy              =    -498.6701769720364155 [Eh]

	 ================> DF-SCS-MP2 Energies <==================
	-----------------------------------------------------------
	 SCS Same-Spin Scale       =       0.3333333333333333 [-]
	 SCS Opposite-Spin Scale   =       1.2000000000000000 [-]
	 SCS Same-Spin Energy      =      -0.1746842810531863 [Eh]
	 SCS Opposite-Spin Energy  =      -1.9587728088893230 [Eh]
	 SCS Correlation Energy    =      -2.1334570899425094 [Eh]
	 SCS Total Energy          =    -498.6472705447449130 [Eh]
	-----------------------------------------------------------

  Dipole Moment: [D]
     X:    -0.5644      Y:     0.0194      Z:     0.5731     Total:     0.8046

*** Psi4 exiting successfully. Buy a developer a beer!
