                               Psi4 1.4a3.dev225

  ==> Input File <==

--------------------------------------------------------------------------
#psi4
#
memory 32 gb

molecule  {
0 1
  O        2.2381840    -1.1587810    -0.1175950
  O        2.2381840     1.1587830    -0.1175780
  C       -1.4506090    -0.7058110    -0.0005310
  C       -1.4506100     0.7058110    -0.0005190
  C        0.9370840    -0.6945160    -0.0405820
  C        0.9370830     0.6945180    -0.0405590
  C       -0.2384000    -1.4209720    -0.0261700
  C       -0.2384020     1.4209720    -0.0261890
  C        3.0186620    -0.0000010     0.2058680
  C       -2.7532520    -1.4635880     0.0322900
  C       -2.7532530     1.4635870     0.0322790
  H       -0.2243070    -2.5079120    -0.0340590
  H       -0.2243080     2.5079120    -0.0340480
  H        3.2379270    -0.0000100     1.2832160
  H        3.9284370     0.0000040    -0.3938210
  H       -2.5724980    -2.5416060     0.0194510
  H       -3.3330080    -1.2312860     0.9325220
  H       -3.3837460    -1.2187210    -0.8295640
  H       -3.3900705     1.2090254     0.8867756
  H       -2.5725010     2.5416050     0.0193840
  H       -3.3837580     1.2186740    -0.8295530
units angstrom
no_reorient  #important for SAPT in psi4, default
symmetry c1  #important for SAPT in psi4, default
}

set PROPERTIES_ORIGIN ["COM"]
properties('MP2/aug-cc-pvtz', properties = ['dipole'])
--------------------------------------------------------------------------

    Molecular point group: c1
  Charge       = 0
  Multiplicity = 1
  Basis Set: AUG-CC-PVTZ
    Blend: AUG-CC-PVTZ
  Basis Set: (AUG-CC-PVTZ AUX)
    Blend: AUG-CC-PVTZ-JKFIT

    Orbital Energies [Eh]
    ---------------------

    Doubly Occupied:

       1A    -20.596220     2A    -20.596196     3A    -11.352418
       4A    -11.292300     5A    -11.291028     6A    -11.242718
       7A    -11.241565     8A    -11.238595     9A    -11.238396
      10A    -11.225510    11A    -11.225306    12A     -1.467306
      13A     -1.364788    14A     -1.158629    15A     -1.053310
      16A     -1.038375    17A     -0.952421    18A     -0.943195
      19A     -0.882802    20A     -0.837215    21A     -0.796061
      22A     -0.716459    23A     -0.712945    24A     -0.675661
      25A     -0.648346    26A     -0.615283    27A     -0.612221
      28A     -0.592625    29A     -0.574215    30A     -0.567209
      31A     -0.547425    32A     -0.541864    33A     -0.535818
      34A     -0.534280    35A     -0.530306    36A     -0.502571
      37A     -0.491468    38A     -0.441461    39A     -0.334453
      40A     -0.293232

  @DF-RHF Final Energy:  -496.51376457499111

   => Energetics <=

    Nuclear Repulsion Energy =            601.2392907849751964
    One-Electron Energy =               -1868.5017141929579338
    Two-Electron Energy =                 770.7486588329915094
    Total Energy =                       -496.5137645749911144
  Basis Set: (AUG-CC-PVTZ AUX)
    Blend: AUG-CC-PVTZ-RI
    Molecular point group: c1

    Geometry (in Angstrom), charge = 0, multiplicity = 1:

       Center              X                  Y                   Z               Mass
    ------------   -----------------  -----------------  -----------------  -----------------
         O            2.160301547739    -1.158631353102    -0.110247397828    15.994914619570
         O            2.160301547739     1.158932646898    -0.110230397828    15.994914619570
         C           -1.528491452261    -0.705661353102     0.006816602172    12.000000000000
         C           -1.528492452261     0.705960646898     0.006828602172    12.000000000000
         C            0.859201547739    -0.694366353102    -0.033234397828    12.000000000000
         C            0.859200547739     0.694667646898    -0.033211397828    12.000000000000
         C           -0.316282452261    -1.420822353102    -0.018822397828    12.000000000000
         C           -0.316284452261     1.421121646898    -0.018841397828    12.000000000000
         C            2.940779547739     0.000148646898     0.213215602172    12.000000000000
         C           -2.831134452261    -1.463438353102     0.039637602172    12.000000000000
         C           -2.831135452261     1.463736646898     0.039626602172    12.000000000000
         H           -0.302189452261    -2.507762353102    -0.026711397828     1.007825032230
         H           -0.302190452261     2.508061646898    -0.026700397828     1.007825032230
         H            3.160044547739     0.000139646898     1.290563602172     1.007825032230
         H            3.850554547739     0.000153646898    -0.386473397828     1.007825032230
         H           -2.650380452261    -2.541456353102     0.026798602172     1.007825032230
         H           -3.410890452261    -1.231136353102     0.939869602172     1.007825032230
         H           -3.461628452261    -1.218571353102    -0.822216397828     1.007825032230
         H           -3.467952952261     1.209175046898     0.894123202172     1.007825032230
         H           -2.650383452261     2.541754646898     0.026731602172     1.007825032230
         H           -3.461640452261     1.218823646898    -0.822205397828     1.007825032230

  Basis Set: AUG-CC-PVTZ
    Blend: AUG-CC-PVTZ
  Basis Set: (AUG-CC-PVTZ AUX)
    Blend: AUG-CC-PVTZ-JKFIT
	 Reference Energy          =    -496.5137645749911144 [Eh]
	 Singles Energy            =      -0.0000000000000000 [Eh]
	 Same-Spin Energy          =      -0.5240911104775894 [Eh]
	 Opposite-Spin Energy      =      -1.6322390080111560 [Eh]
	 Correlation Energy        =      -2.1563301184887456 [Eh]
	 Total Energy              =    -498.6700946934798822 [Eh]

	 ================> DF-SCS-MP2 Energies <==================
	-----------------------------------------------------------
	 SCS Same-Spin Scale       =       0.3333333333333333 [-]
	 SCS Opposite-Spin Scale   =       1.2000000000000000 [-]
	 SCS Same-Spin Energy      =      -0.1746970368258631 [Eh]
	 SCS Opposite-Spin Energy  =      -1.9586868096133871 [Eh]
	 SCS Correlation Energy    =      -2.1333838464392501 [Eh]
	 SCS Total Energy          =    -498.6471484214303587 [Eh]
	-----------------------------------------------------------

  Dipole Moment: [D]
     X:    -0.5785      Y:    -0.0180      Z:     0.5522     Total:     0.7999

*** Psi4 exiting successfully. Buy a developer a beer!
