                               Psi4 1.4a3.dev225

  ==> Input File <==

--------------------------------------------------------------------------
#psi4
#
memory 32 gb

molecule  {
0 1
  O        2.2392723    -1.1101518    -0.2596019
  O        2.2381840     1.1587830    -0.1175780
  C       -1.4506090    -0.7058110    -0.0005310
  C       -1.4506100     0.7058110    -0.0005190
  C        0.9370840    -0.6945160    -0.0405820
  C        0.9370830     0.6945180    -0.0405590
  C       -0.2384000    -1.4209720    -0.0261700
  C       -0.2384020     1.4209720    -0.0261890
  C        3.0186620    -0.0000010     0.2058680
  C       -2.7532520    -1.4635880     0.0322900
  C       -2.7532530     1.4635870     0.0322790
  H       -0.2243070    -2.5079120    -0.0340590
  H       -0.2243080     2.5079120    -0.0340480
  H        3.2379270    -0.0000100     1.2832160
  H        3.9284370     0.0000040    -0.3938210
  H       -2.5724980    -2.5416060     0.0194510
  H       -3.3330080    -1.2312860     0.9325220
  H       -3.3837460    -1.2187210    -0.8295640
  H       -3.3329960     1.2313300     0.9325330
  H       -2.5725010     2.5416050     0.0193840
  H       -3.3837580     1.2186740    -0.8295530
units angstrom
no_reorient  #important for SAPT in psi4, default
symmetry c1  #important for SAPT in psi4, default
}

set PROPERTIES_ORIGIN ["COM"]
properties('MP2/aug-cc-pvtz', properties = ['dipole'])
--------------------------------------------------------------------------

    Molecular point group: c1
  Charge       = 0
  Multiplicity = 1
  Basis Set: AUG-CC-PVTZ
    Blend: AUG-CC-PVTZ
  Basis Set: (AUG-CC-PVTZ AUX)
    Blend: AUG-CC-PVTZ-JKFIT

    Orbital Energies [Eh]
    ---------------------

    Doubly Occupied:

       1A    -20.595470     2A    -20.593615     3A    -11.352824
       4A    -11.290911     5A    -11.289224     6A    -11.242803
       7A    -11.241370     8A    -11.239429     9A    -11.237502
      10A    -11.225555    11A    -11.225358    12A     -1.468574
      13A     -1.360518    14A     -1.158448    15A     -1.053265
      16A     -1.038241    17A     -0.952104    18A     -0.943516
      19A     -0.881738    20A     -0.836887    21A     -0.793463
      22A     -0.717432    23A     -0.714365    24A     -0.674533
      25A     -0.645165    26A     -0.615469    27A     -0.614122
      28A     -0.595271    29A     -0.575185    30A     -0.566540
      31A     -0.551598    32A     -0.540723    33A     -0.533249
      34A     -0.528512    35A     -0.525632    36A     -0.499658
      37A     -0.490160    38A     -0.444625    39A     -0.334632
      40A     -0.294153

  @DF-RHF Final Energy:  -496.51058315475586

   => Energetics <=

    Nuclear Repulsion Energy =            601.6810028622803657
    One-Electron Energy =               -1869.4194973583955743
    Two-Electron Energy =                 771.2279113413593450
    Total Energy =                       -496.5105831547558637
  Basis Set: (AUG-CC-PVTZ AUX)
    Blend: AUG-CC-PVTZ-RI
    Molecular point group: c1

    Geometry (in Angstrom), charge = 0, multiplicity = 1:

       Center              X                  Y                   Z               Mass
    ------------   -----------------  -----------------  -----------------  -----------------
         O            2.160890551849    -1.115335059597    -0.237425875993    15.994914619570
         O            2.159802251849     1.153599740403    -0.095401975993    15.994914619570
         C           -1.528990748151    -0.710994259597     0.021645024007    12.000000000000
         C           -1.528991748151     0.700627740403     0.021657024007    12.000000000000
         C            0.858702251849    -0.699699259597    -0.018405975993    12.000000000000
         C            0.858701251849     0.689334740403    -0.018382975993    12.000000000000
         C           -0.316781748151    -1.426155259597    -0.003993975993    12.000000000000
         C           -0.316783748151     1.415788740403    -0.004012975993    12.000000000000
         C            2.940280251849    -0.005184259597     0.228044024007    12.000000000000
         C           -2.831633748151    -1.468771259597     0.054466024007    12.000000000000
         C           -2.831634748151     1.458403740403     0.054455024007    12.000000000000
         H           -0.302688748151    -2.513095259597    -0.011882975993     1.007825032230
         H           -0.302689748151     2.502728740403    -0.011871975993     1.007825032230
         H            3.159545251849    -0.005193259597     1.305392024007     1.007825032230
         H            3.850055251849    -0.005179259597    -0.371644975993     1.007825032230
         H           -2.650879748151    -2.546789259597     0.041627024007     1.007825032230
         H           -3.411389748151    -1.236469259597     0.954698024007     1.007825032230
         H           -3.462127748151    -1.223904259597    -0.807387975993     1.007825032230
         H           -3.411377748151     1.226146740403     0.954709024007     1.007825032230
         H           -2.650882748151     2.536421740403     0.041560024007     1.007825032230
         H           -3.462139748151     1.213490740403    -0.807376975993     1.007825032230

  Basis Set: AUG-CC-PVTZ
    Blend: AUG-CC-PVTZ
  Basis Set: (AUG-CC-PVTZ AUX)
    Blend: AUG-CC-PVTZ-JKFIT
	 Reference Energy          =    -496.5105831547558637 [Eh]
	 Singles Energy            =      -0.0000000000000000 [Eh]
	 Same-Spin Energy          =      -0.5243459742104507 [Eh]
	 Opposite-Spin Energy      =      -1.6326051054343611 [Eh]
	 Correlation Energy        =      -2.1569510796448119 [Eh]
	 Total Energy              =    -498.6675342344006481 [Eh]

	 ================> DF-SCS-MP2 Energies <==================
	-----------------------------------------------------------
	 SCS Same-Spin Scale       =       0.3333333333333333 [-]
	 SCS Opposite-Spin Scale   =       1.2000000000000000 [-]
	 SCS Same-Spin Energy      =      -0.1747819914034835 [Eh]
	 SCS Opposite-Spin Energy  =      -1.9591261265212332 [Eh]
	 SCS Correlation Energy    =      -2.1339081179247166 [Eh]
	 SCS Total Energy          =    -498.6444912726805683 [Eh]
	-----------------------------------------------------------

  Dipole Moment: [D]
     X:    -0.5988      Y:    -0.0461      Z:     0.7341     Total:     0.9485

*** Psi4 exiting successfully. Buy a developer a beer!
