                               Psi4 1.4a3.dev225

  ==> Input File <==

--------------------------------------------------------------------------
#psi4
#
memory 32 gb

molecule  {
0 1
  O        2.2381840    -1.1587810    -0.1175950
  O        2.2381840     1.1587830    -0.1175780
  C       -1.4506090    -0.7058110    -0.0005310
  C       -1.4506100     0.7058110    -0.0005190
  C        0.9370840    -0.6945160    -0.0405820
  C        0.9370830     0.6945180    -0.0405590
  C       -0.2384000    -1.4209720    -0.0261700
  C       -0.2384020     1.4209720    -0.0261890
  C        3.0186620    -0.0000010     0.2058680
  C       -2.7532520    -1.4635880     0.0322900
  C       -2.7532530     1.4635870     0.0322790
  H       -0.2245663    -2.4879142    -0.0339139
  H       -0.2243080     2.5079120    -0.0340480
  H        3.2379270    -0.0000100     1.2832160
  H        3.9284370     0.0000040    -0.3938210
  H       -2.5724980    -2.5416060     0.0194510
  H       -3.3330080    -1.2312860     0.9325220
  H       -3.3837460    -1.2187210    -0.8295640
  H       -3.3329960     1.2313300     0.9325330
  H       -2.5725010     2.5416050     0.0193840
  H       -3.3837580     1.2186740    -0.8295530
units angstrom
no_reorient  #important for SAPT in psi4, default
symmetry c1  #important for SAPT in psi4, default
}

set PROPERTIES_ORIGIN ["COM"]
properties('MP2/aug-cc-pvtz', properties = ['dipole'])
--------------------------------------------------------------------------

    Molecular point group: c1
  Charge       = 0
  Multiplicity = 1
  Basis Set: AUG-CC-PVTZ
    Blend: AUG-CC-PVTZ
  Basis Set: (AUG-CC-PVTZ AUX)
    Blend: AUG-CC-PVTZ-JKFIT

    Orbital Energies [Eh]
    ---------------------

    Doubly Occupied:

       1A    -20.596070     2A    -20.596017     3A    -11.352299
       4A    -11.291976     5A    -11.290703     6A    -11.242155
       7A    -11.241044     8A    -11.238223     9A    -11.236026
      10A    -11.225343    11A    -11.225246    12A     -1.467143
      13A     -1.364634    14A     -1.158517    15A     -1.053187
      16A     -1.038776    17A     -0.952551    18A     -0.942965
      19A     -0.882496    20A     -0.838044    21A     -0.795592
      22A     -0.716556    23A     -0.712870    24A     -0.675299
      25A     -0.648903    26A     -0.617415    27A     -0.611341
      28A     -0.595320    29A     -0.574097    30A     -0.565859
      31A     -0.551495    32A     -0.541132    33A     -0.535105
      34A     -0.533430    35A     -0.530399    36A     -0.500710
      37A     -0.491881    38A     -0.441624    39A     -0.334319
      40A     -0.293119

  @DF-RHF Final Energy:  -496.51449109202747

   => Energetics <=

    Nuclear Repulsion Energy =            601.3964348250935927
    One-Electron Energy =               -1868.8220891966163890
    Two-Electron Energy =                 770.9111632794953266
    Total Energy =                       -496.5144910920274697
  Basis Set: (AUG-CC-PVTZ AUX)
    Blend: AUG-CC-PVTZ-RI
    Molecular point group: c1

    Geometry (in Angstrom), charge = 0, multiplicity = 1:

       Center              X                  Y                   Z               Mass
    ------------   -----------------  -----------------  -----------------  -----------------
         O            2.159919989043    -1.158915446946    -0.110555669172    15.994914619570
         O            2.159919989043     1.158648553054    -0.110538669172    15.994914619570
         C           -1.528873010957    -0.705945446946     0.006508330828    12.000000000000
         C           -1.528874010957     0.705676553054     0.006520330828    12.000000000000
         C            0.858819989043    -0.694650446946    -0.033542669172    12.000000000000
         C            0.858818989043     0.694383553054    -0.033519669172    12.000000000000
         C           -0.316664010957    -1.421106446946    -0.019130669172    12.000000000000
         C           -0.316666010957     1.420837553054    -0.019149669172    12.000000000000
         C            2.940397989043    -0.000135446946     0.212907330828    12.000000000000
         C           -2.831516010957    -1.463722446946     0.039329330828    12.000000000000
         C           -2.831517010957     1.463452553054     0.039318330828    12.000000000000
         H           -0.302830310957    -2.488048646946    -0.026874569172     1.007825032230
         H           -0.302572010957     2.507777553054    -0.027008669172     1.007825032230
         H            3.159662989043    -0.000144446946     1.290255330828     1.007825032230
         H            3.850172989043    -0.000130446946    -0.386781669172     1.007825032230
         H           -2.650762010957    -2.541740446946     0.026490330828     1.007825032230
         H           -3.411272010957    -1.231420446946     0.939561330828     1.007825032230
         H           -3.462010010957    -1.218855446946    -0.822524669172     1.007825032230
         H           -3.411260010957     1.231195553054     0.939572330828     1.007825032230
         H           -2.650765010957     2.541470553054     0.026423330828     1.007825032230
         H           -3.462022010957     1.218539553054    -0.822513669172     1.007825032230

  Basis Set: AUG-CC-PVTZ
    Blend: AUG-CC-PVTZ
  Basis Set: (AUG-CC-PVTZ AUX)
    Blend: AUG-CC-PVTZ-JKFIT
	 Reference Energy          =    -496.5144910920274697 [Eh]
	 Singles Energy            =      -0.0000000000000000 [Eh]
	 Same-Spin Energy          =      -0.5239940391696575 [Eh]
	 Opposite-Spin Energy      =      -1.6320931204553644 [Eh]
	 Correlation Energy        =      -2.1560871596250220 [Eh]
	 Total Energy              =    -498.6705782516525005 [Eh]

	 ================> DF-SCS-MP2 Energies <==================
	-----------------------------------------------------------
	 SCS Same-Spin Scale       =       0.3333333333333333 [-]
	 SCS Opposite-Spin Scale   =       1.2000000000000000 [-]
	 SCS Same-Spin Energy      =      -0.1746646797232191 [Eh]
	 SCS Opposite-Spin Energy  =      -1.9585117445464371 [Eh]
	 SCS Correlation Energy    =      -2.1331764242696560 [Eh]
	 SCS Total Energy          =    -498.6476675162971333 [Eh]
	-----------------------------------------------------------

  Dipole Moment: [D]
     X:    -0.5703      Y:    -0.0040      Z:     0.5639     Total:     0.8021

*** Psi4 exiting successfully. Buy a developer a beer!
