                               Psi4 1.4a3.dev225

  ==> Input File <==

--------------------------------------------------------------------------
#psi4
#
memory 32 gb

molecule  {
0 1
  O        2.2381840    -1.1587810    -0.1175950
  O        2.2381840     1.1587830    -0.1175780
  C       -1.4506090    -0.7058110    -0.0005310
  C       -1.4506100     0.7058110    -0.0005190
  C        0.9370840    -0.6945160    -0.0405820
  C        0.9370830     0.6945180    -0.0405590
  C       -0.2384000    -1.4209720    -0.0261700
  C       -0.2384020     1.4209720    -0.0261890
  C        3.0186620    -0.0000010     0.2058680
  C       -2.7532520    -1.4635880     0.0322900
  C       -2.7532530     1.4635870     0.0322790
  H       -0.2243070    -2.5079120    -0.0340590
  H       -0.2243080     2.5079120    -0.0340480
  H        3.2379270    -0.0000100     1.2832160
  H        4.0954232     0.0000049    -0.5038919
  H       -2.5724980    -2.5416060     0.0194510
  H       -3.3330080    -1.2312860     0.9325220
  H       -3.3837460    -1.2187210    -0.8295640
  H       -3.3329960     1.2313300     0.9325330
  H       -2.5725010     2.5416050     0.0193840
  H       -3.3837580     1.2186740    -0.8295530
units angstrom
no_reorient  #important for SAPT in psi4, default
symmetry c1  #important for SAPT in psi4, default
}

set PROPERTIES_ORIGIN ["COM"]
properties('MP2/aug-cc-pvtz', properties = ['dipole'])
--------------------------------------------------------------------------

    Molecular point group: c1
  Charge       = 0
  Multiplicity = 1
  Basis Set: AUG-CC-PVTZ
    Blend: AUG-CC-PVTZ
  Basis Set: (AUG-CC-PVTZ AUX)
    Blend: AUG-CC-PVTZ-JKFIT

    Orbital Energies [Eh]
    ---------------------

    Doubly Occupied:

       1A    -20.599011     2A    -20.598991     3A    -11.373648
       4A    -11.293627     5A    -11.292355     6A    -11.243366
       7A    -11.242270     8A    -11.239492     9A    -11.239469
      10A    -11.226045    11A    -11.226038    12A     -1.469104
      13A     -1.367030    14A     -1.159301    15A     -1.052421
      16A     -1.039375    17A     -0.953314    18A     -0.934710
      19A     -0.877927    20A     -0.837242    21A     -0.796910
      22A     -0.714534    23A     -0.707593    24A     -0.676375
      25A     -0.641060    26A     -0.616220    27A     -0.603726
      28A     -0.593869    29A     -0.576202    30A     -0.566631
      31A     -0.552259    32A     -0.541895    33A     -0.536701
      34A     -0.534002    35A     -0.513487    36A     -0.501740
      37A     -0.492230    38A     -0.439038    39A     -0.335496
      40A     -0.294338

  @DF-RHF Final Energy:  -496.49270834905337

   => Energetics <=

    Nuclear Repulsion Energy =            600.2849803723199784
    One-Electron Energy =               -1866.5572951322571953
    Two-Electron Energy =                 769.7796064108838436
    Total Energy =                       -496.4927083490533732
  Basis Set: (AUG-CC-PVTZ AUX)
    Blend: AUG-CC-PVTZ-RI
    Molecular point group: c1

    Geometry (in Angstrom), charge = 0, multiplicity = 1:

       Center              X                  Y                   Z               Mass
    ------------   -----------------  -----------------  -----------------  -----------------
         O            2.158796804140    -1.158781152055    -0.109815482158    15.994914619570
         O            2.158796804140     1.158782847945    -0.109798482158    15.994914619570
         C           -1.529996195860    -0.705811152055     0.007248517842    12.000000000000
         C           -1.529997195860     0.705810847945     0.007260517842    12.000000000000
         C            0.857696804140    -0.694516152055    -0.032802482158    12.000000000000
         C            0.857695804140     0.694517847945    -0.032779482158    12.000000000000
         C           -0.317787195860    -1.420972152055    -0.018390482158    12.000000000000
         C           -0.317789195860     1.420971847945    -0.018409482158    12.000000000000
         C            2.939274804140    -0.000001152055     0.213647517842    12.000000000000
         C           -2.832639195860    -1.463588152055     0.040069517842    12.000000000000
         C           -2.832640195860     1.463586847945     0.040058517842    12.000000000000
         H           -0.303694195860    -2.507912152055    -0.026279482158     1.007825032230
         H           -0.303695195860     2.507911847945    -0.026268482158     1.007825032230
         H            3.158539804140    -0.000010152055     1.290995517842     1.007825032230
         H            4.016036004140     0.000004747945    -0.496112382158     1.007825032230
         H           -2.651885195860    -2.541606152055     0.027230517842     1.007825032230
         H           -3.412395195860    -1.231286152055     0.940301517842     1.007825032230
         H           -3.463133195860    -1.218721152055    -0.821784482158     1.007825032230
         H           -3.412383195860     1.231329847945     0.940312517842     1.007825032230
         H           -2.651888195860     2.541604847945     0.027163517842     1.007825032230
         H           -3.463145195860     1.218673847945    -0.821773482158     1.007825032230

  Basis Set: AUG-CC-PVTZ
    Blend: AUG-CC-PVTZ
  Basis Set: (AUG-CC-PVTZ AUX)
    Blend: AUG-CC-PVTZ-JKFIT
	 Reference Energy          =    -496.4927083490533732 [Eh]
	 Singles Energy            =      -0.0000000000000000 [Eh]
	 Same-Spin Energy          =      -0.5245284124455585 [Eh]
	 Opposite-Spin Energy      =      -1.6344282165641701 [Eh]
	 Correlation Energy        =      -2.1589566290097286 [Eh]
	 Total Energy              =    -498.6516649780630814 [Eh]

	 ================> DF-SCS-MP2 Energies <==================
	-----------------------------------------------------------
	 SCS Same-Spin Scale       =       0.3333333333333333 [-]
	 SCS Opposite-Spin Scale   =       1.2000000000000000 [-]
	 SCS Same-Spin Energy      =      -0.1748428041485195 [Eh]
	 SCS Opposite-Spin Energy  =      -1.9613138598770041 [Eh]
	 SCS Correlation Energy    =      -2.1361566640255236 [Eh]
	 SCS Total Energy          =    -498.6288650130788938 [Eh]
	-----------------------------------------------------------

  Dipole Moment: [D]
     X:    -0.7384      Y:    -0.0000      Z:     0.5877     Total:     0.9438

*** Psi4 exiting successfully. Buy a developer a beer!
