                               Psi4 1.4a3.dev225

  ==> Input File <==

--------------------------------------------------------------------------
#psi4
#
memory 32 gb

molecule  {
0 1
  O        2.2381840    -1.1587810    -0.1175950
  O        2.2381840     1.1587830    -0.1175780
  C       -1.4506090    -0.7058110    -0.0005310
  C       -1.4506100     0.7058110    -0.0005190
  C        0.9370840    -0.6945160    -0.0405820
  C        0.9370830     0.6945180    -0.0405590
  C       -0.2384000    -1.4209720    -0.0261700
  C       -0.2384020     1.4209720    -0.0261890
  C        3.0186620    -0.0000010     0.2058680
  C       -2.7532520    -1.4635880     0.0322900
  C       -2.7532530     1.4635870     0.0322790
  H       -0.2243070    -2.5079120    -0.0340590
  H       -0.2243080     2.5079120    -0.0340480
  H        3.2778139    -0.0000116     1.4791982
  H        3.9284370     0.0000040    -0.3938210
  H       -2.5724980    -2.5416060     0.0194510
  H       -3.3330080    -1.2312860     0.9325220
  H       -3.3837460    -1.2187210    -0.8295640
  H       -3.3329960     1.2313300     0.9325330
  H       -2.5725010     2.5416050     0.0193840
  H       -3.3837580     1.2186740    -0.8295530
units angstrom
no_reorient  #important for SAPT in psi4, default
symmetry c1  #important for SAPT in psi4, default
}

set PROPERTIES_ORIGIN ["COM"]
properties('MP2/aug-cc-pvtz', properties = ['dipole'])
--------------------------------------------------------------------------

    Molecular point group: c1
  Charge       = 0
  Multiplicity = 1
  Basis Set: AUG-CC-PVTZ
    Blend: AUG-CC-PVTZ
  Basis Set: (AUG-CC-PVTZ AUX)
    Blend: AUG-CC-PVTZ-JKFIT

    Orbital Energies [Eh]
    ---------------------

    Doubly Occupied:

       1A    -20.601107     2A    -20.601086     3A    -11.374041
       4A    -11.293849     5A    -11.292577     6A    -11.243627
       7A    -11.242531     8A    -11.239730     9A    -11.239708
      10A    -11.226185    11A    -11.226178    12A     -1.469902
      13A     -1.368123    14A     -1.159670    15A     -1.053397
      16A     -1.039610    17A     -0.953559    18A     -0.937261
      19A     -0.876517    20A     -0.838232    21A     -0.797739
      22A     -0.717284    23A     -0.695014    24A     -0.677124
      25A     -0.649238    26A     -0.616422    27A     -0.608606
      28A     -0.595735    29A     -0.576054    30A     -0.565564
      31A     -0.552421    32A     -0.542363    33A     -0.538037
      34A     -0.533659    35A     -0.515791    36A     -0.502112
      37A     -0.492675    38A     -0.435409    39A     -0.335619
      40A     -0.294648

  @DF-RHF Final Energy:  -496.49368152858221

   => Energetics <=

    Nuclear Repulsion Energy =            600.3386560412016024
    One-Electron Energy =               -1866.6278635138144182
    Two-Electron Energy =                 769.7955259440306008
    Total Energy =                       -496.4936815285822149
  Basis Set: (AUG-CC-PVTZ AUX)
    Blend: AUG-CC-PVTZ-RI
    Molecular point group: c1

    Geometry (in Angstrom), charge = 0, multiplicity = 1:

       Center              X                  Y                   Z               Mass
    ------------   -----------------  -----------------  -----------------  -----------------
         O            2.159650375775    -1.158781135266    -0.111870869128    15.994914619570
         O            2.159650375775     1.158782864734    -0.111853869128    15.994914619570
         C           -1.529142624225    -0.705811135266     0.005193130872    12.000000000000
         C           -1.529143624225     0.705810864734     0.005205130872    12.000000000000
         C            0.858550375775    -0.694516135266    -0.034857869128    12.000000000000
         C            0.858549375775     0.694517864734    -0.034834869128    12.000000000000
         C           -0.316933624225    -1.420972135266    -0.020445869128    12.000000000000
         C           -0.316935624225     1.420971864734    -0.020464869128    12.000000000000
         C            2.940128375775    -0.000001135266     0.211592130872    12.000000000000
         C           -2.831785624225    -1.463588135266     0.038014130872    12.000000000000
         C           -2.831786624225     1.463586864734     0.038003130872    12.000000000000
         H           -0.302840624225    -2.507912135266    -0.028334869128     1.007825032230
         H           -0.302841624225     2.507911864734    -0.028323869128     1.007825032230
         H            3.199280275775    -0.000011735266     1.484922330872     1.007825032230
         H            3.849903375775     0.000003864734    -0.388096869128     1.007825032230
         H           -2.651031624225    -2.541606135266     0.025175130872     1.007825032230
         H           -3.411541624225    -1.231286135266     0.938246130872     1.007825032230
         H           -3.462279624225    -1.218721135266    -0.823839869128     1.007825032230
         H           -3.411529624225     1.231329864734     0.938257130872     1.007825032230
         H           -2.651034624225     2.541604864734     0.025108130872     1.007825032230
         H           -3.462291624225     1.218673864734    -0.823828869128     1.007825032230

  Basis Set: AUG-CC-PVTZ
    Blend: AUG-CC-PVTZ
  Basis Set: (AUG-CC-PVTZ AUX)
    Blend: AUG-CC-PVTZ-JKFIT
	 Reference Energy          =    -496.4936815285822149 [Eh]
	 Singles Energy            =      -0.0000000000000000 [Eh]
	 Same-Spin Energy          =      -0.5247400261028440 [Eh]
	 Opposite-Spin Energy      =      -1.6346010060880773 [Eh]
	 Correlation Energy        =      -2.1593410321909214 [Eh]
	 Total Energy              =    -498.6530225607731381 [Eh]

	 ================> DF-SCS-MP2 Energies <==================
	-----------------------------------------------------------
	 SCS Same-Spin Scale       =       0.3333333333333333 [-]
	 SCS Opposite-Spin Scale   =       1.2000000000000000 [-]
	 SCS Same-Spin Energy      =      -0.1749133420342813 [Eh]
	 SCS Opposite-Spin Energy  =      -1.9615212073056927 [Eh]
	 SCS Correlation Energy    =      -2.1364345493399739 [Eh]
	 SCS Total Energy          =    -498.6301160779221959 [Eh]
	-----------------------------------------------------------

  Dipole Moment: [D]
     X:    -0.7965      Y:    -0.0000      Z:     0.3500     Total:     0.8700

*** Psi4 exiting successfully. Buy a developer a beer!
