                               Psi4 1.4a3.dev225

  ==> Input File <==

--------------------------------------------------------------------------
#psi4
#
memory 32 gb

molecule  {
0 1
  O        2.2381840    -1.1587810    -0.1175950
  O        2.2210925     1.2039281    -0.1190354
  C       -1.4506090    -0.7058110    -0.0005310
  C       -1.4506100     0.7058110    -0.0005190
  C        0.9370840    -0.6945160    -0.0405820
  C        0.9370830     0.6945180    -0.0405590
  C       -0.2384000    -1.4209720    -0.0261700
  C       -0.2384020     1.4209720    -0.0261890
  C        3.0186620    -0.0000010     0.2058680
  C       -2.7532520    -1.4635880     0.0322900
  C       -2.7532530     1.4635870     0.0322790
  H       -0.2243070    -2.5079120    -0.0340590
  H       -0.2243080     2.5079120    -0.0340480
  H        3.2379270    -0.0000100     1.2832160
  H        3.9284370     0.0000040    -0.3938210
  H       -2.5724980    -2.5416060     0.0194510
  H       -3.3330080    -1.2312860     0.9325220
  H       -3.3837460    -1.2187210    -0.8295640
  H       -3.3329960     1.2313300     0.9325330
  H       -2.5725010     2.5416050     0.0193840
  H       -3.3837580     1.2186740    -0.8295530
units angstrom
no_reorient  #important for SAPT in psi4, default
symmetry c1  #important for SAPT in psi4, default
}

set PROPERTIES_ORIGIN ["COM"]
properties('MP2/aug-cc-pvtz', properties = ['dipole'])
--------------------------------------------------------------------------

    Molecular point group: c1
  Charge       = 0
  Multiplicity = 1
  Basis Set: AUG-CC-PVTZ
    Blend: AUG-CC-PVTZ
  Basis Set: (AUG-CC-PVTZ AUX)
    Blend: AUG-CC-PVTZ-JKFIT

    Orbital Energies [Eh]
    ---------------------

    Doubly Occupied:

       1A    -20.599034     2A    -20.597054     3A    -11.356770
       4A    -11.292129     5A    -11.289949     6A    -11.241757
       7A    -11.240663     8A    -11.238542     9A    -11.236238
      10A    -11.225021    11A    -11.224822    12A     -1.459534
      13A     -1.362533    14A     -1.157351    15A     -1.051304
      16A     -1.037543    17A     -0.951697    18A     -0.941259
      19A     -0.885210    20A     -0.836297    21A     -0.792528
      22A     -0.713546    23A     -0.709352    24A     -0.671059
      25A     -0.648863    26A     -0.614350    27A     -0.606800
      28A     -0.594956    29A     -0.573967    30A     -0.566521
      31A     -0.551165    32A     -0.540948    33A     -0.536310
      34A     -0.534250    35A     -0.530000    36A     -0.499669
      37A     -0.491440    38A     -0.442614    39A     -0.333558
      40A     -0.293197

  @DF-RHF Final Energy:  -496.51053855864296

   => Energetics <=

    Nuclear Repulsion Energy =            600.3420066231764167
    One-Electron Energy =               -1866.7654886778861965
    Two-Electron Energy =                 769.9129434960669869
    Total Energy =                       -496.5105385586429065
  Basis Set: (AUG-CC-PVTZ AUX)
    Blend: AUG-CC-PVTZ-RI
    Molecular point group: c1

    Geometry (in Angstrom), charge = 0, multiplicity = 1:

       Center              X                  Y                   Z               Mass
    ------------   -----------------  -----------------  -----------------  -----------------
         O            2.161739934730    -1.163592908926    -0.110399358623    15.994914619570
         O            2.144648434730     1.199116191074    -0.111839758623    15.994914619570
         C           -1.527053065270    -0.710622908926     0.006664641377    12.000000000000
         C           -1.527054065270     0.700999091074     0.006676641377    12.000000000000
         C            0.860639934730    -0.699327908926    -0.033386358623    12.000000000000
         C            0.860638934730     0.689706091074    -0.033363358623    12.000000000000
         C           -0.314844065270    -1.425783908926    -0.018974358623    12.000000000000
         C           -0.314846065270     1.416160091074    -0.018993358623    12.000000000000
         C            2.942217934730    -0.004812908926     0.213063641377    12.000000000000
         C           -2.829696065270    -1.468399908926     0.039485641377    12.000000000000
         C           -2.829697065270     1.458775091074     0.039474641377    12.000000000000
         H           -0.300751065270    -2.512723908926    -0.026863358623     1.007825032230
         H           -0.300752065270     2.503100091074    -0.026852358623     1.007825032230
         H            3.161482934730    -0.004821908926     1.290411641377     1.007825032230
         H            3.851992934730    -0.004807908926    -0.386625358623     1.007825032230
         H           -2.648942065270    -2.546417908926     0.026646641377     1.007825032230
         H           -3.409452065270    -1.236097908926     0.939717641377     1.007825032230
         H           -3.460190065270    -1.223532908926    -0.822368358623     1.007825032230
         H           -3.409440065270     1.226518091074     0.939728641377     1.007825032230
         H           -2.648945065270     2.536793091074     0.026579641377     1.007825032230
         H           -3.460202065270     1.213862091074    -0.822357358623     1.007825032230

  Basis Set: AUG-CC-PVTZ
    Blend: AUG-CC-PVTZ
  Basis Set: (AUG-CC-PVTZ AUX)
    Blend: AUG-CC-PVTZ-JKFIT
	 Reference Energy          =    -496.5105385586429634 [Eh]
	 Singles Energy            =      -0.0000000000000000 [Eh]
	 Same-Spin Energy          =      -0.5244410816389660 [Eh]
	 Opposite-Spin Energy      =      -1.6337683939159546 [Eh]
	 Correlation Energy        =      -2.1582094755549206 [Eh]
	 Total Energy              =    -498.6687480341979040 [Eh]

	 ================> DF-SCS-MP2 Energies <==================
	-----------------------------------------------------------
	 SCS Same-Spin Scale       =       0.3333333333333333 [-]
	 SCS Opposite-Spin Scale   =       1.2000000000000000 [-]
	 SCS Same-Spin Energy      =      -0.1748136938796553 [Eh]
	 SCS Opposite-Spin Energy  =      -1.9605220726991455 [Eh]
	 SCS Correlation Energy    =      -2.1353357665788009 [Eh]
	 SCS Total Energy          =    -498.6458743252217687 [Eh]
	-----------------------------------------------------------

  Dipole Moment: [D]
     X:    -0.4822      Y:    -0.1069      Z:     0.5891     Total:     0.7687

*** Psi4 exiting successfully. Buy a developer a beer!
