                               Psi4 1.4a3.dev225

  ==> Input File <==

--------------------------------------------------------------------------
#psi4
#
memory 32 gb

molecule  {
0 1
  O        2.2381840    -1.1587810    -0.1175950
  O        2.2381840     1.1587830    -0.1175780
  C       -1.4506090    -0.7058110    -0.0005310
  C       -1.4506100     0.7058110    -0.0005190
  C        0.9370840    -0.6945160    -0.0405820
  C        0.9370830     0.6945180    -0.0405590
  C       -0.2384000    -1.4209720    -0.0261700
  C       -0.2384020     1.4209720    -0.0261890
  C        3.0186620    -0.0000010     0.2058680
  C       -2.7532520    -1.4635880     0.0322900
  C       -2.7532530     1.4635870     0.0322790
  H       -0.2243070    -2.5079120    -0.0340590
  H       -0.2243080     2.5079120    -0.0340480
  H        3.2379270    -0.0000100     1.2832160
  H        3.9284370     0.0000040    -0.3938210
  H       -2.5724980    -2.5416060     0.0194510
  H       -3.3330080    -1.2312860     0.9325220
  H       -3.3837460    -1.2187210    -0.8295640
  H       -3.4174611     1.1983317     0.8623210
  H       -2.5725010     2.5416050     0.0193840
  H       -3.3837580     1.2186740    -0.8295530
units angstrom
no_reorient  #important for SAPT in psi4, default
symmetry c1  #important for SAPT in psi4, default
}

set PROPERTIES_ORIGIN ["COM"]
properties('MP2/aug-cc-pvtz', properties = ['dipole'])
--------------------------------------------------------------------------

    Molecular point group: c1
  Charge       = 0
  Multiplicity = 1
  Basis Set: AUG-CC-PVTZ
    Blend: AUG-CC-PVTZ
  Basis Set: (AUG-CC-PVTZ AUX)
    Blend: AUG-CC-PVTZ-JKFIT

    Orbital Energies [Eh]
    ---------------------

    Doubly Occupied:

       1A    -20.596272     2A    -20.596250     3A    -11.352457
       4A    -11.292379     5A    -11.291107     6A    -11.242954
       7A    -11.241719     8A    -11.238743     9A    -11.238453
      10A    -11.225608    11A    -11.225326    12A     -1.467357
      13A     -1.364839    14A     -1.158695    15A     -1.053349
      16A     -1.038411    17A     -0.952486    18A     -0.943333
      19A     -0.882965    20A     -0.837328    21A     -0.796305
      22A     -0.716611    23A     -0.713049    24A     -0.675996
      25A     -0.648422    26A     -0.615401    27A     -0.612723
      28A     -0.591475    29A     -0.574281    30A     -0.567919
      31A     -0.545490    32A     -0.542244    33A     -0.536307
      34A     -0.534510    35A     -0.529990    36A     -0.503338
      37A     -0.491554    38A     -0.441288    39A     -0.334472
      40A     -0.293210

  @DF-RHF Final Energy:  -496.51305909270411

   => Energetics <=

    Nuclear Repulsion Energy =            601.2184644142591878
    One-Electron Energy =               -1868.4538180349079539
    Two-Electron Energy =                 770.7222945279446549
    Total Energy =                       -496.5130590927041112
  Basis Set: (AUG-CC-PVTZ AUX)
    Blend: AUG-CC-PVTZ-RI
    Molecular point group: c1

    Geometry (in Angstrom), charge = 0, multiplicity = 1:

       Center              X                  Y                   Z               Mass
    ------------   -----------------  -----------------  -----------------  -----------------
         O            2.160485497133    -1.158559536506    -0.110083165980    15.994914619570
         O            2.160485497133     1.159004463494    -0.110066165980    15.994914619570
         C           -1.528307502867    -0.705589536506     0.006980834020    12.000000000000
         C           -1.528308502867     0.706032463494     0.006992834020    12.000000000000
         C            0.859385497133    -0.694294536506    -0.033070165980    12.000000000000
         C            0.859384497133     0.694739463494    -0.033047165980    12.000000000000
         C           -0.316098502867    -1.420750536506    -0.018658165980    12.000000000000
         C           -0.316100502867     1.421193463494    -0.018677165980    12.000000000000
         C            2.940963497133     0.000220463494     0.213379834020    12.000000000000
         C           -2.830950502867    -1.463366536506     0.039801834020    12.000000000000
         C           -2.830951502867     1.463808463494     0.039790834020    12.000000000000
         H           -0.302005502867    -2.507690536506    -0.026547165980     1.007825032230
         H           -0.302006502867     2.508133463494    -0.026536165980     1.007825032230
         H            3.160228497133     0.000211463494     1.290727834020     1.007825032230
         H            3.850738497133     0.000225463494    -0.386309165980     1.007825032230
         H           -2.650196502867    -2.541384536506     0.026962834020     1.007825032230
         H           -3.410706502867    -1.231064536506     0.940033834020     1.007825032230
         H           -3.461444502867    -1.218499536506    -0.822052165980     1.007825032230
         H           -3.495159602867     1.198553163494     0.869832834020     1.007825032230
         H           -2.650199502867     2.541826463494     0.026895834020     1.007825032230
         H           -3.461456502867     1.218895463494    -0.822041165980     1.007825032230

  Basis Set: AUG-CC-PVTZ
    Blend: AUG-CC-PVTZ
  Basis Set: (AUG-CC-PVTZ AUX)
    Blend: AUG-CC-PVTZ-JKFIT
	 Reference Energy          =    -496.5130590927041112 [Eh]
	 Singles Energy            =      -0.0000000000000000 [Eh]
	 Same-Spin Energy          =      -0.5241357557002271 [Eh]
	 Opposite-Spin Energy      =      -1.6322683482872007 [Eh]
	 Correlation Energy        =      -2.1564041039874278 [Eh]
	 Total Energy              =    -498.6694631966915381 [Eh]

	 ================> DF-SCS-MP2 Energies <==================
	-----------------------------------------------------------
	 SCS Same-Spin Scale       =       0.3333333333333333 [-]
	 SCS Opposite-Spin Scale   =       1.2000000000000000 [-]
	 SCS Same-Spin Energy      =      -0.1747119185667423 [Eh]
	 SCS Opposite-Spin Energy  =      -1.9587220179446407 [Eh]
	 SCS Correlation Energy    =      -2.1334339365113832 [Eh]
	 SCS Total Energy          =    -498.6464930292154918 [Eh]
	-----------------------------------------------------------

  Dipole Moment: [D]
     X:    -0.5838      Y:    -0.0263      Z:     0.5453     Total:     0.7992

*** Psi4 exiting successfully. Buy a developer a beer!
