                               Psi4 1.4a3.dev225

  ==> Input File <==

--------------------------------------------------------------------------
#psi4
#
memory 32 gb

molecule  {
0 1
  O        2.2381840    -1.1587810    -0.1175950
  O        2.2381840     1.1587830    -0.1175780
  C       -1.4506090    -0.7058110    -0.0005310
  C       -1.4506100     0.7058110    -0.0005190
  C        0.9370840    -0.6945160    -0.0405820
  C        1.0339698     0.6911345    -0.0417479
  C       -0.2384000    -1.4209720    -0.0261700
  C       -0.2384020     1.4209720    -0.0261890
  C        3.0186620    -0.0000010     0.2058680
  C       -2.7532520    -1.4635880     0.0322900
  C       -2.7532530     1.4635870     0.0322790
  H       -0.2243070    -2.5079120    -0.0340590
  H       -0.2243080     2.5079120    -0.0340480
  H        3.2379270    -0.0000100     1.2832160
  H        3.9284370     0.0000040    -0.3938210
  H       -2.5724980    -2.5416060     0.0194510
  H       -3.3330080    -1.2312860     0.9325220
  H       -3.3837460    -1.2187210    -0.8295640
  H       -3.3329960     1.2313300     0.9325330
  H       -2.5725010     2.5416050     0.0193840
  H       -3.3837580     1.2186740    -0.8295530
units angstrom
no_reorient  #important for SAPT in psi4, default
symmetry c1  #important for SAPT in psi4, default
}

set PROPERTIES_ORIGIN ["COM"]
properties('MP2/aug-cc-pvtz', properties = ['dipole'])
--------------------------------------------------------------------------

    Molecular point group: c1
  Charge       = 0
  Multiplicity = 1
  Basis Set: AUG-CC-PVTZ
    Blend: AUG-CC-PVTZ
  Basis Set: (AUG-CC-PVTZ AUX)
    Blend: AUG-CC-PVTZ-JKFIT

    Orbital Energies [Eh]
    ---------------------

    Doubly Occupied:

       1A    -20.609833     2A    -20.593601     3A    -11.358768
       4A    -11.297550     5A    -11.285755     6A    -11.241556
       7A    -11.240072     8A    -11.238177     9A    -11.237050
      10A    -11.223655    11A    -11.222948    12A     -1.496058
      13A     -1.384131    14A     -1.148634    15A     -1.050360
      16A     -1.029699    17A     -0.951472    18A     -0.941238
      19A     -0.888712    20A     -0.834749    21A     -0.801948
      22A     -0.726477    23A     -0.718032    24A     -0.682592
      25A     -0.647747    26A     -0.612016    27A     -0.606465
      28A     -0.592671    29A     -0.589825    30A     -0.570276
      31A     -0.550231    32A     -0.547379    33A     -0.537638
      34A     -0.534558    35A     -0.524131    36A     -0.498998
      37A     -0.483044    38A     -0.439151    39A     -0.325620
      40A     -0.285230

  @DF-RHF Final Energy:  -496.50137717159686

   => Energetics <=

    Nuclear Repulsion Energy =            601.4987300684144884
    One-Electron Energy =               -1868.9041186046908933
    Two-Electron Energy =                 770.9040113646794907
    Total Energy =                       -496.5013771715969142
  Basis Set: (AUG-CC-PVTZ AUX)
    Blend: AUG-CC-PVTZ-RI
    Molecular point group: c1

    Geometry (in Angstrom), charge = 0, multiplicity = 1:

       Center              X                  Y                   Z               Mass
    ------------   -----------------  -----------------  -----------------  -----------------
         O            2.152170819916    -1.158510588807    -0.110459625860    15.994914619570
         O            2.152170819916     1.159053411193    -0.110442625860    15.994914619570
         C           -1.536622180084    -0.705540588807     0.006604374140    12.000000000000
         C           -1.536623180084     0.706081411193     0.006616374140    12.000000000000
         C            0.851070819916    -0.694245588807    -0.033446625860    12.000000000000
         C            0.947956619916     0.691404911193    -0.034612525860    12.000000000000
         C           -0.324413180084    -1.420701588807    -0.019034625860    12.000000000000
         C           -0.324415180084     1.421242411193    -0.019053625860    12.000000000000
         C            2.932648819916     0.000269411193     0.213003374140    12.000000000000
         C           -2.839265180084    -1.463317588807     0.039425374140    12.000000000000
         C           -2.839266180084     1.463857411193     0.039414374140    12.000000000000
         H           -0.310320180084    -2.507641588807    -0.026923625860     1.007825032230
         H           -0.310321180084     2.508182411193    -0.026912625860     1.007825032230
         H            3.151913819916     0.000260411193     1.290351374140     1.007825032230
         H            3.842423819916     0.000274411193    -0.386685625860     1.007825032230
         H           -2.658511180084    -2.541335588807     0.026586374140     1.007825032230
         H           -3.419021180084    -1.231015588807     0.939657374140     1.007825032230
         H           -3.469759180084    -1.218450588807    -0.822428625860     1.007825032230
         H           -3.419009180084     1.231600411193     0.939668374140     1.007825032230
         H           -2.658514180084     2.541875411193     0.026519374140     1.007825032230
         H           -3.469771180084     1.218944411193    -0.822417625860     1.007825032230

  Basis Set: AUG-CC-PVTZ
    Blend: AUG-CC-PVTZ
  Basis Set: (AUG-CC-PVTZ AUX)
    Blend: AUG-CC-PVTZ-JKFIT
	 Reference Energy          =    -496.5013771715968574 [Eh]
	 Singles Energy            =      -0.0000000000000000 [Eh]
	 Same-Spin Energy          =      -0.5245831269297758 [Eh]
	 Opposite-Spin Energy      =      -1.6324201546067236 [Eh]
	 Correlation Energy        =      -2.1570032815364995 [Eh]
	 Total Energy              =    -498.6583804531333612 [Eh]

	 ================> DF-SCS-MP2 Energies <==================
	-----------------------------------------------------------
	 SCS Same-Spin Scale       =       0.3333333333333333 [-]
	 SCS Opposite-Spin Scale   =       1.2000000000000000 [-]
	 SCS Same-Spin Energy      =      -0.1748610423099253 [Eh]
	 SCS Opposite-Spin Energy  =      -1.9589041855280682 [Eh]
	 SCS Correlation Energy    =      -2.1337652278379933 [Eh]
	 SCS Total Energy          =    -498.6351423994348693 [Eh]
	-----------------------------------------------------------

  Dipole Moment: [D]
     X:    -0.0590      Y:     0.1052      Z:     0.5404     Total:     0.5537

*** Psi4 exiting successfully. Buy a developer a beer!
