                               Psi4 1.4a3.dev225

  ==> Input File <==

--------------------------------------------------------------------------
#psi4
#
memory 32 gb

molecule  {
0 1
  O        2.2381840    -1.1587810    -0.1175950
  O        2.2381840     1.1587830    -0.1175780
  C       -1.4506090    -0.7058110    -0.0005310
  C       -1.4506100     0.7058110    -0.0005190
  C        0.9370840    -0.6945160    -0.0405820
  C        0.9370830     0.6945180    -0.0405590
  C       -0.2384000    -1.4209720    -0.0261700
  C       -0.2384020     1.4209720    -0.0261890
  C        3.0186620    -0.0000010     0.2058680
  C       -2.7532520    -1.4635880     0.0322900
  C       -2.7532530     1.4635870     0.0322790
  H       -0.2243070    -2.5079120    -0.0340590
  H       -0.2243080     2.5079120    -0.0340480
  H        3.2379270    -0.0000100     1.2832160
  H        3.9284370     0.0000040    -0.3938210
  H       -2.5724980    -2.5416060     0.0194510
  H       -3.3330080    -1.2312860     0.9325220
  H       -3.3837460    -1.2187210    -0.8295640
  H       -3.4388200     1.1889347     1.0968617
  H       -2.5725010     2.5416050     0.0193840
  H       -3.3837580     1.2186740    -0.8295530
units angstrom
no_reorient  #important for SAPT in psi4, default
symmetry c1  #important for SAPT in psi4, default
}

set PROPERTIES_ORIGIN ["COM"]
properties('MP2/aug-cc-pvtz', properties = ['dipole'])
--------------------------------------------------------------------------

    Molecular point group: c1
  Charge       = 0
  Multiplicity = 1
  Basis Set: AUG-CC-PVTZ
    Blend: AUG-CC-PVTZ
  Basis Set: (AUG-CC-PVTZ AUX)
    Blend: AUG-CC-PVTZ-JKFIT

    Orbital Energies [Eh]
    ---------------------

    Doubly Occupied:

       1A    -20.597150     2A    -20.596914     3A    -11.353095
       4A    -11.293407     5A    -11.292064     6A    -11.247948
       7A    -11.243990     8A    -11.242762     9A    -11.240064
      10A    -11.239098    11A    -11.225014    12A     -1.468129
      13A     -1.365603    14A     -1.159439    15A     -1.052601
      16A     -1.038370    17A     -0.949532    18A     -0.939458
      19A     -0.881059    20A     -0.837092    21A     -0.794307
      22A     -0.716758    23A     -0.713490    24A     -0.674713
      25A     -0.649099    26A     -0.616165    27A     -0.611239
      28A     -0.590224    29A     -0.575010    30A     -0.565315
      31A     -0.545380    32A     -0.539251    33A     -0.534921
      34A     -0.531518    35A     -0.521031    36A     -0.494830
      37A     -0.492641    38A     -0.440267    39A     -0.335048
      40A     -0.293711

  @DF-RHF Final Energy:  -496.49452944493930

   => Energetics <=

    Nuclear Repulsion Energy =            600.4887284231597278
    One-Electron Energy =               -1866.9711049297404770
    Two-Electron Energy =                 769.9878470616414461
    Total Energy =                       -496.4945294449393032
  Basis Set: (AUG-CC-PVTZ AUX)
    Blend: AUG-CC-PVTZ-RI
    Molecular point group: c1

    Geometry (in Angstrom), charge = 0, multiplicity = 1:

       Center              X                  Y                   Z               Mass
    ------------   -----------------  -----------------  -----------------  -----------------
         O            2.160628938924    -1.158496428270    -0.111658291012    15.994914619570
         O            2.160628938924     1.159067571730    -0.111641291012    15.994914619570
         C           -1.528164061076    -0.705526428270     0.005405708988    12.000000000000
         C           -1.528165061076     0.706095571730     0.005417708988    12.000000000000
         C            0.859528938924    -0.694231428270    -0.034645291012    12.000000000000
         C            0.859527938924     0.694802571730    -0.034622291012    12.000000000000
         C           -0.315955061076    -1.420687428270    -0.020233291012    12.000000000000
         C           -0.315957061076     1.421256571730    -0.020252291012    12.000000000000
         C            2.941106938924     0.000283571730     0.211804708988    12.000000000000
         C           -2.830807061076    -1.463303428270     0.038226708988    12.000000000000
         C           -2.830808061076     1.463871571730     0.038215708988    12.000000000000
         H           -0.301862061076    -2.507627428270    -0.028122291012     1.007825032230
         H           -0.301863061076     2.508196571730    -0.028111291012     1.007825032230
         H            3.160371938924     0.000274571730     1.289152708988     1.007825032230
         H            3.850881938924     0.000288571730    -0.387884291012     1.007825032230
         H           -2.650053061076    -2.541321428270     0.025387708988     1.007825032230
         H           -3.410563061076    -1.231001428270     0.938458708988     1.007825032230
         H           -3.461301061076    -1.218436428270    -0.823627291012     1.007825032230
         H           -3.516375061076     1.189219271730     1.102798408988     1.007825032230
         H           -2.650056061076     2.541889571730     0.025320708988     1.007825032230
         H           -3.461313061076     1.218958571730    -0.823616291012     1.007825032230

  Basis Set: AUG-CC-PVTZ
    Blend: AUG-CC-PVTZ
  Basis Set: (AUG-CC-PVTZ AUX)
    Blend: AUG-CC-PVTZ-JKFIT
	 Reference Energy          =    -496.4945294449393032 [Eh]
	 Singles Energy            =      -0.0000000000000000 [Eh]
	 Same-Spin Energy          =      -0.5241572555496312 [Eh]
	 Opposite-Spin Energy      =      -1.6338509710125293 [Eh]
	 Correlation Energy        =      -2.1580082265621607 [Eh]
	 Total Energy              =    -498.6525376715014772 [Eh]

	 ================> DF-SCS-MP2 Energies <==================
	-----------------------------------------------------------
	 SCS Same-Spin Scale       =       0.3333333333333333 [-]
	 SCS Opposite-Spin Scale   =       1.2000000000000000 [-]
	 SCS Same-Spin Energy      =      -0.1747190851832104 [Eh]
	 SCS Opposite-Spin Energy  =      -1.9606211652150352 [Eh]
	 SCS Correlation Energy    =      -2.1353402503982455 [Eh]
	 SCS Total Energy          =    -498.6298696953375611 [Eh]
	-----------------------------------------------------------

  Dipole Moment: [D]
     X:    -0.4245      Y:    -0.0227      Z:     0.4680     Total:     0.6322

*** Psi4 exiting successfully. Buy a developer a beer!
