                               Psi4 1.4a3.dev225

  ==> Input File <==

--------------------------------------------------------------------------
#psi4
#
memory 32 gb

molecule  {
0 1
  O        2.2381840    -1.1587810    -0.1175950
  O        2.2381840     1.1587830    -0.1175780
  C       -1.4506090    -0.7058110    -0.0005310
  C       -1.4829144     0.6614686    -0.0902965
  C        0.9370840    -0.6945160    -0.0405820
  C        0.9370830     0.6945180    -0.0405590
  C       -0.2384000    -1.4209720    -0.0261700
  C       -0.2384020     1.4209720    -0.0261890
  C        3.0186620    -0.0000010     0.2058680
  C       -2.7532520    -1.4635880     0.0322900
  C       -2.7532530     1.4635870     0.0322790
  H       -0.2243070    -2.5079120    -0.0340590
  H       -0.2243080     2.5079120    -0.0340480
  H        3.2379270    -0.0000100     1.2832160
  H        3.9284370     0.0000040    -0.3938210
  H       -2.5724980    -2.5416060     0.0194510
  H       -3.3330080    -1.2312860     0.9325220
  H       -3.3837460    -1.2187210    -0.8295640
  H       -3.3329960     1.2313300     0.9325330
  H       -2.5725010     2.5416050     0.0193840
  H       -3.3837580     1.2186740    -0.8295530
units angstrom
no_reorient  #important for SAPT in psi4, default
symmetry c1  #important for SAPT in psi4, default
}

set PROPERTIES_ORIGIN ["COM"]
properties('MP2/aug-cc-pvtz', properties = ['dipole'])
--------------------------------------------------------------------------

    Molecular point group: c1
  Charge       = 0
  Multiplicity = 1
  Basis Set: AUG-CC-PVTZ
    Blend: AUG-CC-PVTZ
  Basis Set: (AUG-CC-PVTZ AUX)
    Blend: AUG-CC-PVTZ-JKFIT

    Orbital Energies [Eh]
    ---------------------

    Doubly Occupied:

       1A    -20.597601     2A    -20.597056     3A    -11.353043
       4A    -11.293930     5A    -11.292239     6A    -11.242306
       7A    -11.241199     8A    -11.238441     9A    -11.236805
      10A    -11.225030    11A    -11.224046    12A     -1.468467
      13A     -1.365820    14A     -1.158728    15A     -1.056717
      16A     -1.032921    17A     -0.951440    18A     -0.942223
      19A     -0.884266    20A     -0.843180    21A     -0.791559
      22A     -0.716164    23A     -0.712451    24A     -0.674118
      25A     -0.648885    26A     -0.614458    27A     -0.611324
      28A     -0.595511    29A     -0.574989    30A     -0.568612
      31A     -0.550509    32A     -0.541561    33A     -0.535925
      34A     -0.533607    35A     -0.528861    36A     -0.499996
      37A     -0.487769    38A     -0.441329    39A     -0.329412
      40A     -0.298694

  @DF-RHF Final Energy:  -496.50823701801153

   => Energetics <=

    Nuclear Repulsion Energy =            601.2270751182543336
    One-Electron Energy =               -1868.4682408085573115
    Two-Electron Energy =                 770.7329286722914503
    Total Energy =                       -496.5082370180115277
  Basis Set: (AUG-CC-PVTZ AUX)
    Blend: AUG-CC-PVTZ-RI
    Molecular point group: c1

    Geometry (in Angstrom), charge = 0, multiplicity = 1:

       Center              X                  Y                   Z               Mass
    ------------   -----------------  -----------------  -----------------  -----------------
         O            2.162501427228    -1.155235363313    -0.103375752973    15.994914619570
         O            2.162501427228     1.162328636687    -0.103358752973    15.994914619570
         C           -1.526291572772    -0.702265363313     0.013688247027    12.000000000000
         C           -1.558596972772     0.665014236687    -0.076077252973    12.000000000000
         C            0.861401427228    -0.690970363313    -0.026362752973    12.000000000000
         C            0.861400427228     0.698063636687    -0.026339752973    12.000000000000
         C           -0.314082572772    -1.417426363313    -0.011950752973    12.000000000000
         C           -0.314084572772     1.424517636687    -0.011969752973    12.000000000000
         C            2.942979427228     0.003544636687     0.220087247027    12.000000000000
         C           -2.828934572772    -1.460042363313     0.046509247027    12.000000000000
         C           -2.828935572772     1.467132636687     0.046498247027    12.000000000000
         H           -0.299989572772    -2.504366363313    -0.019839752973     1.007825032230
         H           -0.299990572772     2.511457636687    -0.019828752973     1.007825032230
         H            3.162244427228     0.003535636687     1.297435247027     1.007825032230
         H            3.852754427228     0.003549636687    -0.379601752973     1.007825032230
         H           -2.648180572772    -2.538060363313     0.033670247027     1.007825032230
         H           -3.408690572772    -1.227740363313     0.946741247027     1.007825032230
         H           -3.459428572772    -1.215175363313    -0.815344752973     1.007825032230
         H           -3.408678572772     1.234875636687     0.946752247027     1.007825032230
         H           -2.648183572772     2.545150636687     0.033603247027     1.007825032230
         H           -3.459440572772     1.222219636687    -0.815333752973     1.007825032230

  Basis Set: AUG-CC-PVTZ
    Blend: AUG-CC-PVTZ
  Basis Set: (AUG-CC-PVTZ AUX)
    Blend: AUG-CC-PVTZ-JKFIT
	 Reference Energy          =    -496.5082370180115277 [Eh]
	 Singles Energy            =      -0.0000000000000000 [Eh]
	 Same-Spin Energy          =      -0.5239391962400261 [Eh]
	 Opposite-Spin Energy      =      -1.6326855543049179 [Eh]
	 Correlation Energy        =      -2.1566247505449438 [Eh]
	 Total Energy              =    -498.6648617685564773 [Eh]

	 ================> DF-SCS-MP2 Energies <==================
	-----------------------------------------------------------
	 SCS Same-Spin Scale       =       0.3333333333333333 [-]
	 SCS Opposite-Spin Scale   =       1.2000000000000000 [-]
	 SCS Same-Spin Energy      =      -0.1746463987466753 [Eh]
	 SCS Opposite-Spin Energy  =      -1.9592226651659015 [Eh]
	 SCS Correlation Energy    =      -2.1338690639125768 [Eh]
	 SCS Total Energy          =    -498.6421060819241120 [Eh]
	-----------------------------------------------------------

  Dipole Moment: [D]
     X:    -0.5084      Y:    -0.0043      Z:     0.6076     Total:     0.7923

*** Psi4 exiting successfully. Buy a developer a beer!
