                               Psi4 1.4a3.dev225

  ==> Input File <==

--------------------------------------------------------------------------
#psi4
#
memory 32 gb

molecule  {
0 1
  O        2.2377707    -1.1515451    -0.1415515
  O        2.2381840     1.1587830    -0.1175780
  C       -1.4506090    -0.7058110    -0.0005310
  C       -1.4506100     0.7058110    -0.0005190
  C        0.9370840    -0.6945160    -0.0405820
  C        0.9370830     0.6945180    -0.0405590
  C       -0.2384000    -1.4209720    -0.0261700
  C       -0.2384020     1.4209720    -0.0261890
  C        3.0186620    -0.0000010     0.2058680
  C       -2.7532520    -1.4635880     0.0322900
  C       -2.7532530     1.4635870     0.0322790
  H       -0.2243070    -2.5079120    -0.0340590
  H       -0.2243080     2.5079120    -0.0340480
  H        3.2379270    -0.0000100     1.2832160
  H        3.9284370     0.0000040    -0.3938210
  H       -2.5724980    -2.5416060     0.0194510
  H       -3.3330080    -1.2312860     0.9325220
  H       -3.3837460    -1.2187210    -0.8295640
  H       -3.3329960     1.2313300     0.9325330
  H       -2.5725010     2.5416050     0.0193840
  H       -3.3837580     1.2186740    -0.8295530
units angstrom
no_reorient  #important for SAPT in psi4, default
symmetry c1  #important for SAPT in psi4, default
}

set PROPERTIES_ORIGIN ["COM"]
properties('MP2/aug-cc-pvtz', properties = ['dipole'])
--------------------------------------------------------------------------

    Molecular point group: c1
  Charge       = 0
  Multiplicity = 1
  Basis Set: AUG-CC-PVTZ
    Blend: AUG-CC-PVTZ
  Basis Set: (AUG-CC-PVTZ AUX)
    Blend: AUG-CC-PVTZ-JKFIT

    Orbital Energies [Eh]
    ---------------------

    Doubly Occupied:

       1A    -20.596042     2A    -20.595719     3A    -11.352530
       4A    -11.291835     5A    -11.290559     6A    -11.242288
       7A    -11.241187     8A    -11.238351     9A    -11.238127
      10A    -11.225294    11A    -11.225283    12A     -1.467652
      13A     -1.364291    14A     -1.158431    15A     -1.053239
      16A     -1.038254    17A     -0.952270    18A     -0.943137
      19A     -0.882389    20A     -0.836970    21A     -0.795341
      22A     -0.716383    23A     -0.713156    24A     -0.675033
      25A     -0.647769    26A     -0.615003    27A     -0.611856
      28A     -0.595303    29A     -0.574426    30A     -0.566009
      31A     -0.551475    32A     -0.540847    33A     -0.533971
      34A     -0.533260    35A     -0.530125    36A     -0.500643
      37A     -0.491088    38A     -0.442147    39A     -0.334357
      40A     -0.293266

  @DF-RHF Final Energy:  -496.51426887610819

   => Energetics <=

    Nuclear Repulsion Energy =            601.3779346675847819
    One-Electron Energy =               -1868.7937948189460258
    Two-Electron Energy =                 770.9015912752531676
    Total Energy =                       -496.5142688761081899
  Basis Set: (AUG-CC-PVTZ AUX)
    Blend: AUG-CC-PVTZ-RI
    Molecular point group: c1

    Geometry (in Angstrom), charge = 0, multiplicity = 1:

       Center              X                  Y                   Z               Mass
    ------------   -----------------  -----------------  -----------------  -----------------
         O            2.159548998968    -1.152316479994    -0.131957805788    15.994914619570
         O            2.159962298968     1.158011620006    -0.107984305788    15.994914619570
         C           -1.528830701032    -0.706582379994     0.009062694212    12.000000000000
         C           -1.528831701032     0.705039620006     0.009074694212    12.000000000000
         C            0.858862298968    -0.695287379994    -0.030988305788    12.000000000000
         C            0.858861298968     0.693746620006    -0.030965305788    12.000000000000
         C           -0.316621701032    -1.421743379994    -0.016576305788    12.000000000000
         C           -0.316623701032     1.420200620006    -0.016595305788    12.000000000000
         C            2.940440298968    -0.000772379994     0.215461694212    12.000000000000
         C           -2.831473701032    -1.464359379994     0.041883694212    12.000000000000
         C           -2.831474701032     1.462815620006     0.041872694212    12.000000000000
         H           -0.302528701032    -2.508683379994    -0.024465305788     1.007825032230
         H           -0.302529701032     2.507140620006    -0.024454305788     1.007825032230
         H            3.159705298968    -0.000781379994     1.292809694212     1.007825032230
         H            3.850215298968    -0.000767379994    -0.384227305788     1.007825032230
         H           -2.650719701032    -2.542377379994     0.029044694212     1.007825032230
         H           -3.411229701032    -1.232057379994     0.942115694212     1.007825032230
         H           -3.461967701032    -1.219492379994    -0.819970305788     1.007825032230
         H           -3.411217701032     1.230558620006     0.942126694212     1.007825032230
         H           -2.650722701032     2.540833620006     0.028977694212     1.007825032230
         H           -3.461979701032     1.217902620006    -0.819959305788     1.007825032230

  Basis Set: AUG-CC-PVTZ
    Blend: AUG-CC-PVTZ
  Basis Set: (AUG-CC-PVTZ AUX)
    Blend: AUG-CC-PVTZ-JKFIT
	 Reference Energy          =    -496.5142688761081899 [Eh]
	 Singles Energy            =      -0.0000000000000000 [Eh]
	 Same-Spin Energy          =      -0.5240680011582776 [Eh]
	 Opposite-Spin Energy      =      -1.6322268020714135 [Eh]
	 Correlation Energy        =      -2.1562948032296911 [Eh]
	 Total Energy              =    -498.6705636793378744 [Eh]

	 ================> DF-SCS-MP2 Energies <==================
	-----------------------------------------------------------
	 SCS Same-Spin Scale       =       0.3333333333333333 [-]
	 SCS Opposite-Spin Scale   =       1.2000000000000000 [-]
	 SCS Same-Spin Energy      =      -0.1746893337194259 [Eh]
	 SCS Opposite-Spin Energy  =      -1.9586721624856960 [Eh]
	 SCS Correlation Energy    =      -2.1333614962051217 [Eh]
	 SCS Total Energy          =    -498.6476303723133015 [Eh]
	-----------------------------------------------------------

  Dipole Moment: [D]
     X:    -0.5662      Y:    -0.0081      Z:     0.5919     Total:     0.8191

*** Psi4 exiting successfully. Buy a developer a beer!
