                               Psi4 1.4a3.dev225

  ==> Input File <==

--------------------------------------------------------------------------
#psi4
#
memory 32 gb

molecule  {
0 1
  O        2.2381840    -1.1587810    -0.1175950
  O        2.2026858     1.2485712    -0.1154750
  C       -1.4506090    -0.7058110    -0.0005310
  C       -1.4506100     0.7058110    -0.0005190
  C        0.9370840    -0.6945160    -0.0405820
  C        0.9370830     0.6945180    -0.0405590
  C       -0.2384000    -1.4209720    -0.0261700
  C       -0.2384020     1.4209720    -0.0261890
  C        3.0186620    -0.0000010     0.2058680
  C       -2.7532520    -1.4635880     0.0322900
  C       -2.7532530     1.4635870     0.0322790
  H       -0.2243070    -2.5079120    -0.0340590
  H       -0.2243080     2.5079120    -0.0340480
  H        3.2379270    -0.0000100     1.2832160
  H        3.9284370     0.0000040    -0.3938210
  H       -2.5724980    -2.5416060     0.0194510
  H       -3.3330080    -1.2312860     0.9325220
  H       -3.3837460    -1.2187210    -0.8295640
  H       -3.3329960     1.2313300     0.9325330
  H       -2.5725010     2.5416050     0.0193840
  H       -3.3837580     1.2186740    -0.8295530
units angstrom
no_reorient  #important for SAPT in psi4, default
symmetry c1  #important for SAPT in psi4, default
}

set PROPERTIES_ORIGIN ["COM"]
properties('MP2/aug-cc-pvtz', properties = ['dipole'])
--------------------------------------------------------------------------

    Molecular point group: c1
  Charge       = 0
  Multiplicity = 1
  Basis Set: AUG-CC-PVTZ
    Blend: AUG-CC-PVTZ
  Basis Set: (AUG-CC-PVTZ AUX)
    Blend: AUG-CC-PVTZ-JKFIT

    Orbital Energies [Eh]
    ---------------------

    Doubly Occupied:

       1A    -20.601855     2A    -20.597645     3A    -11.361096
       4A    -11.292512     5A    -11.288913     6A    -11.241237
       7A    -11.240175     8A    -11.238772     9A    -11.234272
      10A    -11.224747    11A    -11.224349    12A     -1.453834
      13A     -1.359958    14A     -1.156318    15A     -1.049777
      16A     -1.036692    17A     -0.951220    18A     -0.939929
      19A     -0.887743    20A     -0.835723    21A     -0.789732
      22A     -0.711662    23A     -0.706484    24A     -0.667773
      25A     -0.649668    26A     -0.613842    27A     -0.603007
      28A     -0.594623    29A     -0.573153    30A     -0.566830
      31A     -0.550809    32A     -0.541080    33A     -0.537778
      34A     -0.534934    35A     -0.528212    36A     -0.498352
      37A     -0.491494    38A     -0.443259    39A     -0.332750
      40A     -0.293139

  @DF-RHF Final Energy:  -496.50438822138295

   => Energetics <=

    Nuclear Repulsion Energy =            599.4750782901784305
    One-Electron Energy =               -1865.0682302442282889
    Two-Electron Energy =                 769.0887637326670756
    Total Energy =                       -496.5043882213828965
  Basis Set: (AUG-CC-PVTZ AUX)
    Blend: AUG-CC-PVTZ-RI
    Molecular point group: c1

    Geometry (in Angstrom), charge = 0, multiplicity = 1:

       Center              X                  Y                   Z               Mass
    ------------   -----------------  -----------------  -----------------  -----------------
         O            2.163701801609    -1.168351166478    -0.110778841682    15.994914619570
         O            2.128203601609     1.239001033522    -0.108658841682    15.994914619570
         C           -1.525091198391    -0.715381166478     0.006285158318    12.000000000000
         C           -1.525092198391     0.696240833522     0.006297158318    12.000000000000
         C            0.862601801609    -0.704086166478    -0.033765841682    12.000000000000
         C            0.862600801609     0.684947833522    -0.033742841682    12.000000000000
         C           -0.312882198391    -1.430542166478    -0.019353841682    12.000000000000
         C           -0.312884198391     1.411401833522    -0.019372841682    12.000000000000
         C            2.944179801609    -0.009571166478     0.212684158318    12.000000000000
         C           -2.827734198391    -1.473158166478     0.039106158318    12.000000000000
         C           -2.827735198391     1.454016833522     0.039095158318    12.000000000000
         H           -0.298789198391    -2.517482166478    -0.027242841682     1.007825032230
         H           -0.298790198391     2.498341833522    -0.027231841682     1.007825032230
         H            3.163444801609    -0.009580166478     1.290032158318     1.007825032230
         H            3.853954801609    -0.009566166478    -0.387004841682     1.007825032230
         H           -2.646980198391    -2.551176166478     0.026267158318     1.007825032230
         H           -3.407490198391    -1.240856166478     0.939338158318     1.007825032230
         H           -3.458228198391    -1.228291166478    -0.822747841682     1.007825032230
         H           -3.407478198391     1.221759833522     0.939349158318     1.007825032230
         H           -2.646983198391     2.532034833522     0.026200158318     1.007825032230
         H           -3.458240198391     1.209103833522    -0.822736841682     1.007825032230

  Basis Set: AUG-CC-PVTZ
    Blend: AUG-CC-PVTZ
  Basis Set: (AUG-CC-PVTZ AUX)
    Blend: AUG-CC-PVTZ-JKFIT
	 Reference Energy          =    -496.5043882213829534 [Eh]
	 Singles Energy            =      -0.0000000000000000 [Eh]
	 Same-Spin Energy          =      -0.5249361389110287 [Eh]
	 Opposite-Spin Energy      =      -1.6354576780269476 [Eh]
	 Correlation Energy        =      -2.1603938169379764 [Eh]
	 Total Energy              =    -498.6647820383209364 [Eh]

	 ================> DF-SCS-MP2 Energies <==================
	-----------------------------------------------------------
	 SCS Same-Spin Scale       =       0.3333333333333333 [-]
	 SCS Opposite-Spin Scale   =       1.2000000000000000 [-]
	 SCS Same-Spin Energy      =      -0.1749787129703429 [Eh]
	 SCS Opposite-Spin Energy  =      -1.9625492136323370 [Eh]
	 SCS Correlation Energy    =      -2.1375279266026799 [Eh]
	 SCS Total Energy          =    -498.6419161479856257 [Eh]
	-----------------------------------------------------------

  Dipole Moment: [D]
     X:    -0.4006      Y:    -0.2070      Z:     0.6052     Total:     0.7547

*** Psi4 exiting successfully. Buy a developer a beer!
