                               Psi4 1.4a3.dev225

  ==> Input File <==

--------------------------------------------------------------------------
#psi4
#
memory 32 gb

molecule  {
0 1
  O        2.2456468    -1.1947144     0.0279558
  O        2.2381840     1.1587830    -0.1175780
  C       -1.4506090    -0.7058110    -0.0005310
  C       -1.4506100     0.7058110    -0.0005190
  C        0.9370840    -0.6945160    -0.0405820
  C        0.9370830     0.6945180    -0.0405590
  C       -0.2384000    -1.4209720    -0.0261700
  C       -0.2384020     1.4209720    -0.0261890
  C        3.0186620    -0.0000010     0.2058680
  C       -2.7532520    -1.4635880     0.0322900
  C       -2.7532530     1.4635870     0.0322790
  H       -0.2243070    -2.5079120    -0.0340590
  H       -0.2243080     2.5079120    -0.0340480
  H        3.2379270    -0.0000100     1.2832160
  H        3.9284370     0.0000040    -0.3938210
  H       -2.5724980    -2.5416060     0.0194510
  H       -3.3330080    -1.2312860     0.9325220
  H       -3.3837460    -1.2187210    -0.8295640
  H       -3.3329960     1.2313300     0.9325330
  H       -2.5725010     2.5416050     0.0193840
  H       -3.3837580     1.2186740    -0.8295530
units angstrom
no_reorient  #important for SAPT in psi4, default
symmetry c1  #important for SAPT in psi4, default
}

set PROPERTIES_ORIGIN ["COM"]
properties('MP2/aug-cc-pvtz', properties = ['dipole'])
--------------------------------------------------------------------------

    Molecular point group: c1
  Charge       = 0
  Multiplicity = 1
  Basis Set: AUG-CC-PVTZ
    Blend: AUG-CC-PVTZ
  Basis Set: (AUG-CC-PVTZ AUX)
    Blend: AUG-CC-PVTZ-JKFIT

    Orbital Energies [Eh]
    ---------------------

    Doubly Occupied:

       1A    -20.597949     2A    -20.595875     3A    -11.350110
       4A    -11.294276     5A    -11.293001     6A    -11.243164
       7A    -11.242007     8A    -11.239349     9A    -11.238914
      10A    -11.225955    11A    -11.225774    12A     -1.462677
      13A     -1.364318    14A     -1.159398    15A     -1.053565
      16A     -1.039210    17A     -0.953193    18A     -0.941108
      19A     -0.882790    20A     -0.837300    21A     -0.796240
      22A     -0.714921    23A     -0.708965    24A     -0.674263
      25A     -0.650085    26A     -0.615935    27A     -0.607332
      28A     -0.595959    29A     -0.571302    30A     -0.564917
      31A     -0.552172    32A     -0.543877    33A     -0.539922
      34A     -0.532683    35A     -0.530261    36A     -0.501686
      37A     -0.492748    38A     -0.439127    39A     -0.335141
      40A     -0.293907

  @DF-RHF Final Energy:  -496.51004414714555

   => Energetics <=

    Nuclear Repulsion Energy =            600.5145431437233583
    One-Electron Energy =               -1867.0464287480610892
    Two-Electron Energy =                 770.0218414571921812
    Total Energy =                       -496.5100441471455497
  Basis Set: (AUG-CC-PVTZ AUX)
    Blend: AUG-CC-PVTZ-RI
    Molecular point group: c1

    Geometry (in Angstrom), charge = 0, multiplicity = 1:

       Center              X                  Y                   Z               Mass
    ------------   -----------------  -----------------  -----------------  -----------------
         O            2.166585629659    -1.190884606515     0.019482662152    15.994914619570
         O            2.159122829659     1.162612793485    -0.126051137848    15.994914619570
         C           -1.529670170341    -0.701981206515    -0.009004137848    12.000000000000
         C           -1.529671170341     0.709640793485    -0.008992137848    12.000000000000
         C            0.858022829659    -0.690686206515    -0.049055137848    12.000000000000
         C            0.858021829659     0.698347793485    -0.049032137848    12.000000000000
         C           -0.317461170341    -1.417142206515    -0.034643137848    12.000000000000
         C           -0.317463170341     1.424801793485    -0.034662137848    12.000000000000
         C            2.939600829659     0.003828793485     0.197394862152    12.000000000000
         C           -2.832313170341    -1.459758206515     0.023816862152    12.000000000000
         C           -2.832314170341     1.467416793485     0.023805862152    12.000000000000
         H           -0.303368170341    -2.504082206515    -0.042532137848     1.007825032230
         H           -0.303369170341     2.511741793485    -0.042521137848     1.007825032230
         H            3.158865829659     0.003819793485     1.274742862152     1.007825032230
         H            3.849375829659     0.003833793485    -0.402294137848     1.007825032230
         H           -2.651559170341    -2.537776206515     0.010977862152     1.007825032230
         H           -3.412069170341    -1.227456206515     0.924048862152     1.007825032230
         H           -3.462807170341    -1.214891206515    -0.838037137848     1.007825032230
         H           -3.412057170341     1.235159793485     0.924059862152     1.007825032230
         H           -2.651562170341     2.545434793485     0.010910862152     1.007825032230
         H           -3.462819170341     1.222503793485    -0.838026137848     1.007825032230

  Basis Set: AUG-CC-PVTZ
    Blend: AUG-CC-PVTZ
  Basis Set: (AUG-CC-PVTZ AUX)
    Blend: AUG-CC-PVTZ-JKFIT
	 Reference Energy          =    -496.5100441471455497 [Eh]
	 Singles Energy            =      -0.0000000000000000 [Eh]
	 Same-Spin Energy          =      -0.5241330543160161 [Eh]
	 Opposite-Spin Energy      =      -1.6328825992301681 [Eh]
	 Correlation Energy        =      -2.1570156535461842 [Eh]
	 Total Energy              =    -498.6670598006917317 [Eh]

	 ================> DF-SCS-MP2 Energies <==================
	-----------------------------------------------------------
	 SCS Same-Spin Scale       =       0.3333333333333333 [-]
	 SCS Opposite-Spin Scale   =       1.2000000000000000 [-]
	 SCS Same-Spin Energy      =      -0.1747110181053387 [Eh]
	 SCS Opposite-Spin Energy  =      -1.9594591190762016 [Eh]
	 SCS Correlation Energy    =      -2.1341701371815405 [Eh]
	 SCS Total Energy          =    -498.6442142843270631 [Eh]
	-----------------------------------------------------------

  Dipole Moment: [D]
     X:    -0.6740      Y:     0.0536      Z:     0.3986     Total:     0.7849

*** Psi4 exiting successfully. Buy a developer a beer!
