                               Psi4 1.4a3.dev225

  ==> Input File <==

--------------------------------------------------------------------------
#psi4
#
memory 32 gb

molecule  {
0 1
  O        2.2381840    -1.1587810    -0.1175950
  O        2.2381840     1.1587830    -0.1175780
  C       -1.4506090    -0.7058110    -0.0005310
  C       -1.4506100     0.7058110    -0.0005190
  C        0.9370840    -0.6945160    -0.0405820
  C        0.9370830     0.6945180    -0.0405590
  C       -0.2384000    -1.4209720    -0.0261700
  C       -0.2384020     1.4209720    -0.0261890
  C        3.0186620    -0.0000010     0.2058680
  C       -2.9260879    -1.5641305     0.0366447
  C       -2.7532530     1.4635870     0.0322790
  H       -0.2243070    -2.5079120    -0.0340590
  H       -0.2243080     2.5079120    -0.0340480
  H        3.2379270    -0.0000100     1.2832160
  H        3.9284370     0.0000040    -0.3938210
  H       -2.5724980    -2.5416060     0.0194510
  H       -3.3330080    -1.2312860     0.9325220
  H       -3.3837460    -1.2187210    -0.8295640
  H       -3.3329960     1.2313300     0.9325330
  H       -2.5725010     2.5416050     0.0193840
  H       -3.3837580     1.2186740    -0.8295530
units angstrom
no_reorient  #important for SAPT in psi4, default
symmetry c1  #important for SAPT in psi4, default
}

set PROPERTIES_ORIGIN ["COM"]
properties('MP2/aug-cc-pvtz', properties = ['dipole'])
--------------------------------------------------------------------------

    Molecular point group: c1
  Charge       = 0
  Multiplicity = 1
  Basis Set: AUG-CC-PVTZ
    Blend: AUG-CC-PVTZ
  Basis Set: (AUG-CC-PVTZ AUX)
    Blend: AUG-CC-PVTZ-JKFIT

    Orbital Energies [Eh]
    ---------------------

    Doubly Occupied:

       1A    -20.595515     2A    -20.595489     3A    -11.351866
       4A    -11.291500     5A    -11.290211     6A    -11.248037
       7A    -11.241383     8A    -11.238444     9A    -11.237627
      10A    -11.225167    11A    -11.225032    12A     -1.466615
      13A     -1.364105    14A     -1.153382    15A     -1.047321
      16A     -1.028627    17A     -0.953216    18A     -0.944180
      19A     -0.884720    20A     -0.836578    21A     -0.795796
      22A     -0.715063    23A     -0.710696    24A     -0.669795
      25A     -0.643501    26A     -0.616341    27A     -0.612129
      28A     -0.607660    29A     -0.574176    30A     -0.570767
      31A     -0.565772    32A     -0.552150    33A     -0.535106
      34A     -0.533805    35A     -0.528938    36A     -0.496043
      37A     -0.451242    38A     -0.443819    39A     -0.334494
      40A     -0.293886

  @DF-RHF Final Energy:  -496.48754313461700

   => Energetics <=

    Nuclear Repulsion Energy =            597.7792996027135359
    One-Electron Energy =               -1861.5932956159701916
    Two-Electron Energy =                 767.3264528786396568
    Total Energy =                       -496.4875431346169989
  Basis Set: (AUG-CC-PVTZ AUX)
    Blend: AUG-CC-PVTZ-RI
    Molecular point group: c1

    Geometry (in Angstrom), charge = 0, multiplicity = 1:

       Center              X                  Y                   Z               Mass
    ------------   -----------------  -----------------  -----------------  -----------------
         O            2.173738846971    -1.150741394962    -0.110902912668    15.994914619570
         O            2.173738846971     1.166822605038    -0.110885912668    15.994914619570
         C           -1.515054153029    -0.697771394962     0.006161087332    12.000000000000
         C           -1.515055153029     0.713850605038     0.006173087332    12.000000000000
         C            0.872638846971    -0.686476394962    -0.033889912668    12.000000000000
         C            0.872637846971     0.702557605038    -0.033866912668    12.000000000000
         C           -0.302845153029    -1.412932394962    -0.019477912668    12.000000000000
         C           -0.302847153029     1.429011605038    -0.019496912668    12.000000000000
         C            2.954216846971     0.008038605038     0.212560087332    12.000000000000
         C           -2.990533053029    -1.556090894962     0.043336787332    12.000000000000
         C           -2.817698153029     1.471626605038     0.038971087332    12.000000000000
         H           -0.288752153029    -2.499872394962    -0.027366912668     1.007825032230
         H           -0.288753153029     2.515951605038    -0.027355912668     1.007825032230
         H            3.173481846971     0.008029605038     1.289908087332     1.007825032230
         H            3.863991846971     0.008043605038    -0.387128912668     1.007825032230
         H           -2.636943153029    -2.533566394962     0.026143087332     1.007825032230
         H           -3.397453153029    -1.223246394962     0.939214087332     1.007825032230
         H           -3.448191153029    -1.210681394962    -0.822871912668     1.007825032230
         H           -3.397441153029     1.239369605038     0.939225087332     1.007825032230
         H           -2.636946153029     2.549644605038     0.026076087332     1.007825032230
         H           -3.448203153029     1.226713605038    -0.822860912668     1.007825032230

  Basis Set: AUG-CC-PVTZ
    Blend: AUG-CC-PVTZ
  Basis Set: (AUG-CC-PVTZ AUX)
    Blend: AUG-CC-PVTZ-JKFIT
	 Reference Energy          =    -496.4875431346169989 [Eh]
	 Singles Energy            =      -0.0000000000000000 [Eh]
	 Same-Spin Energy          =      -0.5237050517155708 [Eh]
	 Opposite-Spin Energy      =      -1.6332157849823108 [Eh]
	 Correlation Energy        =      -2.1569208366978816 [Eh]
	 Total Energy              =    -498.6444639713149058 [Eh]

	 ================> DF-SCS-MP2 Energies <==================
	-----------------------------------------------------------
	 SCS Same-Spin Scale       =       0.3333333333333333 [-]
	 SCS Opposite-Spin Scale   =       1.2000000000000000 [-]
	 SCS Same-Spin Energy      =      -0.1745683505718569 [Eh]
	 SCS Opposite-Spin Energy  =      -1.9598589419787729 [Eh]
	 SCS Correlation Energy    =      -2.1344272925506296 [Eh]
	 SCS Total Energy          =    -498.6219704271676392 [Eh]
	-----------------------------------------------------------

  Dipole Moment: [D]
     X:    -0.5284      Y:     0.0251      Z:     0.5636     Total:     0.7730

*** Psi4 exiting successfully. Buy a developer a beer!
