                               Psi4 1.4a3.dev225

  ==> Input File <==

--------------------------------------------------------------------------
#psi4
#
memory 32 gb

molecule  {
0 1
  O        2.2381840    -1.1587810    -0.1175950
  O        2.2381840     1.1587830    -0.1175780
  C       -1.4506090    -0.7058110    -0.0005310
  C       -1.4506100     0.7058110    -0.0005190
  C        0.9370840    -0.6945160    -0.0405820
  C        0.9855559     0.6936719    -0.0411538
  C       -0.2384000    -1.4209720    -0.0261700
  C       -0.2384020     1.4209720    -0.0261890
  C        3.0186620    -0.0000010     0.2058680
  C       -2.7532520    -1.4635880     0.0322900
  C       -2.7532530     1.4635870     0.0322790
  H       -0.2243070    -2.5079120    -0.0340590
  H       -0.2243080     2.5079120    -0.0340480
  H        3.2379270    -0.0000100     1.2832160
  H        3.9284370     0.0000040    -0.3938210
  H       -2.5724980    -2.5416060     0.0194510
  H       -3.3330080    -1.2312860     0.9325220
  H       -3.3837460    -1.2187210    -0.8295640
  H       -3.3329960     1.2313300     0.9325330
  H       -2.5725010     2.5416050     0.0193840
  H       -3.3837580     1.2186740    -0.8295530
units angstrom
no_reorient  #important for SAPT in psi4, default
symmetry c1  #important for SAPT in psi4, default
}

set PROPERTIES_ORIGIN ["COM"]
properties('MP2/aug-cc-pvtz', properties = ['dipole'])
--------------------------------------------------------------------------

    Molecular point group: c1
  Charge       = 0
  Multiplicity = 1
  Basis Set: AUG-CC-PVTZ
    Blend: AUG-CC-PVTZ
  Basis Set: (AUG-CC-PVTZ AUX)
    Blend: AUG-CC-PVTZ-JKFIT

    Orbital Energies [Eh]
    ---------------------

    Doubly Occupied:

       1A    -20.602785     2A    -20.594861     3A    -11.355438
       4A    -11.294305     5A    -11.288639     6A    -11.241406
       7A    -11.240094     8A    -11.239611     9A    -11.237782
      10A    -11.224511    11A    -11.224207    12A     -1.479715
      13A     -1.375009    14A     -1.153331    15A     -1.051681
      16A     -1.033895    17A     -0.949690    18A     -0.944201
      19A     -0.885373    20A     -0.835824    21A     -0.798468
      22A     -0.720384    23A     -0.715483    24A     -0.678451
      25A     -0.648090    26A     -0.612201    27A     -0.609816
      28A     -0.594048    29A     -0.581427    30A     -0.568441
      31A     -0.550723    32A     -0.542885    33A     -0.538175
      34A     -0.533535    35A     -0.527955    36A     -0.499894
      37A     -0.488314    38A     -0.440533    39A     -0.329582
      40A     -0.289683

  @DF-RHF Final Energy:  -496.51127769452347

   => Energetics <=

    Nuclear Repulsion Energy =            601.3532183376637477
    One-Electron Energy =               -1868.6881041093911335
    Two-Electron Energy =                 770.8236080772038576
    Total Energy =                       -496.5112776945235282
  Basis Set: (AUG-CC-PVTZ AUX)
    Blend: AUG-CC-PVTZ-RI
    Molecular point group: c1

    Geometry (in Angstrom), charge = 0, multiplicity = 1:

       Center              X                  Y                   Z               Mass
    ------------   -----------------  -----------------  -----------------  -----------------
         O            2.156042174849    -1.158713488718    -0.110507132299    15.994914619570
         O            2.156042174849     1.158850511282    -0.110490132299    15.994914619570
         C           -1.532750825151    -0.705743488718     0.006556867701    12.000000000000
         C           -1.532751825151     0.705878511282     0.006568867701    12.000000000000
         C            0.854942174849    -0.694448488718    -0.033494132299    12.000000000000
         C            0.903414074849     0.693739411282    -0.034065932299    12.000000000000
         C           -0.320541825151    -1.420904488718    -0.019082132299    12.000000000000
         C           -0.320543825151     1.421039511282    -0.019101132299    12.000000000000
         C            2.936520174849     0.000066511282     0.212955867701    12.000000000000
         C           -2.835393825151    -1.463520488718     0.039377867701    12.000000000000
         C           -2.835394825151     1.463654511282     0.039366867701    12.000000000000
         H           -0.306448825151    -2.507844488718    -0.026971132299     1.007825032230
         H           -0.306449825151     2.507979511282    -0.026960132299     1.007825032230
         H            3.155785174849     0.000057511282     1.290303867701     1.007825032230
         H            3.846295174849     0.000071511282    -0.386733132299     1.007825032230
         H           -2.654639825151    -2.541538488718     0.026538867701     1.007825032230
         H           -3.415149825151    -1.231218488718     0.939609867701     1.007825032230
         H           -3.465887825151    -1.218653488718    -0.822476132299     1.007825032230
         H           -3.415137825151     1.231397511282     0.939620867701     1.007825032230
         H           -2.654642825151     2.541672511282     0.026471867701     1.007825032230
         H           -3.465899825151     1.218741511282    -0.822465132299     1.007825032230

  Basis Set: AUG-CC-PVTZ
    Blend: AUG-CC-PVTZ
  Basis Set: (AUG-CC-PVTZ AUX)
    Blend: AUG-CC-PVTZ-JKFIT
	 Reference Energy          =    -496.5112776945234714 [Eh]
	 Singles Energy            =      -0.0000000000000000 [Eh]
	 Same-Spin Energy          =      -0.5242417362357132 [Eh]
	 Opposite-Spin Energy      =      -1.6321544639083001 [Eh]
	 Correlation Energy        =      -2.1563962001440133 [Eh]
	 Total Energy              =    -498.6676738946674732 [Eh]

	 ================> DF-SCS-MP2 Energies <==================
	-----------------------------------------------------------
	 SCS Same-Spin Scale       =       0.3333333333333333 [-]
	 SCS Opposite-Spin Scale   =       1.2000000000000000 [-]
	 SCS Same-Spin Energy      =      -0.1747472454119044 [Eh]
	 SCS Opposite-Spin Energy  =      -1.9585853566899600 [Eh]
	 SCS Correlation Energy    =      -2.1333326021018646 [Eh]
	 SCS Total Energy          =    -498.6446102966253306 [Eh]
	-----------------------------------------------------------

  Dipole Moment: [D]
     X:    -0.3212      Y:     0.0486      Z:     0.5527     Total:     0.6411

*** Psi4 exiting successfully. Buy a developer a beer!
