                               Psi4 1.4a3.dev225

  ==> Input File <==

--------------------------------------------------------------------------
#psi4
#
memory 32 gb

molecule  {
0 1
  O        2.2381840    -1.1587810    -0.1175950
  O        2.2381840     1.1587830    -0.1175780
  C       -1.4506090    -0.7058110    -0.0005310
  C       -1.4506100     0.7058110    -0.0005190
  C        0.9370840    -0.6945160    -0.0405820
  C        0.9370830     0.6945180    -0.0405590
  C       -0.2384000    -1.4209720    -0.0261700
  C       -0.2384020     1.4209720    -0.0261890
  C        3.0186620    -0.0000010     0.2058680
  C       -2.7532520    -1.4635880     0.0322900
  C       -2.7532530     1.4635870     0.0322790
  H       -0.2243070    -2.5079120    -0.0340590
  H       -0.2243080     2.5079120    -0.0340480
  H        3.2379270    -0.0000100     1.2832160
  H        3.9451356     0.0000041    -0.4048281
  H       -2.5724980    -2.5416060     0.0194510
  H       -3.3330080    -1.2312860     0.9325220
  H       -3.3837460    -1.2187210    -0.8295640
  H       -3.3329960     1.2313300     0.9325330
  H       -2.5725010     2.5416050     0.0193840
  H       -3.3837580     1.2186740    -0.8295530
units angstrom
no_reorient  #important for SAPT in psi4, default
symmetry c1  #important for SAPT in psi4, default
}

set PROPERTIES_ORIGIN ["COM"]
properties('MP2/aug-cc-pvtz', properties = ['dipole'])
--------------------------------------------------------------------------

    Molecular point group: c1
  Charge       = 0
  Multiplicity = 1
  Basis Set: AUG-CC-PVTZ
    Blend: AUG-CC-PVTZ
  Basis Set: (AUG-CC-PVTZ AUX)
    Blend: AUG-CC-PVTZ-JKFIT

    Orbital Energies [Eh]
    ---------------------

    Doubly Occupied:

       1A    -20.596324     2A    -20.596304     3A    -11.354596
       4A    -11.292238     5A    -11.290966     6A    -11.242392
       7A    -11.241294     8A    -11.238378     9A    -11.238359
      10A    -11.225370    11A    -11.225364    12A     -1.467307
      13A     -1.364856    14A     -1.158536    15A     -1.053057
      16A     -1.038403    17A     -0.952427    18A     -0.941676
      19A     -0.881858    20A     -0.836988    21A     -0.795682
      22A     -0.714969    23A     -0.712839    24A     -0.675115
      25A     -0.647184    26A     -0.615151    27A     -0.610411
      28A     -0.595298    29A     -0.574263    30A     -0.565932
      31A     -0.551567    32A     -0.541058    33A     -0.535187
      34A     -0.533259    35A     -0.529239    36A     -0.500873
      37A     -0.491369    38A     -0.441513    39A     -0.334468
      40A     -0.293298

  @DF-RHF Final Energy:  -496.51371623293807

   => Energetics <=

    Nuclear Repulsion Energy =            601.1759119574644501
    One-Electron Energy =               -1868.3885202798676346
    Two-Electron Energy =                 770.6988920894650619
    Total Energy =                       -496.5137162329381226
  Basis Set: (AUG-CC-PVTZ AUX)
    Blend: AUG-CC-PVTZ-RI
    Molecular point group: c1

    Geometry (in Angstrom), charge = 0, multiplicity = 1:

       Center              X                  Y                   Z               Mass
    ------------   -----------------  -----------------  -----------------  -----------------
         O            2.159806103424    -1.158781146683    -0.110480773389    15.994914619570
         O            2.159806103424     1.158782853317    -0.110463773389    15.994914619570
         C           -1.528986896576    -0.705811146683     0.006583226611    12.000000000000
         C           -1.528987896576     0.705810853317     0.006595226611    12.000000000000
         C            0.858706103424    -0.694516146683    -0.033467773389    12.000000000000
         C            0.858705103424     0.694517853317    -0.033444773389    12.000000000000
         C           -0.316777896576    -1.420972146683    -0.019055773389    12.000000000000
         C           -0.316779896576     1.420971853317    -0.019074773389    12.000000000000
         C            2.940284103424    -0.000001146683     0.212982226611    12.000000000000
         C           -2.831629896576    -1.463588146683     0.039404226611    12.000000000000
         C           -2.831630896576     1.463586853317     0.039393226611    12.000000000000
         H           -0.302684896576    -2.507912146683    -0.026944773389     1.007825032230
         H           -0.302685896576     2.507911853317    -0.026933773389     1.007825032230
         H            3.159549103424    -0.000010146683     1.290330226611     1.007825032230
         H            3.866757703424     0.000003953317    -0.397713873389     1.007825032230
         H           -2.650875896576    -2.541606146683     0.026565226611     1.007825032230
         H           -3.411385896576    -1.231286146683     0.939636226611     1.007825032230
         H           -3.462123896576    -1.218721146683    -0.822449773389     1.007825032230
         H           -3.411373896576     1.231329853317     0.939647226611     1.007825032230
         H           -2.650878896576     2.541604853317     0.026498226611     1.007825032230
         H           -3.462135896576     1.218673853317    -0.822438773389     1.007825032230

  Basis Set: AUG-CC-PVTZ
    Blend: AUG-CC-PVTZ
  Basis Set: (AUG-CC-PVTZ AUX)
    Blend: AUG-CC-PVTZ-JKFIT
	 Reference Energy          =    -496.5137162329380658 [Eh]
	 Singles Energy            =      -0.0000000000000000 [Eh]
	 Same-Spin Energy          =      -0.5240841469067011 [Eh]
	 Opposite-Spin Energy      =      -1.6324101981379378 [Eh]
	 Correlation Energy        =      -2.1564943450446390 [Eh]
	 Total Energy              =    -498.6702105779826866 [Eh]

	 ================> DF-SCS-MP2 Energies <==================
	-----------------------------------------------------------
	 SCS Same-Spin Scale       =       0.3333333333333333 [-]
	 SCS Opposite-Spin Scale   =       1.2000000000000000 [-]
	 SCS Same-Spin Energy      =      -0.1746947156355670 [Eh]
	 SCS Opposite-Spin Energy  =      -1.9588922377655251 [Eh]
	 SCS Correlation Energy    =      -2.1335869534010921 [Eh]
	 SCS Total Energy          =    -498.6473031863391725 [Eh]
	-----------------------------------------------------------

  Dipole Moment: [D]
     X:    -0.5823      Y:    -0.0000      Z:     0.5648     Total:     0.8112

*** Psi4 exiting successfully. Buy a developer a beer!
