                               Psi4 1.4a3.dev225

  ==> Input File <==

--------------------------------------------------------------------------
#psi4
#
memory 32 gb

molecule  {
0 1
  O        2.2381840    -1.1587810    -0.1175950
  O        2.2381840     1.1587830    -0.1175780
  C       -1.4506090    -0.7058110    -0.0005310
  C       -1.4506100     0.7058110    -0.0005190
  C        0.9370840    -0.6945160    -0.0405820
  C        0.9370830     0.6945180    -0.0405590
  C       -0.2384000    -1.4209720    -0.0261700
  C       -0.4106298     1.3193635    -0.0225419
  C        3.0186620    -0.0000010     0.2058680
  C       -2.7532520    -1.4635880     0.0322900
  C       -2.7532530     1.4635870     0.0322790
  H       -0.2243070    -2.5079120    -0.0340590
  H       -0.2243080     2.5079120    -0.0340480
  H        3.2379270    -0.0000100     1.2832160
  H        3.9284370     0.0000040    -0.3938210
  H       -2.5724980    -2.5416060     0.0194510
  H       -3.3330080    -1.2312860     0.9325220
  H       -3.3837460    -1.2187210    -0.8295640
  H       -3.3329960     1.2313300     0.9325330
  H       -2.5725010     2.5416050     0.0193840
  H       -3.3837580     1.2186740    -0.8295530
units angstrom
no_reorient  #important for SAPT in psi4, default
symmetry c1  #important for SAPT in psi4, default
}

set PROPERTIES_ORIGIN ["COM"]
properties('MP2/aug-cc-pvtz', properties = ['dipole'])
--------------------------------------------------------------------------

    Molecular point group: c1
  Charge       = 0
  Multiplicity = 1
  Basis Set: AUG-CC-PVTZ
    Blend: AUG-CC-PVTZ
  Basis Set: (AUG-CC-PVTZ AUX)
    Blend: AUG-CC-PVTZ-JKFIT

    Orbital Energies [Eh]
    ---------------------

    Doubly Occupied:

       1A    -20.599870     2A    -20.592676     3A    -11.352840
       4A    -11.294835     5A    -11.286080     6A    -11.245046
       7A    -11.238434     8A    -11.237585     9A    -11.226136
      10A    -11.225438    11A    -11.217703    12A     -1.465390
      13A     -1.363249    14A     -1.178461    15A     -1.063329
      16A     -1.039724    17A     -0.949883    18A     -0.944217
      19A     -0.885815    20A     -0.827505    21A     -0.802472
      22A     -0.719381    23A     -0.712932    24A     -0.676655
      25A     -0.649187    26A     -0.613525    27A     -0.600896
      28A     -0.596617    29A     -0.573539    30A     -0.568451
      31A     -0.554041    32A     -0.541426    33A     -0.534707
      34A     -0.530937    35A     -0.529053    36A     -0.511078
      37A     -0.456828    38A     -0.454976    39A     -0.351185
      40A     -0.286769

  @DF-RHF Final Energy:  -496.45329687776297

   => Energetics <=

    Nuclear Repulsion Energy =            603.2298249870240170
    One-Electron Energy =               -1872.3685007321437297
    Two-Electron Energy =                 772.6853788673566896
    Total Energy =                       -496.4532968777629094
  Basis Set: (AUG-CC-PVTZ AUX)
    Blend: AUG-CC-PVTZ-RI
    Molecular point group: c1

    Geometry (in Angstrom), charge = 0, multiplicity = 1:

       Center              X                  Y                   Z               Mass
    ------------   -----------------  -----------------  -----------------  -----------------
         O            2.173690221040    -1.150656153650    -0.110846330349    15.994914619570
         O            2.173690221040     1.166907846350    -0.110829330349    15.994914619570
         C           -1.515102778960    -0.697686153650     0.006217669651    12.000000000000
         C           -1.515103778960     0.713935846350     0.006229669651    12.000000000000
         C            0.872590221040    -0.686391153650    -0.033833330349    12.000000000000
         C            0.872589221040     0.702642846350    -0.033810330349    12.000000000000
         C           -0.302893778960    -1.412847153650    -0.019421330349    12.000000000000
         C           -0.475123578960     1.327488346350    -0.015793230349    12.000000000000
         C            2.954168221040     0.008123846350     0.212616669651    12.000000000000
         C           -2.817745778960    -1.455463153650     0.039038669651    12.000000000000
         C           -2.817746778960     1.471711846350     0.039027669651    12.000000000000
         H           -0.288800778960    -2.499787153650    -0.027310330349     1.007825032230
         H           -0.288801778960     2.516036846350    -0.027299330349     1.007825032230
         H            3.173433221040     0.008114846350     1.289964669651     1.007825032230
         H            3.863943221040     0.008128846350    -0.387072330349     1.007825032230
         H           -2.636991778960    -2.533481153650     0.026199669651     1.007825032230
         H           -3.397501778960    -1.223161153650     0.939270669651     1.007825032230
         H           -3.448239778960    -1.210596153650    -0.822815330349     1.007825032230
         H           -3.397489778960     1.239454846350     0.939281669651     1.007825032230
         H           -2.636994778960     2.549729846350     0.026132669651     1.007825032230
         H           -3.448251778960     1.226798846350    -0.822804330349     1.007825032230

  Basis Set: AUG-CC-PVTZ
    Blend: AUG-CC-PVTZ
  Basis Set: (AUG-CC-PVTZ AUX)
    Blend: AUG-CC-PVTZ-JKFIT
	 Reference Energy          =    -496.4532968777629662 [Eh]
	 Singles Energy            =      -0.0000000000000000 [Eh]
	 Same-Spin Energy          =      -0.5242862344757191 [Eh]
	 Opposite-Spin Energy      =      -1.6343538509574422 [Eh]
	 Correlation Energy        =      -2.1586400854331611 [Eh]
	 Total Energy              =    -498.6119369631961149 [Eh]

	 ================> DF-SCS-MP2 Energies <==================
	-----------------------------------------------------------
	 SCS Same-Spin Scale       =       0.3333333333333333 [-]
	 SCS Opposite-Spin Scale   =       1.2000000000000000 [-]
	 SCS Same-Spin Energy      =      -0.1747620781585730 [Eh]
	 SCS Opposite-Spin Energy  =      -1.9612246211489306 [Eh]
	 SCS Correlation Energy    =      -2.1359866993075034 [Eh]
	 SCS Total Energy          =    -498.5892835770704892 [Eh]
	-----------------------------------------------------------

  Dipole Moment: [D]
     X:    -0.5840      Y:    -0.0410      Z:     0.5484     Total:     0.8022

*** Psi4 exiting successfully. Buy a developer a beer!
