                               Psi4 1.4a3.dev225

  ==> Input File <==

--------------------------------------------------------------------------
#psi4
#
memory 32 gb

molecule  {
0 1
  O        2.2381840    -1.1587810    -0.1175950
  O        2.2381840     1.1587830    -0.1175780
  C       -1.4506090    -0.7058110    -0.0005310
  C       -1.4506100     0.7058110    -0.0005190
  C        0.9370840    -0.6945160    -0.0405820
  C        0.9370830     0.6945180    -0.0405590
  C       -0.2384000    -1.4209720    -0.0261700
  C       -0.2384020     1.4209720    -0.0261890
  C        3.0295468     0.0161598     0.2103791
  C       -2.7532520    -1.4635880     0.0322900
  C       -2.7532530     1.4635870     0.0322790
  H       -0.2243070    -2.5079120    -0.0340590
  H       -0.2243080     2.5079120    -0.0340480
  H        3.2379270    -0.0000100     1.2832160
  H        3.9284370     0.0000040    -0.3938210
  H       -2.5724980    -2.5416060     0.0194510
  H       -3.3330080    -1.2312860     0.9325220
  H       -3.3837460    -1.2187210    -0.8295640
  H       -3.3329960     1.2313300     0.9325330
  H       -2.5725010     2.5416050     0.0193840
  H       -3.3837580     1.2186740    -0.8295530
units angstrom
no_reorient  #important for SAPT in psi4, default
symmetry c1  #important for SAPT in psi4, default
}

set PROPERTIES_ORIGIN ["COM"]
properties('MP2/aug-cc-pvtz', properties = ['dipole'])
--------------------------------------------------------------------------

    Molecular point group: c1
  Charge       = 0
  Multiplicity = 1
  Basis Set: AUG-CC-PVTZ
    Blend: AUG-CC-PVTZ
  Basis Set: (AUG-CC-PVTZ AUX)
    Blend: AUG-CC-PVTZ-JKFIT

    Orbital Energies [Eh]
    ---------------------

    Doubly Occupied:

       1A    -20.596935     2A    -20.593847     3A    -11.352813
       4A    -11.291672     5A    -11.290308     6A    -11.241935
       7A    -11.240794     8A    -11.238242     9A    -11.237498
      10A    -11.225052    11A    -11.225028    12A     -1.464484
      13A     -1.362058    14A     -1.158015    15A     -1.052912
      16A     -1.037865    17A     -0.951933    18A     -0.943722
      19A     -0.882760    20A     -0.836411    21A     -0.794357
      22A     -0.716260    23A     -0.712093    24A     -0.674092
      25A     -0.648560    26A     -0.614737    27A     -0.611169
      28A     -0.595192    29A     -0.572179    30A     -0.565618
      31A     -0.551195    32A     -0.540559    33A     -0.534857
      34A     -0.533300    35A     -0.530766    36A     -0.500323
      37A     -0.490782    38A     -0.442307    39A     -0.333979
      40A     -0.292758

  @DF-RHF Final Energy:  -496.51389263504888

   => Energetics <=

    Nuclear Repulsion Energy =            600.9956287134874628
    One-Electron Energy =               -1868.0603142573663717
    Two-Electron Energy =                 770.5507929088302035
    Total Energy =                       -496.5138926350488191
  Basis Set: (AUG-CC-PVTZ AUX)
    Blend: AUG-CC-PVTZ-RI
    Molecular point group: c1

    Geometry (in Angstrom), charge = 0, multiplicity = 1:

       Center              X                  Y                   Z               Mass
    ------------   -----------------  -----------------  -----------------  -----------------
         O            2.159047858678    -1.160073423493    -0.110915418992    15.994914619570
         O            2.159047858678     1.157490576507    -0.110898418992    15.994914619570
         C           -1.529745141322    -0.707103423493     0.006148581008    12.000000000000
         C           -1.529746141322     0.704518576507     0.006160581008    12.000000000000
         C            0.857947858678    -0.695808423493    -0.033902418992    12.000000000000
         C            0.857946858678     0.693225576507    -0.033879418992    12.000000000000
         C           -0.317536141322    -1.422264423493    -0.019490418992    12.000000000000
         C           -0.317538141322     1.419679576507    -0.019509418992    12.000000000000
         C            2.950410658678     0.014867376507     0.217058681008    12.000000000000
         C           -2.832388141322    -1.464880423493     0.038969581008    12.000000000000
         C           -2.832389141322     1.462294576507     0.038958581008    12.000000000000
         H           -0.303443141322    -2.509204423493    -0.027379418992     1.007825032230
         H           -0.303444141322     2.506619576507    -0.027368418992     1.007825032230
         H            3.158790858678    -0.001302423493     1.289895581008     1.007825032230
         H            3.849300858678    -0.001288423493    -0.387141418992     1.007825032230
         H           -2.651634141322    -2.542898423493     0.026130581008     1.007825032230
         H           -3.412144141322    -1.232578423493     0.939201581008     1.007825032230
         H           -3.462882141322    -1.220013423493    -0.822884418992     1.007825032230
         H           -3.412132141322     1.230037576507     0.939212581008     1.007825032230
         H           -2.651637141322     2.540312576507     0.026063581008     1.007825032230
         H           -3.462894141322     1.217381576507    -0.822873418992     1.007825032230

  Basis Set: AUG-CC-PVTZ
    Blend: AUG-CC-PVTZ
  Basis Set: (AUG-CC-PVTZ AUX)
    Blend: AUG-CC-PVTZ-JKFIT
	 Reference Energy          =    -496.5138926350488759 [Eh]
	 Singles Energy            =      -0.0000000000000000 [Eh]
	 Same-Spin Energy          =      -0.5240348340036043 [Eh]
	 Opposite-Spin Energy      =      -1.6323849275478555 [Eh]
	 Correlation Energy        =      -2.1564197615514598 [Eh]
	 Total Energy              =    -498.6703123966003091 [Eh]

	 ================> DF-SCS-MP2 Energies <==================
	-----------------------------------------------------------
	 SCS Same-Spin Scale       =       0.3333333333333333 [-]
	 SCS Opposite-Spin Scale   =       1.2000000000000000 [-]
	 SCS Same-Spin Energy      =      -0.1746782780012014 [Eh]
	 SCS Opposite-Spin Energy  =      -1.9588619130574265 [Eh]
	 SCS Correlation Energy    =      -2.1335401910586280 [Eh]
	 SCS Total Energy          =    -498.6474328261074902 [Eh]
	-----------------------------------------------------------

  Dipole Moment: [D]
     X:    -0.5052      Y:     0.0519      Z:     0.5868     Total:     0.7760

*** Psi4 exiting successfully. Buy a developer a beer!
