                               Psi4 1.4a3.dev225

  ==> Input File <==

--------------------------------------------------------------------------
#psi4
#
memory 32 gb

molecule  {
0 1
  O        2.2381840    -1.1587810    -0.1175950
  O        2.2381840     1.1587830    -0.1175780
  C       -1.4506090    -0.7058110    -0.0005310
  C       -1.4506100     0.7058110    -0.0005190
  C        0.9370840    -0.6945160    -0.0405820
  C        0.9370830     0.6945180    -0.0405590
  C       -0.2384000    -1.4209720    -0.0261700
  C       -0.2384020     1.4209720    -0.0261890
  C        3.0186620    -0.0000010     0.2058680
  C       -2.7532520    -1.4635880     0.0322900
  C       -2.7532530     1.4635870     0.0322790
  H       -0.2243070    -2.5079120    -0.0340590
  H       -0.2243080     2.5079120    -0.0340480
  H        3.2379270    -0.0000100     1.2832160
  H        3.9284370     0.0000040    -0.3938210
  H       -2.5724980    -2.5416060     0.0194510
  H       -3.3859212    -1.2100842     1.0146845
  H       -3.3837460    -1.2187210    -0.8295640
  H       -3.3329960     1.2313300     0.9325330
  H       -2.5725010     2.5416050     0.0193840
  H       -3.3837580     1.2186740    -0.8295530
units angstrom
no_reorient  #important for SAPT in psi4, default
symmetry c1  #important for SAPT in psi4, default
}

set PROPERTIES_ORIGIN ["COM"]
properties('MP2/aug-cc-pvtz', properties = ['dipole'])
--------------------------------------------------------------------------

    Molecular point group: c1
  Charge       = 0
  Multiplicity = 1
  Basis Set: AUG-CC-PVTZ
    Blend: AUG-CC-PVTZ
  Basis Set: (AUG-CC-PVTZ AUX)
    Blend: AUG-CC-PVTZ-JKFIT

    Orbital Energies [Eh]
    ---------------------

    Doubly Occupied:

       1A    -20.596535     2A    -20.596441     3A    -11.352653
       4A    -11.292658     5A    -11.291376     6A    -11.243055
       7A    -11.241908     8A    -11.239056     9A    -11.238624
      10A    -11.237014    11A    -11.225154    12A     -1.467586
      13A     -1.365066    14A     -1.158847    15A     -1.052664
      16A     -1.038133    17A     -0.950217    18A     -0.941040
      19A     -0.881551    20A     -0.836886    21A     -0.794712
      22A     -0.716362    23A     -0.713020    24A     -0.674628
      25A     -0.648525    26A     -0.615516    27A     -0.610956
      28A     -0.592035    29A     -0.574483    30A     -0.565178
      31A     -0.545690    32A     -0.540060    33A     -0.534737
      34A     -0.530905    35A     -0.529488    36A     -0.499139
      37A     -0.491906    38A     -0.441180    39A     -0.334664
      40A     -0.293401

  @DF-RHF Final Energy:  -496.50786784387867

   => Energetics <=

    Nuclear Repulsion Energy =            600.8669496584392391
    One-Electron Energy =               -1867.7635382614657829
    Two-Electron Energy =                 770.3887207591477591
    Total Energy =                       -496.5078678438786710
  Basis Set: (AUG-CC-PVTZ AUX)
    Blend: AUG-CC-PVTZ-RI
    Molecular point group: c1

    Geometry (in Angstrom), charge = 0, multiplicity = 1:

       Center              X                  Y                   Z               Mass
    ------------   -----------------  -----------------  -----------------  -----------------
         O            2.160273601341    -1.158923532752    -0.111106480438    15.994914619570
         O            2.160273601341     1.158640467248    -0.111089480438    15.994914619570
         C           -1.528519398659    -0.705953532752     0.005957519562    12.000000000000
         C           -1.528520398659     0.705668467248     0.005969519562    12.000000000000
         C            0.859173601341    -0.694658532752    -0.034093480438    12.000000000000
         C            0.859172601341     0.694375467248    -0.034070480438    12.000000000000
         C           -0.316310398659    -1.421114532752    -0.019681480438    12.000000000000
         C           -0.316312398659     1.420829467248    -0.019700480438    12.000000000000
         C            2.940751601341    -0.000143532752     0.212356519562    12.000000000000
         C           -2.831162398659    -1.463730532752     0.038778519562    12.000000000000
         C           -2.831163398659     1.463444467248     0.038767519562    12.000000000000
         H           -0.302217398659    -2.508054532752    -0.027570480438     1.007825032230
         H           -0.302218398659     2.507769467248    -0.027559480438     1.007825032230
         H            3.160016601341    -0.000152532752     1.289704519562     1.007825032230
         H            3.850526601341    -0.000138532752    -0.387332480438     1.007825032230
         H           -2.650408398659    -2.541748532752     0.025939519562     1.007825032230
         H           -3.463831598659    -1.210226732752     1.021173019562     1.007825032230
         H           -3.461656398659    -1.218863532752    -0.823075480438     1.007825032230
         H           -3.410906398659     1.231187467248     0.939021519562     1.007825032230
         H           -2.650411398659     2.541462467248     0.025872519562     1.007825032230
         H           -3.461668398659     1.218531467248    -0.823064480438     1.007825032230

  Basis Set: AUG-CC-PVTZ
    Blend: AUG-CC-PVTZ
  Basis Set: (AUG-CC-PVTZ AUX)
    Blend: AUG-CC-PVTZ-JKFIT
	 Reference Energy          =    -496.5078678438786710 [Eh]
	 Singles Energy            =      -0.0000000000000000 [Eh]
	 Same-Spin Energy          =      -0.5240994630717344 [Eh]
	 Opposite-Spin Energy      =      -1.6329736410438955 [Eh]
	 Correlation Energy        =      -2.1570731041156299 [Eh]
	 Total Energy              =    -498.6649409479942960 [Eh]

	 ================> DF-SCS-MP2 Energies <==================
	-----------------------------------------------------------
	 SCS Same-Spin Scale       =       0.3333333333333333 [-]
	 SCS Opposite-Spin Scale   =       1.2000000000000000 [-]
	 SCS Same-Spin Energy      =      -0.1746998210239115 [Eh]
	 SCS Opposite-Spin Energy  =      -1.9595683692526746 [Eh]
	 SCS Correlation Energy    =      -2.1342681902765861 [Eh]
	 SCS Total Energy          =    -498.6421360341552713 [Eh]
	-----------------------------------------------------------

  Dipole Moment: [D]
     X:    -0.5070      Y:     0.0092      Z:     0.5221     Total:     0.7278

*** Psi4 exiting successfully. Buy a developer a beer!
