                               Psi4 1.4a3.dev225

  ==> Input File <==

--------------------------------------------------------------------------
#psi4
#
memory 32 gb

molecule  {
0 1
  O        2.2381840    -1.1587810    -0.1175950
  O        2.2381840     1.1587830    -0.1175780
  C       -1.4506090    -0.7058110    -0.0005310
  C       -1.4506100     0.7058110    -0.0005190
  C        0.9370840    -0.6945160    -0.0405820
  C        0.9370830     0.6945180    -0.0405590
  C       -0.2384000    -1.4209720    -0.0261700
  C       -0.2384020     1.4209720    -0.0261890
  C        3.0186620    -0.0000010     0.2058680
  C       -2.7532520    -1.4635880     0.0322900
  C       -2.7532530     1.4635870     0.0322790
  H       -0.2243070    -2.5079120    -0.0340590
  H       -0.2243080     2.5079120    -0.0340480
  H        3.2379270    -0.0000100     1.2832160
  H        3.9284370     0.0000040    -0.3938210
  H       -2.5724980    -2.5416060     0.0194510
  H       -3.3330080    -1.2312860     0.9325220
  H       -3.3837460    -1.2187210    -0.8295640
  H       -3.2271720     1.2737253     0.7682043
  H       -2.5725010     2.5416050     0.0193840
  H       -3.3837580     1.2186740    -0.8295530
units angstrom
no_reorient  #important for SAPT in psi4, default
symmetry c1  #important for SAPT in psi4, default
}

set PROPERTIES_ORIGIN ["COM"]
properties('MP2/aug-cc-pvtz', properties = ['dipole'])
--------------------------------------------------------------------------

    Molecular point group: c1
  Charge       = 0
  Multiplicity = 1
  Basis Set: AUG-CC-PVTZ
    Blend: AUG-CC-PVTZ
  Basis Set: (AUG-CC-PVTZ AUX)
    Blend: AUG-CC-PVTZ-JKFIT

    Orbital Energies [Eh]
    ---------------------

    Doubly Occupied:

       1A    -20.595691     2A    -20.595642     3A    -11.351981
       4A    -11.291562     5A    -11.290289     6A    -11.241557
       7A    -11.240254     8A    -11.237902     9A    -11.237368
      10A    -11.225619    11A    -11.200646    12A     -1.466770
      13A     -1.364255    14A     -1.158600    15A     -1.057594
      16A     -1.040066    17A     -0.965033    18A     -0.945134
      19A     -0.885471    20A     -0.838140    21A     -0.798641
      22A     -0.716470    23A     -0.712578    24A     -0.677872
      25A     -0.648465    26A     -0.619393    27A     -0.614106
      28A     -0.604550    29A     -0.573680    30A     -0.573035
      31A     -0.560455    32A     -0.540734    33A     -0.535676
      34A     -0.533744    35A     -0.529893    36A     -0.501912
      37A     -0.490560    38A     -0.442318    39A     -0.334131
      40A     -0.293213

  @DF-RHF Final Energy:  -496.48092943383801

   => Energetics <=

    Nuclear Repulsion Energy =            602.2926395813226463
    One-Electron Energy =               -1870.4851345410259000
    Two-Electron Energy =                 771.7115655258652396
    Total Energy =                       -496.4809294338380141
  Basis Set: (AUG-CC-PVTZ AUX)
    Blend: AUG-CC-PVTZ-RI
    Molecular point group: c1

    Geometry (in Angstrom), charge = 0, multiplicity = 1:

       Center              X                  Y                   Z               Mass
    ------------   -----------------  -----------------  -----------------  -----------------
         O            2.159207556355    -1.159065863752    -0.109451098412    15.994914619570
         O            2.159207556355     1.158498136248    -0.109434098412    15.994914619570
         C           -1.529585443645    -0.706095863752     0.007612901588    12.000000000000
         C           -1.529586443645     0.705526136248     0.007624901588    12.000000000000
         C            0.858107556355    -0.694800863752    -0.032438098412    12.000000000000
         C            0.858106556355     0.694233136248    -0.032415098412    12.000000000000
         C           -0.317376443645    -1.421256863752    -0.018026098412    12.000000000000
         C           -0.317378443645     1.420687136248    -0.018045098412    12.000000000000
         C            2.939685556355    -0.000285863752     0.214011901588    12.000000000000
         C           -2.832228443645    -1.463872863752     0.040433901588    12.000000000000
         C           -2.832229443645     1.463302136248     0.040422901588    12.000000000000
         H           -0.303283443645    -2.508196863752    -0.025915098412     1.007825032230
         H           -0.303284443645     2.507627136248    -0.025904098412     1.007825032230
         H            3.158950556355    -0.000294863752     1.291359901588     1.007825032230
         H            3.849460556355    -0.000280863752    -0.385677098412     1.007825032230
         H           -2.651474443645    -2.541890863752     0.027594901588     1.007825032230
         H           -3.411984443645    -1.231570863752     0.940665901588     1.007825032230
         H           -3.462722443645    -1.219005863752    -0.821420098412     1.007825032230
         H           -3.306148443645     1.273440436248     0.776348201588     1.007825032230
         H           -2.651477443645     2.541320136248     0.027527901588     1.007825032230
         H           -3.462734443645     1.218389136248    -0.821409098412     1.007825032230

  Basis Set: AUG-CC-PVTZ
    Blend: AUG-CC-PVTZ
  Basis Set: (AUG-CC-PVTZ AUX)
    Blend: AUG-CC-PVTZ-JKFIT
	 Reference Energy          =    -496.4809294338380141 [Eh]
	 Singles Energy            =      -0.0000000000000000 [Eh]
	 Same-Spin Energy          =      -0.5240534152522004 [Eh]
	 Opposite-Spin Energy      =      -1.6315441584620693 [Eh]
	 Correlation Energy        =      -2.1555975737142696 [Eh]
	 Total Energy              =    -498.6365270075522744 [Eh]

	 ================> DF-SCS-MP2 Energies <==================
	-----------------------------------------------------------
	 SCS Same-Spin Scale       =       0.3333333333333333 [-]
	 SCS Opposite-Spin Scale   =       1.2000000000000000 [-]
	 SCS Same-Spin Energy      =      -0.1746844717507335 [Eh]
	 SCS Opposite-Spin Energy  =      -1.9578529901544832 [Eh]
	 SCS Correlation Energy    =      -2.1325374619052169 [Eh]
	 SCS Total Energy          =    -498.6134668957432154 [Eh]
	-----------------------------------------------------------

  Dipole Moment: [D]
     X:    -0.6424      Y:     0.0086      Z:     0.6105     Total:     0.8863

*** Psi4 exiting successfully. Buy a developer a beer!
