                               Psi4 1.4a3.dev225

  ==> Input File <==

--------------------------------------------------------------------------
#psi4
#
memory 32 gb

molecule  {
0 1
  O        2.2381840    -1.1587810    -0.1175950
  O        2.2381840     1.1587830    -0.1175780
  C       -1.4506090    -0.7058110    -0.0005310
  C       -1.4506100     0.7058110    -0.0005190
  C        0.9370840    -0.6945160    -0.0405820
  C        0.9370830     0.6945180    -0.0405590
  C       -0.2384000    -1.4209720    -0.0261700
  C       -0.2384020     1.4209720    -0.0261890
  C        3.0186620    -0.0000010     0.2058680
  C       -2.7964610    -1.4887236     0.0333787
  C       -2.7532530     1.4635870     0.0322790
  H       -0.2243070    -2.5079120    -0.0340590
  H       -0.2243080     2.5079120    -0.0340480
  H        3.2379270    -0.0000100     1.2832160
  H        3.9284370     0.0000040    -0.3938210
  H       -2.5724980    -2.5416060     0.0194510
  H       -3.3330080    -1.2312860     0.9325220
  H       -3.3837460    -1.2187210    -0.8295640
  H       -3.3329960     1.2313300     0.9325330
  H       -2.5725010     2.5416050     0.0193840
  H       -3.3837580     1.2186740    -0.8295530
units angstrom
no_reorient  #important for SAPT in psi4, default
symmetry c1  #important for SAPT in psi4, default
}

set PROPERTIES_ORIGIN ["COM"]
properties('MP2/aug-cc-pvtz', properties = ['dipole'])
--------------------------------------------------------------------------

    Molecular point group: c1
  Charge       = 0
  Multiplicity = 1
  Basis Set: AUG-CC-PVTZ
    Blend: AUG-CC-PVTZ
  Basis Set: (AUG-CC-PVTZ AUX)
    Blend: AUG-CC-PVTZ-JKFIT

    Orbital Energies [Eh]
    ---------------------

    Doubly Occupied:

       1A    -20.595919     2A    -20.595884     3A    -11.352181
       4A    -11.291917     5A    -11.290641     6A    -11.243917
       7A    -11.241456     8A    -11.238279     9A    -11.238072
      10A    -11.225267    11A    -11.224057    12A     -1.467005
      13A     -1.364491    14A     -1.156783    15A     -1.050842
      16A     -1.035844    17A     -0.952159    18A     -0.943281
      19A     -0.883184    20A     -0.836938    21A     -0.795729
      22A     -0.715782    23A     -0.712136    24A     -0.673207
      25A     -0.646682    26A     -0.614945    27A     -0.611265
      28A     -0.597331    29A     -0.573953    30A     -0.562632
      31A     -0.555934    32A     -0.545586    33A     -0.535863
      34A     -0.534192    35A     -0.530596    36A     -0.497330
      37A     -0.486719    38A     -0.442550    39A     -0.334461
      40A     -0.293512

  @DF-RHF Final Energy:  -496.51284547447233

   => Energetics <=

    Nuclear Repulsion Energy =            600.3763385390798248
    One-Electron Energy =               -1866.8013218403621067
    Two-Electron Energy =                 769.9121378268099534
    Total Energy =                       -496.5128454744723285
  Basis Set: (AUG-CC-PVTZ AUX)
    Blend: AUG-CC-PVTZ-RI
    Molecular point group: c1

    Geometry (in Angstrom), charge = 0, multiplicity = 1:

       Center              X                  Y                   Z               Mass
    ------------   -----------------  -----------------  -----------------  -----------------
         O            2.163373399471    -1.156771210248    -0.110641751200    15.994914619570
         O            2.163373399471     1.160792789752    -0.110624751200    15.994914619570
         C           -1.525419600529    -0.703801210248     0.006422248800    12.000000000000
         C           -1.525420600529     0.707820789752     0.006434248800    12.000000000000
         C            0.862273399471    -0.692506210248    -0.033628751200    12.000000000000
         C            0.862272399471     0.696527789752    -0.033605751200    12.000000000000
         C           -0.313210600529    -1.418962210248    -0.019216751200    12.000000000000
         C           -0.313212600529     1.422981789752    -0.019235751200    12.000000000000
         C            2.943851399471     0.002008789752     0.212821248800    12.000000000000
         C           -2.871271600529    -1.486713810248     0.040331948800    12.000000000000
         C           -2.828063600529     1.465596789752     0.039232248800    12.000000000000
         H           -0.299117600529    -2.505902210248    -0.027105751200     1.007825032230
         H           -0.299118600529     2.509921789752    -0.027094751200     1.007825032230
         H            3.163116399471     0.001999789752     1.290169248800     1.007825032230
         H            3.853626399471     0.002013789752    -0.386867751200     1.007825032230
         H           -2.647308600529    -2.539596210248     0.026404248800     1.007825032230
         H           -3.407818600529    -1.229276210248     0.939475248800     1.007825032230
         H           -3.458556600529    -1.216711210248    -0.822610751200     1.007825032230
         H           -3.407806600529     1.233339789752     0.939486248800     1.007825032230
         H           -2.647311600529     2.543614789752     0.026337248800     1.007825032230
         H           -3.458568600529     1.220683789752    -0.822599751200     1.007825032230

  Basis Set: AUG-CC-PVTZ
    Blend: AUG-CC-PVTZ
  Basis Set: (AUG-CC-PVTZ AUX)
    Blend: AUG-CC-PVTZ-JKFIT
	 Reference Energy          =    -496.5128454744723285 [Eh]
	 Singles Energy            =      -0.0000000000000000 [Eh]
	 Same-Spin Energy          =      -0.5236782787667685 [Eh]
	 Opposite-Spin Energy      =      -1.6320019532119043 [Eh]
	 Correlation Energy        =      -2.1556802319786730 [Eh]
	 Total Energy              =    -498.6685257064510211 [Eh]

	 ================> DF-SCS-MP2 Energies <==================
	-----------------------------------------------------------
	 SCS Same-Spin Scale       =       0.3333333333333333 [-]
	 SCS Opposite-Spin Scale   =       1.2000000000000000 [-]
	 SCS Same-Spin Energy      =      -0.1745594262555895 [Eh]
	 SCS Opposite-Spin Energy  =      -1.9584023438542850 [Eh]
	 SCS Correlation Energy    =      -2.1329617701098744 [Eh]
	 SCS Total Energy          =    -498.6458072445822154 [Eh]
	-----------------------------------------------------------

  Dipole Moment: [D]
     X:    -0.5716      Y:    -0.0006      Z:     0.5641     Total:     0.8030

*** Psi4 exiting successfully. Buy a developer a beer!
