                               Psi4 1.4a3.dev225

  ==> Input File <==

--------------------------------------------------------------------------
#psi4
#
memory 32 gb

molecule  {
0 1
  O        2.2381840    -1.1587810    -0.1175950
  O        2.2381840     1.1587830    -0.1175780
  C       -1.4506090    -0.7058110    -0.0005310
  C       -1.4506100     0.7058110    -0.0005190
  C        0.9370840    -0.6945160    -0.0405820
  C        0.9370830     0.6945180    -0.0405590
  C       -0.2384000    -1.4209720    -0.0261700
  C       -0.2384020     1.4209720    -0.0261890
  C        3.0186620    -0.0000010     0.2058680
  C       -2.7532520    -1.4635880     0.0322900
  C       -2.7532530     1.4635870     0.0322790
  H       -0.2243070    -2.5079120    -0.0340590
  H       -0.2243080     2.5079120    -0.0340480
  H        3.2339383    -0.0000098     1.2636178
  H        3.9284370     0.0000040    -0.3938210
  H       -2.5724980    -2.5416060     0.0194510
  H       -3.3330080    -1.2312860     0.9325220
  H       -3.3837460    -1.2187210    -0.8295640
  H       -3.3329960     1.2313300     0.9325330
  H       -2.5725010     2.5416050     0.0193840
  H       -3.3837580     1.2186740    -0.8295530
units angstrom
no_reorient  #important for SAPT in psi4, default
symmetry c1  #important for SAPT in psi4, default
}

set PROPERTIES_ORIGIN ["COM"]
properties('MP2/aug-cc-pvtz', properties = ['dipole'])
--------------------------------------------------------------------------

    Molecular point group: c1
  Charge       = 0
  Multiplicity = 1
  Basis Set: AUG-CC-PVTZ
    Blend: AUG-CC-PVTZ
  Basis Set: (AUG-CC-PVTZ AUX)
    Blend: AUG-CC-PVTZ-JKFIT

    Orbital Energies [Eh]
    ---------------------

    Doubly Occupied:

       1A    -20.595717     2A    -20.595697     3A    -11.349986
       4A    -11.291998     5A    -11.290726     6A    -11.242215
       7A    -11.241116     8A    -11.238178     9A    -11.238159
      10A    -11.225250    11A    -11.225244    12A     -1.467034
      13A     -1.364412    14A     -1.158431    15A     -1.053368
      16A     -1.038227    17A     -0.952266    18A     -0.944049
      19A     -0.883389    20A     -0.836916    21A     -0.795431
      22A     -0.717309    23A     -0.713810    24A     -0.674868
      25A     -0.648141    26A     -0.614965    27A     -0.611646
      28A     -0.595326    29A     -0.573965    30A     -0.566050
      31A     -0.551443    32A     -0.540901    33A     -0.534819
      34A     -0.534046    35A     -0.530956    36A     -0.500705
      37A     -0.491188    38A     -0.442121    39A     -0.334292
      40A     -0.293109

  @DF-RHF Final Energy:  -496.51451962973272

   => Energetics <=

    Nuclear Repulsion Energy =            601.3909501965782738
    One-Electron Energy =               -1868.8159985226552635
    Two-Electron Energy =                 770.9105286963443859
    Total Energy =                       -496.5145196297327175
  Basis Set: (AUG-CC-PVTZ AUX)
    Blend: AUG-CC-PVTZ-RI
    Molecular point group: c1

    Geometry (in Angstrom), charge = 0, multiplicity = 1:

       Center              X                  Y                   Z               Mass
    ------------   -----------------  -----------------  -----------------  -----------------
         O            2.159945034893    -1.158781147354    -0.110423077404    15.994914619570
         O            2.159945034893     1.158782852646    -0.110406077404    15.994914619570
         C           -1.528847965107    -0.705811147354     0.006640922596    12.000000000000
         C           -1.528848965107     0.705810852646     0.006652922596    12.000000000000
         C            0.858845034893    -0.694516147354    -0.033410077404    12.000000000000
         C            0.858844034893     0.694517852646    -0.033387077404    12.000000000000
         C           -0.316638965107    -1.420972147354    -0.018998077404    12.000000000000
         C           -0.316640965107     1.420971852646    -0.019017077404    12.000000000000
         C            2.940423034893    -0.000001147354     0.213039922596    12.000000000000
         C           -2.831490965107    -1.463588147354     0.039461922596    12.000000000000
         C           -2.831491965107     1.463586852646     0.039450922596    12.000000000000
         H           -0.302545965107    -2.507912147354    -0.026887077404     1.007825032230
         H           -0.302546965107     2.507911852646    -0.026876077404     1.007825032230
         H            3.155699334893    -0.000009947354     1.270789722596     1.007825032230
         H            3.850198034893     0.000003852646    -0.386649077404     1.007825032230
         H           -2.650736965107    -2.541606147354     0.026622922596     1.007825032230
         H           -3.411246965107    -1.231286147354     0.939693922596     1.007825032230
         H           -3.461984965107    -1.218721147354    -0.822392077404     1.007825032230
         H           -3.411234965107     1.231329852646     0.939704922596     1.007825032230
         H           -2.650739965107     2.541604852646     0.026555922596     1.007825032230
         H           -3.461996965107     1.218673852646    -0.822381077404     1.007825032230

  Basis Set: AUG-CC-PVTZ
    Blend: AUG-CC-PVTZ
  Basis Set: (AUG-CC-PVTZ AUX)
    Blend: AUG-CC-PVTZ-JKFIT
	 Reference Energy          =    -496.5145196297327175 [Eh]
	 Singles Energy            =      -0.0000000000000000 [Eh]
	 Same-Spin Energy          =      -0.5239900600944007 [Eh]
	 Opposite-Spin Energy      =      -1.6320622616718552 [Eh]
	 Correlation Energy        =      -2.1560523217662562 [Eh]
	 Total Energy              =    -498.6705719514989710 [Eh]

	 ================> DF-SCS-MP2 Energies <==================
	-----------------------------------------------------------
	 SCS Same-Spin Scale       =       0.3333333333333333 [-]
	 SCS Opposite-Spin Scale   =       1.2000000000000000 [-]
	 SCS Same-Spin Energy      =      -0.1746633533648002 [Eh]
	 SCS Opposite-Spin Energy  =      -1.9584747140062262 [Eh]
	 SCS Correlation Energy    =      -2.1331380673710263 [Eh]
	 SCS Total Energy          =    -498.6476576971037389 [Eh]
	-----------------------------------------------------------

  Dipole Moment: [D]
     X:    -0.5533      Y:    -0.0000      Z:     0.5792     Total:     0.8010

*** Psi4 exiting successfully. Buy a developer a beer!
