                               Psi4 1.4a3.dev225

  ==> Input File <==

--------------------------------------------------------------------------
#psi4
#
memory 32 gb

molecule  {
0 1
  O        2.2381840    -1.1587810    -0.1175950
  O        2.2461365     1.1359949    -0.1168140
  C       -1.4506090    -0.7058110    -0.0005310
  C       -1.4506100     0.7058110    -0.0005190
  C        0.9370840    -0.6945160    -0.0405820
  C        0.9370830     0.6945180    -0.0405590
  C       -0.2384000    -1.4209720    -0.0261700
  C       -0.2384020     1.4209720    -0.0261890
  C        3.0186620    -0.0000010     0.2058680
  C       -2.7532520    -1.4635880     0.0322900
  C       -2.7532530     1.4635870     0.0322790
  H       -0.2243070    -2.5079120    -0.0340590
  H       -0.2243080     2.5079120    -0.0340480
  H        3.2379270    -0.0000100     1.2832160
  H        3.9284370     0.0000040    -0.3938210
  H       -2.5724980    -2.5416060     0.0194510
  H       -3.3330080    -1.2312860     0.9325220
  H       -3.3837460    -1.2187210    -0.8295640
  H       -3.3329960     1.2313300     0.9325330
  H       -2.5725010     2.5416050     0.0193840
  H       -3.3837580     1.2186740    -0.8295530
units angstrom
no_reorient  #important for SAPT in psi4, default
symmetry c1  #important for SAPT in psi4, default
}

set PROPERTIES_ORIGIN ["COM"]
properties('MP2/aug-cc-pvtz', properties = ['dipole'])
--------------------------------------------------------------------------

    Molecular point group: c1
  Charge       = 0
  Multiplicity = 1
  Basis Set: AUG-CC-PVTZ
    Blend: AUG-CC-PVTZ
  Basis Set: (AUG-CC-PVTZ AUX)
    Blend: AUG-CC-PVTZ-JKFIT

    Orbital Energies [Eh]
    ---------------------

    Doubly Occupied:

       1A    -20.595469     2A    -20.594561     3A    -11.350115
       4A    -11.292535     5A    -11.290956     6A    -11.242606
       7A    -11.241514     8A    -11.239309     9A    -11.238134
      10A    -11.225561    11A    -11.225465    12A     -1.471774
      13A     -1.365489    14A     -1.159109    15A     -1.054394
      16A     -1.038680    17A     -0.952768    18A     -0.943905
      19A     -0.881093    20A     -0.837394    21A     -0.797150
      22A     -0.717887    23A     -0.714504    24A     -0.677192
      25A     -0.647920    26A     -0.615737    27A     -0.613377
      28A     -0.595570    29A     -0.573921    30A     -0.565502
      31A     -0.551678    32A     -0.541049    33A     -0.534506
      34A     -0.533099    35A     -0.529857    36A     -0.501301
      37A     -0.491184    38A     -0.441158    39A     -0.334798
      40A     -0.293222

  @DF-RHF Final Energy:  -496.51513507750616

   => Energetics <=

    Nuclear Repulsion Energy =            601.7818566871836765
    One-Electron Energy =               -1869.5710931962519226
    Two-Electron Energy =                 771.2741014315621442
    Total Energy =                       -496.5151350775062156
  Basis Set: (AUG-CC-PVTZ AUX)
    Blend: AUG-CC-PVTZ-RI
    Molecular point group: c1

    Geometry (in Angstrom), charge = 0, multiplicity = 1:

       Center              X                  Y                   Z               Mass
    ------------   -----------------  -----------------  -----------------  -----------------
         O            2.159070635283    -1.156352290288    -0.110636125185    15.994914619570
         O            2.167023135283     1.138423609712    -0.109855125185    15.994914619570
         C           -1.529722364717    -0.703382290288     0.006427874815    12.000000000000
         C           -1.529723364717     0.708239709712     0.006439874815    12.000000000000
         C            0.857970635283    -0.692087290288    -0.033623125185    12.000000000000
         C            0.857969635283     0.696946709712    -0.033600125185    12.000000000000
         C           -0.317513364717    -1.418543290288    -0.019211125185    12.000000000000
         C           -0.317515364717     1.423400709712    -0.019230125185    12.000000000000
         C            2.939548635283     0.002427709712     0.212826874815    12.000000000000
         C           -2.832365364717    -1.461159290288     0.039248874815    12.000000000000
         C           -2.832366364717     1.466015709712     0.039237874815    12.000000000000
         H           -0.303420364717    -2.505483290288    -0.027100125185     1.007825032230
         H           -0.303421364717     2.510340709712    -0.027089125185     1.007825032230
         H            3.158813635283     0.002418709712     1.290174874815     1.007825032230
         H            3.849323635283     0.002432709712    -0.386862125185     1.007825032230
         H           -2.651611364717    -2.539177290288     0.026409874815     1.007825032230
         H           -3.412121364717    -1.228857290288     0.939480874815     1.007825032230
         H           -3.462859364717    -1.216292290288    -0.822605125185     1.007825032230
         H           -3.412109364717     1.233758709712     0.939491874815     1.007825032230
         H           -2.651614364717     2.544033709712     0.026342874815     1.007825032230
         H           -3.462871364717     1.221102709712    -0.822594125185     1.007825032230

  Basis Set: AUG-CC-PVTZ
    Blend: AUG-CC-PVTZ
  Basis Set: (AUG-CC-PVTZ AUX)
    Blend: AUG-CC-PVTZ-JKFIT
	 Reference Energy          =    -496.5151350775061587 [Eh]
	 Singles Energy            =      -0.0000000000000000 [Eh]
	 Same-Spin Energy          =      -0.5238925277673776 [Eh]
	 Opposite-Spin Energy      =      -1.6315546066637179 [Eh]
	 Correlation Energy        =      -2.1554471344310953 [Eh]
	 Total Energy              =    -498.6705822119372442 [Eh]

	 ================> DF-SCS-MP2 Energies <==================
	-----------------------------------------------------------
	 SCS Same-Spin Scale       =       0.3333333333333333 [-]
	 SCS Opposite-Spin Scale   =       1.2000000000000000 [-]
	 SCS Same-Spin Energy      =      -0.1746308425891259 [Eh]
	 SCS Opposite-Spin Energy  =      -1.9578655279964614 [Eh]
	 SCS Correlation Energy    =      -2.1324963705855873 [Eh]
	 SCS Total Energy          =    -498.6476314480917722 [Eh]
	-----------------------------------------------------------

  Dipole Moment: [D]
     X:    -0.6165      Y:     0.0556      Z:     0.5502     Total:     0.8282

*** Psi4 exiting successfully. Buy a developer a beer!
