                               Psi4 1.4a3.dev225

  ==> Input File <==

--------------------------------------------------------------------------
#psi4
#
memory 32 gb

molecule  {
0 1
  O        2.2381840    -1.1587810    -0.1175950
  O        2.2381840     1.1587830    -0.1175780
  C       -1.4506090    -0.7058110    -0.0005310
  C       -1.4506100     0.7058110    -0.0005190
  C        0.9370840    -0.6945160    -0.0405820
  C        0.7919003     0.6869086    -0.0387776
  C       -0.2384000    -1.4209720    -0.0261700
  C       -0.2384020     1.4209720    -0.0261890
  C        3.0186620    -0.0000010     0.2058680
  C       -2.7532520    -1.4635880     0.0322900
  C       -2.7532530     1.4635870     0.0322790
  H       -0.2243070    -2.5079120    -0.0340590
  H       -0.2243080     2.5079120    -0.0340480
  H        3.2379270    -0.0000100     1.2832160
  H        3.9284370     0.0000040    -0.3938210
  H       -2.5724980    -2.5416060     0.0194510
  H       -3.3330080    -1.2312860     0.9325220
  H       -3.3837460    -1.2187210    -0.8295640
  H       -3.3329960     1.2313300     0.9325330
  H       -2.5725010     2.5416050     0.0193840
  H       -3.3837580     1.2186740    -0.8295530
units angstrom
no_reorient  #important for SAPT in psi4, default
symmetry c1  #important for SAPT in psi4, default
}

set PROPERTIES_ORIGIN ["COM"]
properties('MP2/aug-cc-pvtz', properties = ['dipole'])
--------------------------------------------------------------------------

    Molecular point group: c1
  Charge       = 0
  Multiplicity = 1
  Basis Set: AUG-CC-PVTZ
    Blend: AUG-CC-PVTZ
  Basis Set: (AUG-CC-PVTZ AUX)
    Blend: AUG-CC-PVTZ-JKFIT

    Orbital Energies [Eh]
    ---------------------

    Doubly Occupied:

       1A    -20.599148     2A    -20.575698     3A    -11.343234
       4A    -11.299402     5A    -11.286728     6A    -11.245868
       7A    -11.244529     8A    -11.240133     9A    -11.231685
      10A    -11.228132    11A    -11.227959    12A     -1.445439
      13A     -1.330477    14A     -1.178073    15A     -1.061906
      16A     -1.050401    17A     -0.964907    18A     -0.935124
      19A     -0.875969    20A     -0.841119    21A     -0.789989
      22A     -0.713392    23A     -0.703038    24A     -0.669018
      25A     -0.647542    26A     -0.631056    27A     -0.609061
      28A     -0.599448    29A     -0.561270    30A     -0.555412
      31A     -0.553459    32A     -0.543376    33A     -0.540050
      34A     -0.528591    35A     -0.515738    36A     -0.505106
      37A     -0.485462    38A     -0.442356    39A     -0.351986
      40A     -0.299566

  @DF-RHF Final Energy:  -496.48544192638030

   => Energetics <=

    Nuclear Repulsion Energy =            601.5218912384833629
    One-Electron Energy =               -1869.1129671035369029
    Two-Electron Energy =                 771.1056339386731224
    Total Energy =                       -496.4854419263803038
  Basis Set: (AUG-CC-PVTZ AUX)
    Blend: AUG-CC-PVTZ-RI
    Molecular point group: c1

    Geometry (in Angstrom), charge = 0, multiplicity = 1:

       Center              X                  Y                   Z               Mass
    ------------   -----------------  -----------------  -----------------  -----------------
         O            2.171527594578    -1.158172670176    -0.110697142060    15.994914619570
         O            2.171527594578     1.159391329824    -0.110680142060    15.994914619570
         C           -1.517265405422    -0.705202670176     0.006366857940    12.000000000000
         C           -1.517266405422     0.706419329824     0.006378857940    12.000000000000
         C            0.870427594578    -0.693907670176    -0.033684142060    12.000000000000
         C            0.725243894578     0.687516929824    -0.031879742060    12.000000000000
         C           -0.305056405422    -1.420363670176    -0.019272142060    12.000000000000
         C           -0.305058405422     1.421580329824    -0.019291142060    12.000000000000
         C            2.952005594578     0.000607329824     0.212765857940    12.000000000000
         C           -2.819908405422    -1.462979670176     0.039187857940    12.000000000000
         C           -2.819909405422     1.464195329824     0.039176857940    12.000000000000
         H           -0.290963405422    -2.507303670176    -0.027161142060     1.007825032230
         H           -0.290964405422     2.508520329824    -0.027150142060     1.007825032230
         H            3.171270594578     0.000598329824     1.290113857940     1.007825032230
         H            3.861780594578     0.000612329824    -0.386923142060     1.007825032230
         H           -2.639154405422    -2.540997670176     0.026348857940     1.007825032230
         H           -3.399664405422    -1.230677670176     0.939419857940     1.007825032230
         H           -3.450402405422    -1.218112670176    -0.822666142060     1.007825032230
         H           -3.399652405422     1.231938329824     0.939430857940     1.007825032230
         H           -2.639157405422     2.542213329824     0.026281857940     1.007825032230
         H           -3.450414405422     1.219282329824    -0.822655142060     1.007825032230

  Basis Set: AUG-CC-PVTZ
    Blend: AUG-CC-PVTZ
  Basis Set: (AUG-CC-PVTZ AUX)
    Blend: AUG-CC-PVTZ-JKFIT
	 Reference Energy          =    -496.4854419263803038 [Eh]
	 Singles Energy            =      -0.0000000000000000 [Eh]
	 Same-Spin Energy          =      -0.5244948523840749 [Eh]
	 Opposite-Spin Energy      =      -1.6346640425257037 [Eh]
	 Correlation Energy        =      -2.1591588949097789 [Eh]
	 Total Energy              =    -498.6446008212900551 [Eh]

	 ================> DF-SCS-MP2 Energies <==================
	-----------------------------------------------------------
	 SCS Same-Spin Scale       =       0.3333333333333333 [-]
	 SCS Opposite-Spin Scale   =       1.2000000000000000 [-]
	 SCS Same-Spin Energy      =      -0.1748316174613583 [Eh]
	 SCS Opposite-Spin Energy  =      -1.9615968510308444 [Eh]
	 SCS Correlation Energy    =      -2.1364284684922028 [Eh]
	 SCS Total Energy          =    -498.6218703948725306 [Eh]
	-----------------------------------------------------------

  Dipole Moment: [D]
     X:    -1.2734      Y:    -0.0968      Z:     0.5915     Total:     1.4074

*** Psi4 exiting successfully. Buy a developer a beer!
