                               Psi4 1.4a3.dev225

  ==> Input File <==

--------------------------------------------------------------------------
#psi4
#
memory 32 gb

molecule  {
0 1
  O        2.2381840    -1.1587810    -0.1175950
  O        2.2381840     1.1587830    -0.1175780
  C       -1.4506090    -0.7058110    -0.0005310
  C       -1.4506100     0.7058110    -0.0005190
  C        0.9370840    -0.6945160    -0.0405820
  C        0.9370830     0.6945180    -0.0405590
  C       -0.2384000    -1.4209720    -0.0261700
  C       -0.2384020     1.4209720    -0.0261890
  C        3.0186620    -0.0000010     0.2058680
  C       -2.7532520    -1.4635880     0.0322900
  C       -2.7532530     1.4635870     0.0322790
  H       -0.2268999    -2.3079341    -0.0326076
  H       -0.2243080     2.5079120    -0.0340480
  H        3.2379270    -0.0000100     1.2832160
  H        3.9284370     0.0000040    -0.3938210
  H       -2.5724980    -2.5416060     0.0194510
  H       -3.3330080    -1.2312860     0.9325220
  H       -3.3837460    -1.2187210    -0.8295640
  H       -3.3329960     1.2313300     0.9325330
  H       -2.5725010     2.5416050     0.0193840
  H       -3.3837580     1.2186740    -0.8295530
units angstrom
no_reorient  #important for SAPT in psi4, default
symmetry c1  #important for SAPT in psi4, default
}

set PROPERTIES_ORIGIN ["COM"]
properties('MP2/aug-cc-pvtz', properties = ['dipole'])
--------------------------------------------------------------------------

    Molecular point group: c1
  Charge       = 0
  Multiplicity = 1
  Basis Set: AUG-CC-PVTZ
    Blend: AUG-CC-PVTZ
  Basis Set: (AUG-CC-PVTZ AUX)
    Blend: AUG-CC-PVTZ-JKFIT

    Orbital Energies [Eh]
    ---------------------

    Doubly Occupied:

       1A    -20.596059     2A    -20.595573     3A    -11.352163
       4A    -11.291047     5A    -11.289774     6A    -11.241199
       7A    -11.240092     8A    -11.238021     9A    -11.225642
      10A    -11.224808    11A    -11.214980    12A     -1.466910
      13A     -1.364466    14A     -1.159601    15A     -1.052908
      16A     -1.045302    17A     -0.955867    18A     -0.943332
      19A     -0.883271    20A     -0.851139    21A     -0.795948
      22A     -0.724586    23A     -0.713450    24A     -0.680671
      25A     -0.658343    26A     -0.631482    27A     -0.611209
      28A     -0.595141    29A     -0.574132    30A     -0.565580
      31A     -0.551441    32A     -0.542376    33A     -0.535518
      34A     -0.533579    35A     -0.530188    36A     -0.500102
      37A     -0.495518    38A     -0.441228    39A     -0.334175
      40A     -0.292440

  @DF-RHF Final Energy:  -496.47971328323439

   => Energetics <=

    Nuclear Repulsion Energy =            602.5236606232571148
    One-Electron Energy =               -1870.9282281056580359
    Two-Electron Energy =                 771.9248541991667025
    Total Energy =                       -496.4797132832343323
  Basis Set: (AUG-CC-PVTZ AUX)
    Blend: AUG-CC-PVTZ-RI
    Molecular point group: c1

    Geometry (in Angstrom), charge = 0, multiplicity = 1:

       Center              X                  Y                   Z               Mass
    ------------   -----------------  -----------------  -----------------  -----------------
         O            2.159935661000    -1.160124154691    -0.110564442003    15.994914619570
         O            2.159935661000     1.157439845309    -0.110547442003    15.994914619570
         C           -1.528857339000    -0.707154154691     0.006499557997    12.000000000000
         C           -1.528858339000     0.704467845309     0.006511557997    12.000000000000
         C            0.858835661000    -0.695859154691    -0.033551442003    12.000000000000
         C            0.858834661000     0.693174845309    -0.033528442003    12.000000000000
         C           -0.316648339000    -1.422315154691    -0.019139442003    12.000000000000
         C           -0.316650339000     1.419628845309    -0.019158442003    12.000000000000
         C            2.940413661000    -0.001344154691     0.212898557997    12.000000000000
         C           -2.831500339000    -1.464931154691     0.039320557997    12.000000000000
         C           -2.831501339000     1.462243845309     0.039309557997    12.000000000000
         H           -0.305148239000    -2.309277254691    -0.025577042003     1.007825032230
         H           -0.302556339000     2.506568845309    -0.027017442003     1.007825032230
         H            3.159678661000    -0.001353154691     1.290246557997     1.007825032230
         H            3.850188661000    -0.001339154691    -0.386790442003     1.007825032230
         H           -2.650746339000    -2.542949154691     0.026481557997     1.007825032230
         H           -3.411256339000    -1.232629154691     0.939552557997     1.007825032230
         H           -3.461994339000    -1.220064154691    -0.822533442003     1.007825032230
         H           -3.411244339000     1.229986845309     0.939563557997     1.007825032230
         H           -2.650749339000     2.540261845309     0.026414557997     1.007825032230
         H           -3.462006339000     1.217330845309    -0.822522442003     1.007825032230

  Basis Set: AUG-CC-PVTZ
    Blend: AUG-CC-PVTZ
  Basis Set: (AUG-CC-PVTZ AUX)
    Blend: AUG-CC-PVTZ-JKFIT
	 Reference Energy          =    -496.4797132832343891 [Eh]
	 Singles Energy            =      -0.0000000000000000 [Eh]
	 Same-Spin Energy          =      -0.5237352570935156 [Eh]
	 Opposite-Spin Energy      =      -1.6316231353246831 [Eh]
	 Correlation Energy        =      -2.1553583924181989 [Eh]
	 Total Energy              =    -498.6350716756525685 [Eh]

	 ================> DF-SCS-MP2 Energies <==================
	-----------------------------------------------------------
	 SCS Same-Spin Scale       =       0.3333333333333333 [-]
	 SCS Opposite-Spin Scale   =       1.2000000000000000 [-]
	 SCS Same-Spin Energy      =      -0.1745784190311719 [Eh]
	 SCS Opposite-Spin Energy  =      -1.9579477623896195 [Eh]
	 SCS Correlation Energy    =      -2.1325261814207912 [Eh]
	 SCS Total Energy          =    -498.6122394646552038 [Eh]
	-----------------------------------------------------------

  Dipole Moment: [D]
     X:    -0.5710      Y:    -0.0169      Z:     0.5639     Total:     0.8027

*** Psi4 exiting successfully. Buy a developer a beer!
