                               Psi4 1.4a3.dev225

  ==> Input File <==

--------------------------------------------------------------------------
#psi4
#
memory 32 gb

molecule  {
0 1
  O        2.2381840    -1.1587810    -0.1175950
  O        2.2381840     1.1587830    -0.1175780
  C       -1.4506090    -0.7058110    -0.0005310
  C       -1.4506100     0.7058110    -0.0005190
  C        0.9370840    -0.6945160    -0.0405820
  C        0.9370830     0.6945180    -0.0405590
  C       -0.2384000    -1.4209720    -0.0261700
  C       -0.2384020     1.4209720    -0.0261890
  C        3.0186620    -0.0000010     0.2058680
  C       -2.7532520    -1.4635880     0.0322900
  C       -2.7532530     1.4635870     0.0322790
  H       -0.2243070    -2.5079120    -0.0340590
  H       -0.2243080     2.5079120    -0.0340480
  H        3.2379270    -0.0000100     1.2832160
  H        3.9284370     0.0000040    -0.3938210
  H       -2.5724980    -2.5416060     0.0194510
  H       -3.3330080    -1.2312860     0.9325220
  H       -3.3837460    -1.2187210    -0.8295640
  H       -3.3594520     1.2207312     0.9736152
  H       -2.5725010     2.5416050     0.0193840
  H       -3.3837580     1.2186740    -0.8295530
units angstrom
no_reorient  #important for SAPT in psi4, default
symmetry c1  #important for SAPT in psi4, default
}

set PROPERTIES_ORIGIN ["COM"]
properties('MP2/aug-cc-pvtz', properties = ['dipole'])
--------------------------------------------------------------------------

    Molecular point group: c1
  Charge       = 0
  Multiplicity = 1
  Basis Set: AUG-CC-PVTZ
    Blend: AUG-CC-PVTZ
  Basis Set: (AUG-CC-PVTZ AUX)
    Blend: AUG-CC-PVTZ-JKFIT

    Orbital Energies [Eh]
    ---------------------

    Doubly Occupied:

       1A    -20.596293     2A    -20.596248     3A    -11.352476
       4A    -11.292366     5A    -11.291092     6A    -11.242652
       7A    -11.241539     8A    -11.238637     9A    -11.238435
      10A    -11.231264    11A    -11.225232    12A     -1.467370
      13A     -1.364851    14A     -1.158641    15A     -1.052880
      16A     -1.038171    17A     -0.951027    18A     -0.942004
      19A     -0.881966    20A     -0.836902    21A     -0.795091
      22A     -0.716238    23A     -0.712850    24A     -0.674757
      25A     -0.648328    26A     -0.615263    27A     -0.611005
      28A     -0.593464    29A     -0.574271    30A     -0.565373
      31A     -0.547804    32A     -0.540718    33A     -0.534810
      34A     -0.532276    35A     -0.530647    36A     -0.500166
      37A     -0.491580    38A     -0.441469    39A     -0.334510
      40A     -0.293293

  @DF-RHF Final Energy:  -496.51224157860474

   => Energetics <=

    Nuclear Repulsion Energy =            601.0705659110767556
    One-Electron Energy =               -1868.1776978190130194
    Two-Electron Energy =                 770.5948903293315198
    Total Energy =                       -496.5122415786047441
  Basis Set: (AUG-CC-PVTZ AUX)
    Blend: AUG-CC-PVTZ-RI
    Molecular point group: c1

    Geometry (in Angstrom), charge = 0, multiplicity = 1:

       Center              X                  Y                   Z               Mass
    ------------   -----------------  -----------------  -----------------  -----------------
         O            2.160095920461    -1.158709966744    -0.110830593955    15.994914619570
         O            2.160095920461     1.158854033256    -0.110813593955    15.994914619570
         C           -1.528697079539    -0.705739966744     0.006233406045    12.000000000000
         C           -1.528698079539     0.705882033256     0.006245406045    12.000000000000
         C            0.858995920461    -0.694444966744    -0.033817593955    12.000000000000
         C            0.858994920461     0.694589033256    -0.033794593955    12.000000000000
         C           -0.316488079539    -1.420900966744    -0.019405593955    12.000000000000
         C           -0.316490079539     1.421043033256    -0.019424593955    12.000000000000
         C            2.940573920461     0.000070033256     0.212632406045    12.000000000000
         C           -2.831340079539    -1.463516966744     0.039054406045    12.000000000000
         C           -2.831341079539     1.463658033256     0.039043406045    12.000000000000
         H           -0.302395079539    -2.507840966744    -0.027294593955     1.007825032230
         H           -0.302396079539     2.507983033256    -0.027283593955     1.007825032230
         H            3.159838920461     0.000061033256     1.289980406045     1.007825032230
         H            3.850348920461     0.000075033256    -0.387056593955     1.007825032230
         H           -2.650586079539    -2.541534966744     0.026215406045     1.007825032230
         H           -3.411096079539    -1.231214966744     0.939286406045     1.007825032230
         H           -3.461834079539    -1.218649966744    -0.822799593955     1.007825032230
         H           -3.437540079539     1.220802233256     0.980379606045     1.007825032230
         H           -2.650589079539     2.541676033256     0.026148406045     1.007825032230
         H           -3.461846079539     1.218745033256    -0.822788593955     1.007825032230

  Basis Set: AUG-CC-PVTZ
    Blend: AUG-CC-PVTZ
  Basis Set: (AUG-CC-PVTZ AUX)
    Blend: AUG-CC-PVTZ-JKFIT
	 Reference Energy          =    -496.5122415786047441 [Eh]
	 Singles Energy            =      -0.0000000000000000 [Eh]
	 Same-Spin Energy          =      -0.5240702711668354 [Eh]
	 Opposite-Spin Energy      =      -1.6325844817705111 [Eh]
	 Correlation Energy        =      -2.1566547529373463 [Eh]
	 Total Energy              =    -498.6688963315421006 [Eh]

	 ================> DF-SCS-MP2 Energies <==================
	-----------------------------------------------------------
	 SCS Same-Spin Scale       =       0.3333333333333333 [-]
	 SCS Opposite-Spin Scale   =       1.2000000000000000 [-]
	 SCS Same-Spin Energy      =      -0.1746900903889451 [Eh]
	 SCS Opposite-Spin Energy  =      -1.9591013781246132 [Eh]
	 SCS Correlation Energy    =      -2.1337914685135582 [Eh]
	 SCS Total Energy          =    -498.6460330471182942 [Eh]
	-----------------------------------------------------------

  Dipole Moment: [D]
     X:    -0.5410      Y:    -0.0041      Z:     0.5446     Total:     0.7676

*** Psi4 exiting successfully. Buy a developer a beer!
