                               Psi4 1.4a3.dev225

  ==> Input File <==

--------------------------------------------------------------------------
#psi4
#
memory 32 gb

molecule  {
0 1
  O        2.2381840    -1.1587810    -0.1175950
  O        2.2381840     1.1587830    -0.1175780
  C       -1.4506090    -0.7058110    -0.0005310
  C       -1.4506100     0.7058110    -0.0005190
  C        0.9370840    -0.6945160    -0.0405820
  C        0.9370830     0.6945180    -0.0405590
  C       -0.2384000    -1.4209720    -0.0261700
  C       -0.2211792     1.4311328    -0.0265537
  C        3.0186620    -0.0000010     0.2058680
  C       -2.7532520    -1.4635880     0.0322900
  C       -2.7532530     1.4635870     0.0322790
  H       -0.2243070    -2.5079120    -0.0340590
  H       -0.2243080     2.5079120    -0.0340480
  H        3.2379270    -0.0000100     1.2832160
  H        3.9284370     0.0000040    -0.3938210
  H       -2.5724980    -2.5416060     0.0194510
  H       -3.3330080    -1.2312860     0.9325220
  H       -3.3837460    -1.2187210    -0.8295640
  H       -3.3329960     1.2313300     0.9325330
  H       -2.5725010     2.5416050     0.0193840
  H       -3.3837580     1.2186740    -0.8295530
units angstrom
no_reorient  #important for SAPT in psi4, default
symmetry c1  #important for SAPT in psi4, default
}

set PROPERTIES_ORIGIN ["COM"]
properties('MP2/aug-cc-pvtz', properties = ['dipole'])
--------------------------------------------------------------------------

    Molecular point group: c1
  Charge       = 0
  Multiplicity = 1
  Basis Set: AUG-CC-PVTZ
    Blend: AUG-CC-PVTZ
  Basis Set: (AUG-CC-PVTZ AUX)
    Blend: AUG-CC-PVTZ-JKFIT

    Orbital Energies [Eh]
    ---------------------

    Doubly Occupied:

       1A    -20.596407     2A    -20.595536     3A    -11.352193
       4A    -11.292339     5A    -11.290761     6A    -11.243691
       7A    -11.241393     8A    -11.238337     9A    -11.238139
      10A    -11.225396    11A    -11.225277    12A     -1.467305
      13A     -1.364758    14A     -1.157330    15A     -1.053587
      16A     -1.037403    17A     -0.953191    18A     -0.942372
      19A     -0.882219    20A     -0.838053    21A     -0.794584
      22A     -0.716336    23A     -0.712729    24A     -0.674377
      25A     -0.647960    26A     -0.617757    27A     -0.610902
      28A     -0.595042    29A     -0.574172    30A     -0.565293
      31A     -0.551363    32A     -0.541027    33A     -0.535222
      34A     -0.533782    35A     -0.530604    36A     -0.499880
      37A     -0.492140    38A     -0.440712    39A     -0.333896
      40A     -0.293313

  @DF-RHF Final Energy:  -496.51385985746958

   => Energetics <=

    Nuclear Repulsion Energy =            601.1294104915929211
    One-Electron Energy =               -1868.2929854745182183
    Two-Electron Energy =                 770.6497151254556002
    Total Energy =                       -496.5138598574695834
  Basis Set: (AUG-CC-PVTZ AUX)
    Blend: AUG-CC-PVTZ-RI
    Molecular point group: c1

    Geometry (in Angstrom), charge = 0, multiplicity = 1:

       Center              X                  Y                   Z               Mass
    ------------   -----------------  -----------------  -----------------  -----------------
         O            2.158541048700    -1.159593641249    -0.110525531948    15.994914619570
         O            2.158541048700     1.157970358751    -0.110508531948    15.994914619570
         C           -1.530251951300    -0.706623641249     0.006538468052    12.000000000000
         C           -1.530252951300     0.704998358751     0.006550468052    12.000000000000
         C            0.857441048700    -0.695328641249    -0.033512531948    12.000000000000
         C            0.857440048700     0.693705358751    -0.033489531948    12.000000000000
         C           -0.318042951300    -1.421784641249    -0.019100531948    12.000000000000
         C           -0.300822151300     1.430320158751    -0.019484231948    12.000000000000
         C            2.939019048700    -0.000813641249     0.212937468052    12.000000000000
         C           -2.832894951300    -1.464400641249     0.039359468052    12.000000000000
         C           -2.832895951300     1.462774358751     0.039348468052    12.000000000000
         H           -0.303949951300    -2.508724641249    -0.026989531948     1.007825032230
         H           -0.303950951300     2.507099358751    -0.026978531948     1.007825032230
         H            3.158284048700    -0.000822641249     1.290285468052     1.007825032230
         H            3.848794048700    -0.000808641249    -0.386751531948     1.007825032230
         H           -2.652140951300    -2.542418641249     0.026520468052     1.007825032230
         H           -3.412650951300    -1.232098641249     0.939591468052     1.007825032230
         H           -3.463388951300    -1.219533641249    -0.822494531948     1.007825032230
         H           -3.412638951300     1.230517358751     0.939602468052     1.007825032230
         H           -2.652143951300     2.540792358751     0.026453468052     1.007825032230
         H           -3.463400951300     1.217861358751    -0.822483531948     1.007825032230

  Basis Set: AUG-CC-PVTZ
    Blend: AUG-CC-PVTZ
  Basis Set: (AUG-CC-PVTZ AUX)
    Blend: AUG-CC-PVTZ-JKFIT
	 Reference Energy          =    -496.5138598574695834 [Eh]
	 Singles Energy            =      -0.0000000000000000 [Eh]
	 Same-Spin Energy          =      -0.5239764941201956 [Eh]
	 Opposite-Spin Energy      =      -1.6322568615870570 [Eh]
	 Correlation Energy        =      -2.1562333557072524 [Eh]
	 Total Energy              =    -498.6700932131768127 [Eh]

	 ================> DF-SCS-MP2 Energies <==================
	-----------------------------------------------------------
	 SCS Same-Spin Scale       =       0.3333333333333333 [-]
	 SCS Opposite-Spin Scale   =       1.2000000000000000 [-]
	 SCS Same-Spin Energy      =      -0.1746588313733985 [Eh]
	 SCS Opposite-Spin Energy  =      -1.9587082339044684 [Eh]
	 SCS Correlation Energy    =      -2.1333670652778669 [Eh]
	 SCS Total Energy          =    -498.6472269227474499 [Eh]
	-----------------------------------------------------------

  Dipole Moment: [D]
     X:    -0.5760      Y:    -0.0008      Z:     0.5654     Total:     0.8071

*** Psi4 exiting successfully. Buy a developer a beer!
