                               Psi4 1.4a3.dev225

  ==> Input File <==

--------------------------------------------------------------------------
#psi4
#
memory 32 gb

molecule  {
0 1
  O        2.2422122    -1.1841745    -0.0208571
  O        2.2381840     1.1587830    -0.1175780
  C       -1.4506090    -0.7058110    -0.0005310
  C       -1.4506100     0.7058110    -0.0005190
  C        0.9370840    -0.6945160    -0.0405820
  C        0.9370830     0.6945180    -0.0405590
  C       -0.2384000    -1.4209720    -0.0261700
  C       -0.2384020     1.4209720    -0.0261890
  C        3.0186620    -0.0000010     0.2058680
  C       -2.7532520    -1.4635880     0.0322900
  C       -2.7532530     1.4635870     0.0322790
  H       -0.2243070    -2.5079120    -0.0340590
  H       -0.2243080     2.5079120    -0.0340480
  H        3.2379270    -0.0000100     1.2832160
  H        3.9284370     0.0000040    -0.3938210
  H       -2.5724980    -2.5416060     0.0194510
  H       -3.3330080    -1.2312860     0.9325220
  H       -3.3837460    -1.2187210    -0.8295640
  H       -3.3329960     1.2313300     0.9325330
  H       -2.5725010     2.5416050     0.0193840
  H       -3.3837580     1.2186740    -0.8295530
units angstrom
no_reorient  #important for SAPT in psi4, default
symmetry c1  #important for SAPT in psi4, default
}

set PROPERTIES_ORIGIN ["COM"]
properties('MP2/aug-cc-pvtz', properties = ['dipole'])
--------------------------------------------------------------------------

    Molecular point group: c1
  Charge       = 0
  Multiplicity = 1
  Basis Set: AUG-CC-PVTZ
    Blend: AUG-CC-PVTZ
  Basis Set: (AUG-CC-PVTZ AUX)
    Blend: AUG-CC-PVTZ-JKFIT

    Orbital Energies [Eh]
    ---------------------

    Doubly Occupied:

       1A    -20.597394     2A    -20.596035     3A    -11.351035
       4A    -11.293483     5A    -11.292211     6A    -11.242735
       7A    -11.241634     8A    -11.238956     9A    -11.238495
      10A    -11.225640    11A    -11.225563    12A     -1.464473
      13A     -1.364933    14A     -1.159003    15A     -1.053421
      16A     -1.038824    17A     -0.952851    18A     -0.941842
      19A     -0.882754    20A     -0.837169    21A     -0.796174
      22A     -0.715334    23A     -0.710398    24A     -0.674625
      25A     -0.649581    26A     -0.615557    27A     -0.608685
      28A     -0.595703    29A     -0.572321    30A     -0.565355
      31A     -0.551865    32A     -0.542464    33A     -0.538889
      34A     -0.532835    35A     -0.530881    36A     -0.501408
      37A     -0.492219    38A     -0.439971    39A     -0.334772
      40A     -0.293489

  @DF-RHF Final Energy:  -496.51240070525904

   => Energetics <=

    Nuclear Repulsion Energy =            600.8115583851835027
    One-Electron Energy =               -1867.6459641965795981
    Two-Electron Energy =                 770.3220051061371123
    Total Energy =                       -496.5124007052590969
  Basis Set: (AUG-CC-PVTZ AUX)
    Blend: AUG-CC-PVTZ-RI
    Molecular point group: c1

    Geometry (in Angstrom), charge = 0, multiplicity = 1:

       Center              X                  Y                   Z               Mass
    ------------   -----------------  -----------------  -----------------  -----------------
         O            2.163517104402    -1.181468095320    -0.024127544709    15.994914619570
         O            2.159488904402     1.161489404680    -0.120848444709    15.994914619570
         C           -1.529304095598    -0.703104595320    -0.003801444709    12.000000000000
         C           -1.529305095598     0.708517404680    -0.003789444709    12.000000000000
         C            0.858388904402    -0.691809595320    -0.043852444709    12.000000000000
         C            0.858387904402     0.697224404680    -0.043829444709    12.000000000000
         C           -0.317095095598    -1.418265595320    -0.029440444709    12.000000000000
         C           -0.317097095598     1.423678404680    -0.029459444709    12.000000000000
         C            2.939966904402     0.002705404680     0.202597555291    12.000000000000
         C           -2.831947095598    -1.460881595320     0.029019555291    12.000000000000
         C           -2.831948095598     1.466293404680     0.029008555291    12.000000000000
         H           -0.303002095598    -2.505205595320    -0.037329444709     1.007825032230
         H           -0.303003095598     2.510618404680    -0.037318444709     1.007825032230
         H            3.159231904402     0.002696404680     1.279945555291     1.007825032230
         H            3.849741904402     0.002710404680    -0.397091444709     1.007825032230
         H           -2.651193095598    -2.538899595320     0.016180555291     1.007825032230
         H           -3.411703095598    -1.228579595320     0.929251555291     1.007825032230
         H           -3.462441095598    -1.216014595320    -0.832834444709     1.007825032230
         H           -3.411691095598     1.234036404680     0.929262555291     1.007825032230
         H           -2.651196095598     2.544311404680     0.016113555291     1.007825032230
         H           -3.462453095598     1.221380404680    -0.832823444709     1.007825032230

  Basis Set: AUG-CC-PVTZ
    Blend: AUG-CC-PVTZ
  Basis Set: (AUG-CC-PVTZ AUX)
    Blend: AUG-CC-PVTZ-JKFIT
	 Reference Energy          =    -496.5124007052590400 [Eh]
	 Singles Energy            =      -0.0000000000000000 [Eh]
	 Same-Spin Energy          =      -0.5240582244208649 [Eh]
	 Opposite-Spin Energy      =      -1.6325583535698520 [Eh]
	 Correlation Energy        =      -2.1566165779907172 [Eh]
	 Total Energy              =    -498.6690172832497296 [Eh]

	 ================> DF-SCS-MP2 Energies <==================
	-----------------------------------------------------------
	 SCS Same-Spin Scale       =       0.3333333333333333 [-]
	 SCS Opposite-Spin Scale   =       1.2000000000000000 [-]
	 SCS Same-Spin Energy      =      -0.1746860748069550 [Eh]
	 SCS Opposite-Spin Energy  =      -1.9590700242838224 [Eh]
	 SCS Correlation Energy    =      -2.1337560990907773 [Eh]
	 SCS Total Energy          =    -498.6461568043498005 [Eh]
	-----------------------------------------------------------

  Dipole Moment: [D]
     X:    -0.6243      Y:     0.0347      Z:     0.4535     Total:     0.7724

*** Psi4 exiting successfully. Buy a developer a beer!
