                               Psi4 1.4a3.dev225

  ==> Input File <==

--------------------------------------------------------------------------
#psi4
#
memory 32 gb

molecule  {
0 1
  O        2.2381840    -1.1587810    -0.1175950
  O        2.2381840     1.1587830    -0.1175780
  C       -1.4506090    -0.7058110    -0.0005310
  C       -1.4506100     0.7058110    -0.0005190
  C        0.9370840    -0.6945160    -0.0405820
  C        0.9370830     0.6945180    -0.0405590
  C       -0.2384000    -1.4209720    -0.0261700
  C       -0.2384020     1.4209720    -0.0261890
  C        3.0186620    -0.0000010     0.2058680
  C       -2.7532520    -1.4635880     0.0322900
  C       -2.7532530     1.4635870     0.0322790
  H       -0.2236588    -2.5579065    -0.0344219
  H       -0.2243080     2.5079120    -0.0340480
  H        3.2379270    -0.0000100     1.2832160
  H        3.9284370     0.0000040    -0.3938210
  H       -2.5724980    -2.5416060     0.0194510
  H       -3.3330080    -1.2312860     0.9325220
  H       -3.3837460    -1.2187210    -0.8295640
  H       -3.3329960     1.2313300     0.9325330
  H       -2.5725010     2.5416050     0.0193840
  H       -3.3837580     1.2186740    -0.8295530
units angstrom
no_reorient  #important for SAPT in psi4, default
symmetry c1  #important for SAPT in psi4, default
}

set PROPERTIES_ORIGIN ["COM"]
properties('MP2/aug-cc-pvtz', properties = ['dipole'])
--------------------------------------------------------------------------

    Molecular point group: c1
  Charge       = 0
  Multiplicity = 1
  Basis Set: AUG-CC-PVTZ
    Blend: AUG-CC-PVTZ
  Basis Set: (AUG-CC-PVTZ AUX)
    Blend: AUG-CC-PVTZ-JKFIT

    Orbital Energies [Eh]
    ---------------------

    Doubly Occupied:

       1A    -20.596278     2A    -20.596154     3A    -11.352408
       4A    -11.292530     5A    -11.291254     6A    -11.244125
       7A    -11.242566     8A    -11.241476     9A    -11.238434
      10A    -11.225491    11A    -11.225236    12A     -1.467319
      13A     -1.364780    14A     -1.158518    15A     -1.053458
      16A     -1.037371    17A     -0.951972    18A     -0.942928
      19A     -0.882520    20A     -0.834707    21A     -0.795611
      22A     -0.715543    23A     -0.712284    24A     -0.674508
      25A     -0.646828    26A     -0.611997    27A     -0.607840
      28A     -0.595450    29A     -0.574075    30A     -0.566002
      31A     -0.551556    32A     -0.540658    33A     -0.534993
      34A     -0.533205    35A     -0.530474    36A     -0.501058
      37A     -0.489589    38A     -0.441894    39A     -0.334581
      40A     -0.293481

  @DF-RHF Final Energy:  -496.51182215635089

   => Energetics <=

    Nuclear Repulsion Energy =            601.0181104472817424
    One-Electron Energy =               -1868.0775552539525961
    Two-Electron Energy =                 770.5476226503199086
    Total Energy =                       -496.5118221563509451
  Basis Set: (AUG-CC-PVTZ AUX)
    Blend: AUG-CC-PVTZ-RI
    Molecular point group: c1

    Geometry (in Angstrom), charge = 0, multiplicity = 1:

       Center              X                  Y                   Z               Mass
    ------------   -----------------  -----------------  -----------------  -----------------
         O            2.159913894467    -1.158445393673    -0.110552257553    15.994914619570
         O            2.159913894467     1.159118606327    -0.110535257553    15.994914619570
         C           -1.528879105533    -0.705475393673     0.006511742447    12.000000000000
         C           -1.528880105533     0.706146606327     0.006523742447    12.000000000000
         C            0.858813894467    -0.694180393673    -0.033539257553    12.000000000000
         C            0.858812894467     0.694853606327    -0.033516257553    12.000000000000
         C           -0.316670105533    -1.420636393673    -0.019127257553    12.000000000000
         C           -0.316672105533     1.421307606327    -0.019146257553    12.000000000000
         C            2.940391894467     0.000334606327     0.212910742447    12.000000000000
         C           -2.831522105533    -1.463252393673     0.039332742447    12.000000000000
         C           -2.831523105533     1.463922606327     0.039321742447    12.000000000000
         H           -0.301928905533    -2.557570893673    -0.027379157553     1.007825032230
         H           -0.302578105533     2.508247606327    -0.027005257553     1.007825032230
         H            3.159656894467     0.000325606327     1.290258742447     1.007825032230
         H            3.850166894467     0.000339606327    -0.386778257553     1.007825032230
         H           -2.650768105533    -2.541270393673     0.026493742447     1.007825032230
         H           -3.411278105533    -1.230950393673     0.939564742447     1.007825032230
         H           -3.462016105533    -1.218385393673    -0.822521257553     1.007825032230
         H           -3.411266105533     1.231665606327     0.939575742447     1.007825032230
         H           -2.650771105533     2.541940606327     0.026426742447     1.007825032230
         H           -3.462028105533     1.219009606327    -0.822510257553     1.007825032230

  Basis Set: AUG-CC-PVTZ
    Blend: AUG-CC-PVTZ
  Basis Set: (AUG-CC-PVTZ AUX)
    Blend: AUG-CC-PVTZ-JKFIT
	 Reference Energy          =    -496.5118221563508882 [Eh]
	 Singles Energy            =      -0.0000000000000000 [Eh]
	 Same-Spin Energy          =      -0.5241830655988069 [Eh]
	 Opposite-Spin Energy      =      -1.6326737547720658 [Eh]
	 Correlation Energy        =      -2.1568568203708729 [Eh]
	 Total Energy              =    -498.6686789767217647 [Eh]

	 ================> DF-SCS-MP2 Energies <==================
	-----------------------------------------------------------
	 SCS Same-Spin Scale       =       0.3333333333333333 [-]
	 SCS Opposite-Spin Scale   =       1.2000000000000000 [-]
	 SCS Same-Spin Energy      =      -0.1747276885329356 [Eh]
	 SCS Opposite-Spin Energy  =      -1.9592085057264788 [Eh]
	 SCS Correlation Energy    =      -2.1339361942594142 [Eh]
	 SCS Total Energy          =    -498.6457583506103219 [Eh]
	-----------------------------------------------------------

  Dipole Moment: [D]
     X:    -0.5699      Y:     0.0124      Z:     0.5642     Total:     0.8020

*** Psi4 exiting successfully. Buy a developer a beer!
