                               Psi4 1.4a3.dev225

  ==> Input File <==

--------------------------------------------------------------------------
#psi4
#
memory 32 gb

molecule  {
0 1
  O        2.2381840    -1.1587810    -0.1175950
  O        2.2381840     1.1587830    -0.1175780
  C       -1.4506090    -0.7058110    -0.0005310
  C       -1.4506100     0.7058110    -0.0005190
  C        0.9370840    -0.6945160    -0.0405820
  C        0.9370830     0.6945180    -0.0405590
  C       -0.2384000    -1.4209720    -0.0261700
  C       -0.2384020     1.4209720    -0.0261890
  C        3.0186620    -0.0000010     0.2058680
  C       -2.7532520    -1.4635880     0.0322900
  C       -2.7532530     1.4635870     0.0322790
  H       -0.2243070    -2.5079120    -0.0340590
  H       -0.2243080     2.5079120    -0.0340480
  H        3.2379270    -0.0000100     1.2832160
  H        3.9284370     0.0000040    -0.3938210
  H       -2.5724980    -2.5416060     0.0194510
  H       -3.3224254    -1.2355264     0.9160895
  H       -3.3837460    -1.2187210    -0.8295640
  H       -3.3329960     1.2313300     0.9325330
  H       -2.5725010     2.5416050     0.0193840
  H       -3.3837580     1.2186740    -0.8295530
units angstrom
no_reorient  #important for SAPT in psi4, default
symmetry c1  #important for SAPT in psi4, default
}

set PROPERTIES_ORIGIN ["COM"]
properties('MP2/aug-cc-pvtz', properties = ['dipole'])
--------------------------------------------------------------------------

    Molecular point group: c1
  Charge       = 0
  Multiplicity = 1
  Basis Set: AUG-CC-PVTZ
    Blend: AUG-CC-PVTZ
  Basis Set: (AUG-CC-PVTZ AUX)
    Blend: AUG-CC-PVTZ-JKFIT

    Orbital Energies [Eh]
    ---------------------

    Doubly Occupied:

       1A    -20.596036     2A    -20.596013     3A    -11.352275
       4A    -11.292038     5A    -11.290766     6A    -11.242194
       7A    -11.241094     8A    -11.238222     9A    -11.238146
      10A    -11.225344    11A    -11.222882    12A     -1.467125
      13A     -1.364608    14A     -1.158457    15A     -1.053462
      16A     -1.038416    17A     -0.953071    18A     -0.943291
      19A     -0.882729    20A     -0.837059    21A     -0.795820
      22A     -0.716154    23A     -0.712683    24A     -0.675167
      25A     -0.648161    26A     -0.615003    27A     -0.611437
      28A     -0.596247    29A     -0.574031    30A     -0.566251
      31A     -0.553106    32A     -0.541009    33A     -0.535183
      34A     -0.533550    35A     -0.530348    36A     -0.500989
      37A     -0.491191    38A     -0.441772    39A     -0.334339
      40A     -0.293195

  @DF-RHF Final Energy:  -496.51438449291464

   => Energetics <=

    Nuclear Repulsion Energy =            601.3749024826432787
    One-Electron Energy =               -1868.7808428612888747
    Two-Electron Energy =                 770.8915558857308952
    Total Energy =                       -496.5143844929145871
  Basis Set: (AUG-CC-PVTZ AUX)
    Blend: AUG-CC-PVTZ-RI
    Molecular point group: c1

    Geometry (in Angstrom), charge = 0, multiplicity = 1:

       Center              X                  Y                   Z               Mass
    ------------   -----------------  -----------------  -----------------  -----------------
         O            2.159847177168    -1.158752668394    -0.110444337567    15.994914619570
         O            2.159847177168     1.158811331606    -0.110427337567    15.994914619570
         C           -1.528945822832    -0.705782668394     0.006619662433    12.000000000000
         C           -1.528946822832     0.705839331606     0.006631662433    12.000000000000
         C            0.858747177168    -0.694487668394    -0.033431337567    12.000000000000
         C            0.858746177168     0.694546331606    -0.033408337567    12.000000000000
         C           -0.316736822832    -1.420943668394    -0.019019337567    12.000000000000
         C           -0.316738822832     1.421000331606    -0.019038337567    12.000000000000
         C            2.940325177168     0.000027331606     0.213018662433    12.000000000000
         C           -2.831588822832    -1.463559668394     0.039440662433    12.000000000000
         C           -2.831589822832     1.463615331606     0.039429662433    12.000000000000
         H           -0.302643822832    -2.507883668394    -0.026908337567     1.007825032230
         H           -0.302644822832     2.507940331606    -0.026897337567     1.007825032230
         H            3.159590177168     0.000018331606     1.290366662433     1.007825032230
         H            3.850100177168     0.000032331606    -0.386670337567     1.007825032230
         H           -2.650834822832    -2.541577668394     0.026601662433     1.007825032230
         H           -3.400762222832    -1.235498068394     0.923240162433     1.007825032230
         H           -3.462082822832    -1.218692668394    -0.822413337567     1.007825032230
         H           -3.411332822832     1.231358331606     0.939683662433     1.007825032230
         H           -2.650837822832     2.541633331606     0.026534662433     1.007825032230
         H           -3.462094822832     1.218702331606    -0.822402337567     1.007825032230

  Basis Set: AUG-CC-PVTZ
    Blend: AUG-CC-PVTZ
  Basis Set: (AUG-CC-PVTZ AUX)
    Blend: AUG-CC-PVTZ-JKFIT
	 Reference Energy          =    -496.5143844929146439 [Eh]
	 Singles Energy            =      -0.0000000000000000 [Eh]
	 Same-Spin Energy          =      -0.5240353896694456 [Eh]
	 Opposite-Spin Energy      =      -1.6321145331339870 [Eh]
	 Correlation Energy        =      -2.1561499228034329 [Eh]
	 Total Energy              =    -498.6705344157180662 [Eh]

	 ================> DF-SCS-MP2 Energies <==================
	-----------------------------------------------------------
	 SCS Same-Spin Scale       =       0.3333333333333333 [-]
	 SCS Opposite-Spin Scale   =       1.2000000000000000 [-]
	 SCS Same-Spin Energy      =      -0.1746784632231485 [Eh]
	 SCS Opposite-Spin Energy  =      -1.9585374397607844 [Eh]
	 SCS Correlation Energy    =      -2.1332159029839328 [Eh]
	 SCS Total Energy          =    -498.6476003958985643 [Eh]
	-----------------------------------------------------------

  Dipole Moment: [D]
     X:    -0.5806      Y:    -0.0014      Z:     0.5708     Total:     0.8142

*** Psi4 exiting successfully. Buy a developer a beer!
