                               Psi4 1.4a3.dev225

  ==> Input File <==

--------------------------------------------------------------------------
#psi4
#
memory 32 gb

molecule  {
0 1
  O        2.2381840    -1.1587810    -0.1175950
  O        2.2381840     1.1587830    -0.1175780
  C       -1.4506090    -0.7058110    -0.0005310
  C       -1.4506100     0.7058110    -0.0005190
  C        0.9370840    -0.6945160    -0.0405820
  C        0.9370830     0.6945180    -0.0405590
  C       -0.2384000    -1.4209720    -0.0261700
  C       -0.2384020     1.4209720    -0.0261890
  C        3.0186620    -0.0000010     0.2058680
  C       -2.7532520    -1.4635880     0.0322900
  C       -2.7532530     1.4635870     0.0322790
  H       -0.2243070    -2.5079120    -0.0340590
  H       -0.2243080     2.5079120    -0.0340480
  H        3.2179836    -0.0000092     1.1852249
  H        3.9284370     0.0000040    -0.3938210
  H       -2.5724980    -2.5416060     0.0194510
  H       -3.3330080    -1.2312860     0.9325220
  H       -3.3837460    -1.2187210    -0.8295640
  H       -3.3329960     1.2313300     0.9325330
  H       -2.5725010     2.5416050     0.0193840
  H       -3.3837580     1.2186740    -0.8295530
units angstrom
no_reorient  #important for SAPT in psi4, default
symmetry c1  #important for SAPT in psi4, default
}

set PROPERTIES_ORIGIN ["COM"]
properties('MP2/aug-cc-pvtz', properties = ['dipole'])
--------------------------------------------------------------------------

    Molecular point group: c1
  Charge       = 0
  Multiplicity = 1
  Basis Set: AUG-CC-PVTZ
    Blend: AUG-CC-PVTZ
  Basis Set: (AUG-CC-PVTZ AUX)
    Blend: AUG-CC-PVTZ-JKFIT

    Orbital Energies [Eh]
    ---------------------

    Doubly Occupied:

       1A    -20.594416     2A    -20.594396     3A    -11.340425
       4A    -11.291577     5A    -11.290305     6A    -11.241883
       7A    -11.240783     8A    -11.237810     9A    -11.237792
      10A    -11.225031    11A    -11.225024    12A     -1.466644
      13A     -1.363529    14A     -1.158268    15A     -1.054142
      16A     -1.037903    17A     -0.951963    18A     -0.949955
      19A     -0.887390    20A     -0.836655    21A     -0.794906
      22A     -0.726573    23A     -0.714173    24A     -0.674369
      25A     -0.648013    26A     -0.614632    27A     -0.613333
      28A     -0.595237    29A     -0.573570    30A     -0.566837
      31A     -0.551216    32A     -0.540600    33A     -0.537871
      34A     -0.533955    35A     -0.531308    36A     -0.500368
      37A     -0.490823    38A     -0.443602    39A     -0.333989
      40A     -0.292749

  @DF-RHF Final Energy:  -496.50925897159527

   => Energetics <=

    Nuclear Repulsion Energy =            601.8373520546770123
    One-Electron Energy =               -1869.6851958417714741
    Two-Electron Energy =                 771.3385848154991891
    Total Energy =                       -496.5092589715952727
  Basis Set: (AUG-CC-PVTZ AUX)
    Blend: AUG-CC-PVTZ-RI
    Molecular point group: c1

    Geometry (in Angstrom), charge = 0, multiplicity = 1:

       Center              X                  Y                   Z               Mass
    ------------   -----------------  -----------------  -----------------  -----------------
         O            2.160052183236    -1.158781151384    -0.109896607504    15.994914619570
         O            2.160052183236     1.158782848616    -0.109879607504    15.994914619570
         C           -1.528740816764    -0.705811151384     0.007167392496    12.000000000000
         C           -1.528741816764     0.705810848616     0.007179392496    12.000000000000
         C            0.858952183236    -0.694516151384    -0.032883607504    12.000000000000
         C            0.858951183236     0.694517848616    -0.032860607504    12.000000000000
         C           -0.316531816764    -1.420972151384    -0.018471607504    12.000000000000
         C           -0.316533816764     1.420971848616    -0.018490607504    12.000000000000
         C            2.940530183236    -0.000001151384     0.213566392496    12.000000000000
         C           -2.831383816764    -1.463588151384     0.039988392496    12.000000000000
         C           -2.831384816764     1.463586848616     0.039977392496    12.000000000000
         H           -0.302438816764    -2.507912151384    -0.026360607504     1.007825032230
         H           -0.302439816764     2.507911848616    -0.026349607504     1.007825032230
         H            3.139851783236    -0.000009351384     1.192923292496     1.007825032230
         H            3.850305183236     0.000003848616    -0.386122607504     1.007825032230
         H           -2.650629816764    -2.541606151384     0.027149392496     1.007825032230
         H           -3.411139816764    -1.231286151384     0.940220392496     1.007825032230
         H           -3.461877816764    -1.218721151384    -0.821865607504     1.007825032230
         H           -3.411127816764     1.231329848616     0.940231392496     1.007825032230
         H           -2.650632816764     2.541604848616     0.027082392496     1.007825032230
         H           -3.461889816764     1.218673848616    -0.821854607504     1.007825032230

  Basis Set: AUG-CC-PVTZ
    Blend: AUG-CC-PVTZ
  Basis Set: (AUG-CC-PVTZ AUX)
    Blend: AUG-CC-PVTZ-JKFIT
	 Reference Energy          =    -496.5092589715952727 [Eh]
	 Singles Energy            =      -0.0000000000000000 [Eh]
	 Same-Spin Energy          =      -0.5238135266072745 [Eh]
	 Opposite-Spin Energy      =      -1.6314956343195655 [Eh]
	 Correlation Energy        =      -2.1553091609268398 [Eh]
	 Total Energy              =    -498.6645681325221062 [Eh]

	 ================> DF-SCS-MP2 Energies <==================
	-----------------------------------------------------------
	 SCS Same-Spin Scale       =       0.3333333333333333 [-]
	 SCS Opposite-Spin Scale   =       1.2000000000000000 [-]
	 SCS Same-Spin Energy      =      -0.1746045088690915 [Eh]
	 SCS Opposite-Spin Energy  =      -1.9577947611834785 [Eh]
	 SCS Correlation Energy    =      -2.1323992700525700 [Eh]
	 SCS Total Energy          =    -498.6416582416478605 [Eh]
	-----------------------------------------------------------

  Dipole Moment: [D]
     X:    -0.4954      Y:    -0.0000      Z:     0.6290     Total:     0.8006

*** Psi4 exiting successfully. Buy a developer a beer!
