                               Psi4 1.4a3.dev225

  ==> Input File <==

--------------------------------------------------------------------------
#psi4
#
memory 32 gb

molecule  {
0 1
  O        2.2381840    -1.1587810    -0.1175950
  O        2.2024367     1.2484526    -0.1203971
  C       -1.4506090    -0.7058110    -0.0005310
  C       -1.4506100     0.7058110    -0.0005190
  C        0.9370840    -0.6945160    -0.0405820
  C        0.9370830     0.6945180    -0.0405590
  C       -0.2384000    -1.4209720    -0.0261700
  C       -0.2384020     1.4209720    -0.0261890
  C        3.0186620    -0.0000010     0.2058680
  C       -2.7532520    -1.4635880     0.0322900
  C       -2.7532530     1.4635870     0.0322790
  H       -0.2243070    -2.5079120    -0.0340590
  H       -0.2243080     2.5079120    -0.0340480
  H        3.2379270    -0.0000100     1.2832160
  H        3.9284370     0.0000040    -0.3938210
  H       -2.5724980    -2.5416060     0.0194510
  H       -3.3330080    -1.2312860     0.9325220
  H       -3.3837460    -1.2187210    -0.8295640
  H       -3.3329960     1.2313300     0.9325330
  H       -2.5725010     2.5416050     0.0193840
  H       -3.3837580     1.2186740    -0.8295530
units angstrom
no_reorient  #important for SAPT in psi4, default
symmetry c1  #important for SAPT in psi4, default
}

set PROPERTIES_ORIGIN ["COM"]
properties('MP2/aug-cc-pvtz', properties = ['dipole'])
--------------------------------------------------------------------------

    Molecular point group: c1
  Charge       = 0
  Multiplicity = 1
  Basis Set: AUG-CC-PVTZ
    Blend: AUG-CC-PVTZ
  Basis Set: (AUG-CC-PVTZ AUX)
    Blend: AUG-CC-PVTZ-JKFIT

    Orbital Energies [Eh]
    ---------------------

    Doubly Occupied:

       1A    -20.601867     2A    -20.597642     3A    -11.361223
       4A    -11.292498     5A    -11.288848     6A    -11.241232
       7A    -11.240171     8A    -11.238765     9A    -11.234256
      10A    -11.224747    11A    -11.224341    12A     -1.453737
      13A     -1.359806    14A     -1.156295    15A     -1.049743
      16A     -1.036672    17A     -0.951211    18A     -0.939914
      19A     -0.887787    20A     -0.835709    21A     -0.789614
      22A     -0.711630    23A     -0.706512    24A     -0.667691
      25A     -0.649594    26A     -0.613826    27A     -0.603029
      28A     -0.594610    29A     -0.573188    30A     -0.566822
      31A     -0.550802    32A     -0.541032    33A     -0.537753
      34A     -0.534886    35A     -0.528084    36A     -0.498306
      37A     -0.491476    38A     -0.443343    39A     -0.332740
      40A     -0.293161

  @DF-RHF Final Energy:  -496.50423873475052

   => Energetics <=

    Nuclear Repulsion Energy =            599.4629786084070702
    One-Electron Energy =               -1865.0453075848588469
    Two-Electron Energy =                 769.0780902417011475
    Total Energy =                       -496.5042387347505155
  Basis Set: (AUG-CC-PVTZ AUX)
    Blend: AUG-CC-PVTZ-RI
    Molecular point group: c1

    Geometry (in Angstrom), charge = 0, multiplicity = 1:

       Center              X                  Y                   Z               Mass
    ------------   -----------------  -----------------  -----------------  -----------------
         O            2.163728351781    -1.168338525569    -0.110254222660    15.994914619570
         O            2.127981051781     1.238895074431    -0.113056322660    15.994914619570
         C           -1.525064648219    -0.715368525569     0.006809777340    12.000000000000
         C           -1.525065648219     0.696253474431     0.006821777340    12.000000000000
         C            0.862628351781    -0.704073525569    -0.033241222660    12.000000000000
         C            0.862627351781     0.684960474431    -0.033218222660    12.000000000000
         C           -0.312855648219    -1.430529525569    -0.018829222660    12.000000000000
         C           -0.312857648219     1.411414474431    -0.018848222660    12.000000000000
         C            2.944206351781    -0.009558525569     0.213208777340    12.000000000000
         C           -2.827707648219    -1.473145525569     0.039630777340    12.000000000000
         C           -2.827708648219     1.454029474431     0.039619777340    12.000000000000
         H           -0.298762648219    -2.517469525569    -0.026718222660     1.007825032230
         H           -0.298763648219     2.498354474431    -0.026707222660     1.007825032230
         H            3.163471351781    -0.009567525569     1.290556777340     1.007825032230
         H            3.853981351781    -0.009553525569    -0.386480222660     1.007825032230
         H           -2.646953648219    -2.551163525569     0.026791777340     1.007825032230
         H           -3.407463648219    -1.240843525569     0.939862777340     1.007825032230
         H           -3.458201648219    -1.228278525569    -0.822223222660     1.007825032230
         H           -3.407451648219     1.221772474431     0.939873777340     1.007825032230
         H           -2.646956648219     2.532047474431     0.026724777340     1.007825032230
         H           -3.458213648219     1.209116474431    -0.822212222660     1.007825032230

  Basis Set: AUG-CC-PVTZ
    Blend: AUG-CC-PVTZ
  Basis Set: (AUG-CC-PVTZ AUX)
    Blend: AUG-CC-PVTZ-JKFIT
	 Reference Energy          =    -496.5042387347505155 [Eh]
	 Singles Energy            =      -0.0000000000000000 [Eh]
	 Same-Spin Energy          =      -0.5249514900003227 [Eh]
	 Opposite-Spin Energy      =      -1.6354993293959770 [Eh]
	 Correlation Energy        =      -2.1604508193962997 [Eh]
	 Total Energy              =    -498.6646895541468325 [Eh]

	 ================> DF-SCS-MP2 Energies <==================
	-----------------------------------------------------------
	 SCS Same-Spin Scale       =       0.3333333333333333 [-]
	 SCS Opposite-Spin Scale   =       1.2000000000000000 [-]
	 SCS Same-Spin Energy      =      -0.1749838300001076 [Eh]
	 SCS Opposite-Spin Energy  =      -1.9625991952751722 [Eh]
	 SCS Correlation Energy    =      -2.1375830252752799 [Eh]
	 SCS Total Energy          =    -498.6418217600257776 [Eh]
	-----------------------------------------------------------

  Dipole Moment: [D]
     X:    -0.3999      Y:    -0.2083      Z:     0.6113     Total:     0.7596

*** Psi4 exiting successfully. Buy a developer a beer!
