                               Psi4 1.4a3.dev225

  ==> Input File <==

--------------------------------------------------------------------------
#psi4
#
memory 32 gb

molecule  {
0 1
  O        2.2379582    -1.1277421    -0.2127571
  O        2.2381840     1.1587830    -0.1175780
  C       -1.4506090    -0.7058110    -0.0005310
  C       -1.4506100     0.7058110    -0.0005190
  C        0.9370840    -0.6945160    -0.0405820
  C        0.9370830     0.6945180    -0.0405590
  C       -0.2384000    -1.4209720    -0.0261700
  C       -0.2384020     1.4209720    -0.0261890
  C        3.0186620    -0.0000010     0.2058680
  C       -2.7532520    -1.4635880     0.0322900
  C       -2.7532530     1.4635870     0.0322790
  H       -0.2243070    -2.5079120    -0.0340590
  H       -0.2243080     2.5079120    -0.0340480
  H        3.2379270    -0.0000100     1.2832160
  H        3.9284370     0.0000040    -0.3938210
  H       -2.5724980    -2.5416060     0.0194510
  H       -3.3330080    -1.2312860     0.9325220
  H       -3.3837460    -1.2187210    -0.8295640
  H       -3.3329960     1.2313300     0.9325330
  H       -2.5725010     2.5416050     0.0193840
  H       -3.3837580     1.2186740    -0.8295530
units angstrom
no_reorient  #important for SAPT in psi4, default
symmetry c1  #important for SAPT in psi4, default
}

set PROPERTIES_ORIGIN ["COM"]
properties('MP2/aug-cc-pvtz', properties = ['dipole'])
--------------------------------------------------------------------------

    Molecular point group: c1
  Charge       = 0
  Multiplicity = 1
  Basis Set: AUG-CC-PVTZ
    Blend: AUG-CC-PVTZ
  Basis Set: (AUG-CC-PVTZ AUX)
    Blend: AUG-CC-PVTZ-JKFIT

    Orbital Energies [Eh]
    ---------------------

    Doubly Occupied:

       1A    -20.595762     2A    -20.594510     3A    -11.352846
       4A    -11.291161     5A    -11.289746     6A    -11.242454
       7A    -11.241251     8A    -11.238866     9A    -11.237730
      10A    -11.225382    11A    -11.225288    12A     -1.468484
      13A     -1.362399    14A     -1.158373    15A     -1.053233
      16A     -1.038182    17A     -0.952118    18A     -0.943480
      19A     -0.882021    20A     -0.836911    21A     -0.794344
      22A     -0.717038    23A     -0.714060    24A     -0.674847
      25A     -0.646300    26A     -0.615055    27A     -0.613445
      28A     -0.595240    29A     -0.575073    30A     -0.566326
      31A     -0.551492    32A     -0.540680    33A     -0.533410
      34A     -0.530057    35A     -0.528315    36A     -0.500108
      37A     -0.490519    38A     -0.443585    39A     -0.334443
      40A     -0.293676

  @DF-RHF Final Energy:  -496.51272187906665

   => Energetics <=

    Nuclear Repulsion Energy =            601.5916136493240174
    One-Electron Energy =               -1869.2322511682639288
    Two-Electron Energy =                 771.1279156398732084
    Total Energy =                       -496.5127218790667030
  Basis Set: (AUG-CC-PVTZ AUX)
    Blend: AUG-CC-PVTZ-RI
    Molecular point group: c1

    Geometry (in Angstrom), charge = 0, multiplicity = 1:

       Center              X                  Y                   Z               Mass
    ------------   -----------------  -----------------  -----------------  -----------------
         O            2.159716514395    -1.131050508213    -0.195574000395    15.994914619570
         O            2.159942314395     1.155474591787    -0.100394900395    15.994914619570
         C           -1.528850685605    -0.709119408213     0.016652099605    12.000000000000
         C           -1.528851685605     0.702502591787     0.016664099605    12.000000000000
         C            0.858842314395    -0.697824408213    -0.023398900395    12.000000000000
         C            0.858841314395     0.691209591787    -0.023375900395    12.000000000000
         C           -0.316641685605    -1.424280408213    -0.008986900395    12.000000000000
         C           -0.316643685605     1.417663591787    -0.009005900395    12.000000000000
         C            2.940420314395    -0.003309408213     0.223051099605    12.000000000000
         C           -2.831493685605    -1.466896408213     0.049473099605    12.000000000000
         C           -2.831494685605     1.460278591787     0.049462099605    12.000000000000
         H           -0.302548685605    -2.511220408213    -0.016875900395     1.007825032230
         H           -0.302549685605     2.504603591787    -0.016864900395     1.007825032230
         H            3.159685314395    -0.003318408213     1.300399099605     1.007825032230
         H            3.850195314395    -0.003304408213    -0.376637900395     1.007825032230
         H           -2.650739685605    -2.544914408213     0.036634099605     1.007825032230
         H           -3.411249685605    -1.234594408213     0.949705099605     1.007825032230
         H           -3.461987685605    -1.222029408213    -0.812380900395     1.007825032230
         H           -3.411237685605     1.228021591787     0.949716099605     1.007825032230
         H           -2.650742685605     2.538296591787     0.036567099605     1.007825032230
         H           -3.461999685605     1.215365591787    -0.812369900395     1.007825032230

  Basis Set: AUG-CC-PVTZ
    Blend: AUG-CC-PVTZ
  Basis Set: (AUG-CC-PVTZ AUX)
    Blend: AUG-CC-PVTZ-JKFIT
	 Reference Energy          =    -496.5127218790666461 [Eh]
	 Singles Energy            =      -0.0000000000000000 [Eh]
	 Same-Spin Energy          =      -0.5242034352100452 [Eh]
	 Opposite-Spin Energy      =      -1.6323640946354065 [Eh]
	 Correlation Energy        =      -2.1565675298454519 [Eh]
	 Total Energy              =    -498.6692894089121069 [Eh]

	 ================> DF-SCS-MP2 Energies <==================
	-----------------------------------------------------------
	 SCS Same-Spin Scale       =       0.3333333333333333 [-]
	 SCS Opposite-Spin Scale   =       1.2000000000000000 [-]
	 SCS Same-Spin Energy      =      -0.1747344784033484 [Eh]
	 SCS Opposite-Spin Energy  =      -1.9588369135624877 [Eh]
	 SCS Correlation Energy    =      -2.1335713919658361 [Eh]
	 SCS Total Energy          =    -498.6462932710325049 [Eh]
	-----------------------------------------------------------

  Dipole Moment: [D]
     X:    -0.5757      Y:    -0.0312      Z:     0.6767     Total:     0.8890

*** Psi4 exiting successfully. Buy a developer a beer!
