                               Psi4 1.4a3.dev225

  ==> Input File <==

--------------------------------------------------------------------------
#psi4
#
memory 32 gb

molecule  {
0 1
  O        2.2381840    -1.1587810    -0.1175950
  O        2.2381840     1.1587830    -0.1175780
  C       -1.4506090    -0.7058110    -0.0005310
  C       -1.4506100     0.7058110    -0.0005190
  C        0.9370840    -0.6945160    -0.0405820
  C        0.9370830     0.6945180    -0.0405590
  C       -0.2384000    -1.4209720    -0.0261700
  C       -0.2384020     1.4209720    -0.0261890
  C        3.0186620    -0.0000010     0.2058680
  C       -2.7532520    -1.4635880     0.0322900
  C       -2.7532530     1.4635870     0.0322790
  H       -0.2240477    -2.5279098    -0.0342041
  H       -0.2243080     2.5079120    -0.0340480
  H        3.2379270    -0.0000100     1.2832160
  H        3.9284370     0.0000040    -0.3938210
  H       -2.5724980    -2.5416060     0.0194510
  H       -3.3330080    -1.2312860     0.9325220
  H       -3.3837460    -1.2187210    -0.8295640
  H       -3.3329960     1.2313300     0.9325330
  H       -2.5725010     2.5416050     0.0193840
  H       -3.3837580     1.2186740    -0.8295530
units angstrom
no_reorient  #important for SAPT in psi4, default
symmetry c1  #important for SAPT in psi4, default
}

set PROPERTIES_ORIGIN ["COM"]
properties('MP2/aug-cc-pvtz', properties = ['dipole'])
--------------------------------------------------------------------------

    Molecular point group: c1
  Charge       = 0
  Multiplicity = 1
  Basis Set: AUG-CC-PVTZ
    Blend: AUG-CC-PVTZ
  Basis Set: (AUG-CC-PVTZ AUX)
    Blend: AUG-CC-PVTZ-JKFIT

    Orbital Energies [Eh]
    ---------------------

    Doubly Occupied:

       1A    -20.596163     2A    -20.596110     3A    -11.352358
       4A    -11.292279     5A    -11.291007     6A    -11.242511
       7A    -11.241480     8A    -11.240371     9A    -11.238334
      10A    -11.225381    11A    -11.225281    12A     -1.467238
      13A     -1.364712    14A     -1.158494    15A     -1.053334
      16A     -1.037912    17A     -0.952184    18A     -0.942935
      19A     -0.882495    20A     -0.836028    21A     -0.795592
      22A     -0.715864    23A     -0.712556    24A     -0.674786
      25A     -0.647583    26A     -0.612977    27A     -0.610799
      28A     -0.595390    29A     -0.574088    30A     -0.565940
      31A     -0.551527    32A     -0.540854    33A     -0.535030
      34A     -0.533324    35A     -0.530450    36A     -0.500902
      37A     -0.490655    38A     -0.441771    39A     -0.334455
      40A     -0.293319

  @DF-RHF Final Energy:  -496.51367672956411

   => Energetics <=

    Nuclear Repulsion Energy =            601.1768465012056595
    One-Electron Energy =               -1868.3921098418561542
    Two-Electron Energy =                 770.7015866110863271
    Total Energy =                       -496.5136767295640539
  Basis Set: (AUG-CC-PVTZ AUX)
    Blend: AUG-CC-PVTZ-RI
    Molecular point group: c1

    Geometry (in Angstrom), charge = 0, multiplicity = 1:

       Center              X                  Y                   Z               Mass
    ------------   -----------------  -----------------  -----------------  -----------------
         O            2.159916506236    -1.158646845076    -0.110553720251    15.994914619570
         O            2.159916506236     1.158917154924    -0.110536720251    15.994914619570
         C           -1.528876493764    -0.705676845076     0.006510279749    12.000000000000
         C           -1.528877493764     0.705945154924     0.006522279749    12.000000000000
         C            0.858816506236    -0.694381845076    -0.033540720251    12.000000000000
         C            0.858815506236     0.694652154924    -0.033517720251    12.000000000000
         C           -0.316667493764    -1.420837845076    -0.019128720251    12.000000000000
         C           -0.316669493764     1.421106154924    -0.019147720251    12.000000000000
         C            2.940394506236     0.000133154924     0.212909279749    12.000000000000
         C           -2.831519493764    -1.463453845076     0.039331279749    12.000000000000
         C           -2.831520493764     1.463721154924     0.039320279749    12.000000000000
         H           -0.302315193764    -2.527775645076    -0.027162820251     1.007825032230
         H           -0.302575493764     2.508046154924    -0.027006720251     1.007825032230
         H            3.159659506236     0.000124154924     1.290257279749     1.007825032230
         H            3.850169506236     0.000138154924    -0.386779720251     1.007825032230
         H           -2.650765493764    -2.541471845076     0.026492279749     1.007825032230
         H           -3.411275493764    -1.231151845076     0.939563279749     1.007825032230
         H           -3.462013493764    -1.218586845076    -0.822522720251     1.007825032230
         H           -3.411263493764     1.231464154924     0.939574279749     1.007825032230
         H           -2.650768493764     2.541739154924     0.026425279749     1.007825032230
         H           -3.462025493764     1.218808154924    -0.822511720251     1.007825032230

  Basis Set: AUG-CC-PVTZ
    Blend: AUG-CC-PVTZ
  Basis Set: (AUG-CC-PVTZ AUX)
    Blend: AUG-CC-PVTZ-JKFIT
	 Reference Energy          =    -496.5136767295641107 [Eh]
	 Singles Energy            =      -0.0000000000000000 [Eh]
	 Same-Spin Energy          =      -0.5240975006389476 [Eh]
	 Opposite-Spin Energy      =      -1.6324004343883072 [Eh]
	 Correlation Energy        =      -2.1564979350272546 [Eh]
	 Total Energy              =    -498.6701746645913431 [Eh]

	 ================> DF-SCS-MP2 Energies <==================
	-----------------------------------------------------------
	 SCS Same-Spin Scale       =       0.3333333333333333 [-]
	 SCS Opposite-Spin Scale   =       1.2000000000000000 [-]
	 SCS Same-Spin Energy      =      -0.1746991668796492 [Eh]
	 SCS Opposite-Spin Energy  =      -1.9588805212659686 [Eh]
	 SCS Correlation Energy    =      -2.1335796881456179 [Eh]
	 SCS Total Energy          =    -498.6472564177097411 [Eh]
	-----------------------------------------------------------

  Dipole Moment: [D]
     X:    -0.5701      Y:     0.0045      Z:     0.5640     Total:     0.8020

*** Psi4 exiting successfully. Buy a developer a beer!
