                               Psi4 1.4a3.dev225

  ==> Input File <==

--------------------------------------------------------------------------
#psi4
#
memory 32 gb

molecule  {
0 1
  O        2.2381840    -1.1587810    -0.1175950
  O        2.2381840     1.1587830    -0.1175780
  C       -1.4506090    -0.7058110    -0.0005310
  C       -1.4506100     0.7058110    -0.0005190
  C        0.9370840    -0.6945160    -0.0405820
  C        0.9370830     0.6945180    -0.0405590
  C       -0.2384000    -1.4209720    -0.0261700
  C       -0.2384020     1.4209720    -0.0261890
  C        3.0186620    -0.0000010     0.2058680
  C       -2.7532520    -1.4635880     0.0322900
  C       -2.7532530     1.4635870     0.0322790
  H       -0.2243070    -2.5079120    -0.0340590
  H       -0.2236597     2.5579065    -0.0344095
  H        3.2379270    -0.0000100     1.2832160
  H        3.9284370     0.0000040    -0.3938210
  H       -2.5724980    -2.5416060     0.0194510
  H       -3.3330080    -1.2312860     0.9325220
  H       -3.3837460    -1.2187210    -0.8295640
  H       -3.3329960     1.2313300     0.9325330
  H       -2.5725010     2.5416050     0.0193840
  H       -3.3837580     1.2186740    -0.8295530
units angstrom
no_reorient  #important for SAPT in psi4, default
symmetry c1  #important for SAPT in psi4, default
}

set PROPERTIES_ORIGIN ["COM"]
properties('MP2/aug-cc-pvtz', properties = ['dipole'])
--------------------------------------------------------------------------

    Molecular point group: c1
  Charge       = 0
  Multiplicity = 1
  Basis Set: AUG-CC-PVTZ
    Blend: AUG-CC-PVTZ
  Basis Set: (AUG-CC-PVTZ AUX)
    Blend: AUG-CC-PVTZ-JKFIT

    Orbital Energies [Eh]
    ---------------------

    Doubly Occupied:

       1A    -20.596278     2A    -20.596154     3A    -11.352408
       4A    -11.292530     5A    -11.291254     6A    -11.244125
       7A    -11.242566     8A    -11.241476     9A    -11.238434
      10A    -11.225490    11A    -11.225236    12A     -1.467319
      13A     -1.364780    14A     -1.158518    15A     -1.053458
      16A     -1.037371    17A     -0.951972    18A     -0.942928
      19A     -0.882520    20A     -0.834707    21A     -0.795611
      22A     -0.715543    23A     -0.712284    24A     -0.674508
      25A     -0.646828    26A     -0.611996    27A     -0.607840
      28A     -0.595450    29A     -0.574075    30A     -0.566002
      31A     -0.551556    32A     -0.540658    33A     -0.534993
      34A     -0.533205    35A     -0.530474    36A     -0.501058
      37A     -0.489589    38A     -0.441894    39A     -0.334581
      40A     -0.293481

  @DF-RHF Final Energy:  -496.51182215614335

   => Energetics <=

    Nuclear Repulsion Energy =            601.0181104190598944
    One-Electron Energy =               -1868.0775552134155078
    Two-Electron Energy =                 770.5476226382122604
    Total Energy =                       -496.5118221561433529
  Basis Set: (AUG-CC-PVTZ AUX)
    Blend: AUG-CC-PVTZ-RI
    Molecular point group: c1

    Geometry (in Angstrom), charge = 0, multiplicity = 1:

       Center              X                  Y                   Z               Mass
    ------------   -----------------  -----------------  -----------------  -----------------
         O            2.159913893796    -1.159116898349    -0.110552266955    15.994914619570
         O            2.159913893796     1.158447101651    -0.110535266955    15.994914619570
         C           -1.528879106204    -0.706146898349     0.006511733045    12.000000000000
         C           -1.528880106204     0.705475101651     0.006523733045    12.000000000000
         C            0.858813893796    -0.694851898349    -0.033539266955    12.000000000000
         C            0.858812893796     0.694182101651    -0.033516266955    12.000000000000
         C           -0.316670106204    -1.421307898349    -0.019127266955    12.000000000000
         C           -0.316672106204     1.420636101651    -0.019146266955    12.000000000000
         C            2.940391893796    -0.000336898349     0.212910733045    12.000000000000
         C           -2.831522106204    -1.463923898349     0.039332733045    12.000000000000
         C           -2.831523106204     1.463251101651     0.039321733045    12.000000000000
         H           -0.302577106204    -2.508247898349    -0.027016266955     1.007825032230
         H           -0.301929806204     2.557570601651    -0.027366766955     1.007825032230
         H            3.159656893796    -0.000345898349     1.290258733045     1.007825032230
         H            3.850166893796    -0.000331898349    -0.386778266955     1.007825032230
         H           -2.650768106204    -2.541941898349     0.026493733045     1.007825032230
         H           -3.411278106204    -1.231621898349     0.939564733045     1.007825032230
         H           -3.462016106204    -1.219056898349    -0.822521266955     1.007825032230
         H           -3.411266106204     1.230994101651     0.939575733045     1.007825032230
         H           -2.650771106204     2.541269101651     0.026426733045     1.007825032230
         H           -3.462028106204     1.218338101651    -0.822510266955     1.007825032230

  Basis Set: AUG-CC-PVTZ
    Blend: AUG-CC-PVTZ
  Basis Set: (AUG-CC-PVTZ AUX)
    Blend: AUG-CC-PVTZ-JKFIT
	 Reference Energy          =    -496.5118221561433529 [Eh]
	 Singles Energy            =      -0.0000000000000000 [Eh]
	 Same-Spin Energy          =      -0.5241830659867412 [Eh]
	 Opposite-Spin Energy      =      -1.6326737560453790 [Eh]
	 Correlation Energy        =      -2.1568568220321200 [Eh]
	 Total Energy              =    -498.6686789781754783 [Eh]

	 ================> DF-SCS-MP2 Energies <==================
	-----------------------------------------------------------
	 SCS Same-Spin Scale       =       0.3333333333333333 [-]
	 SCS Opposite-Spin Scale   =       1.2000000000000000 [-]
	 SCS Same-Spin Energy      =      -0.1747276886622471 [Eh]
	 SCS Opposite-Spin Energy  =      -1.9592085072544547 [Eh]
	 SCS Correlation Energy    =      -2.1339361959167018 [Eh]
	 SCS Total Energy          =    -498.6457583520600565 [Eh]
	-----------------------------------------------------------

  Dipole Moment: [D]
     X:    -0.5699      Y:    -0.0124      Z:     0.5642     Total:     0.8020

*** Psi4 exiting successfully. Buy a developer a beer!
