                               Psi4 1.4a3.dev225

  ==> Input File <==

--------------------------------------------------------------------------
#psi4
#
memory 32 gb

molecule  {
0 1
  O        2.2381840    -1.1587810    -0.1175950
  O        2.2381840     1.1587830    -0.1175780
  C       -1.4506090    -0.7058110    -0.0005310
  C       -1.4506100     0.7058110    -0.0005190
  C        0.9370840    -0.6945160    -0.0405820
  C        0.9370830     0.6945180    -0.0405590
  C       -0.2384000    -1.4209720    -0.0261700
  C       -0.2384020     1.4209720    -0.0261890
  C        2.9914499    -0.0404029     0.1945902
  C       -2.7532520    -1.4635880     0.0322900
  C       -2.7532530     1.4635870     0.0322790
  H       -0.2243070    -2.5079120    -0.0340590
  H       -0.2243080     2.5079120    -0.0340480
  H        3.2379270    -0.0000100     1.2832160
  H        3.9284370     0.0000040    -0.3938210
  H       -2.5724980    -2.5416060     0.0194510
  H       -3.3330080    -1.2312860     0.9325220
  H       -3.3837460    -1.2187210    -0.8295640
  H       -3.3329960     1.2313300     0.9325330
  H       -2.5725010     2.5416050     0.0193840
  H       -3.3837580     1.2186740    -0.8295530
units angstrom
no_reorient  #important for SAPT in psi4, default
symmetry c1  #important for SAPT in psi4, default
}

set PROPERTIES_ORIGIN ["COM"]
properties('MP2/aug-cc-pvtz', properties = ['dipole'])
--------------------------------------------------------------------------

    Molecular point group: c1
  Charge       = 0
  Multiplicity = 1
  Basis Set: AUG-CC-PVTZ
    Blend: AUG-CC-PVTZ
  Basis Set: (AUG-CC-PVTZ AUX)
    Blend: AUG-CC-PVTZ-JKFIT

    Orbital Energies [Eh]
    ---------------------

    Doubly Occupied:

       1A    -20.601504     2A    -20.593901     3A    -11.351802
       4A    -11.293701     5A    -11.291942     6A    -11.243509
       7A    -11.242169     8A    -11.240262     9A    -11.238377
      10A    -11.226056    11A    -11.225993    12A     -1.476562
      13A     -1.370098    14A     -1.159773    15A     -1.054466
      16A     -1.039402    17A     -0.953801    18A     -0.941080
      19A     -0.881808    20A     -0.838538    21A     -0.799059
      22A     -0.717687    23A     -0.714033    24A     -0.678581
      25A     -0.647235    26A     -0.617475    27A     -0.610950
      28A     -0.595918    29A     -0.577463    30A     -0.566223
      31A     -0.552323    32A     -0.542815    33A     -0.539345
      34A     -0.532555    35A     -0.524239    36A     -0.501887
      37A     -0.492522    38A     -0.439496    39A     -0.335466
      40A     -0.294339

  @DF-RHF Final Energy:  -496.51233574892200

   => Energetics <=

    Nuclear Repulsion Energy =            602.0252428735319654
    One-Electron Energy =               -1869.9864540952994503
    Two-Electron Energy =                 771.4488754728454296
    Total Energy =                       -496.5123357489219416
  Basis Set: (AUG-CC-PVTZ AUX)
    Blend: AUG-CC-PVTZ-RI
    Molecular point group: c1

    Geometry (in Angstrom), charge = 0, multiplicity = 1:

       Center              X                  Y                   Z               Mass
    ------------   -----------------  -----------------  -----------------  -----------------
         O            2.162094228041    -1.155550460302    -0.109652880013    15.994914619570
         O            2.162094228041     1.162013539698    -0.109635880013    15.994914619570
         C           -1.526698771959    -0.702580460302     0.007411119987    12.000000000000
         C           -1.526699771959     0.709041539698     0.007423119987    12.000000000000
         C            0.860994228041    -0.691285460302    -0.032639880013    12.000000000000
         C            0.860993228041     0.697748539698    -0.032616880013    12.000000000000
         C           -0.314489771959    -1.417741460302    -0.018227880013    12.000000000000
         C           -0.314491771959     1.424202539698    -0.018246880013    12.000000000000
         C            2.915360128041    -0.037172360302     0.202532319987    12.000000000000
         C           -2.829341771959    -1.460357460302     0.040232119987    12.000000000000
         C           -2.829342771959     1.466817539698     0.040221119987    12.000000000000
         H           -0.300396771959    -2.504681460302    -0.026116880013     1.007825032230
         H           -0.300397771959     2.511142539698    -0.026105880013     1.007825032230
         H            3.161837228041     0.003220539698     1.291158119987     1.007825032230
         H            3.852347228041     0.003234539698    -0.385878880013     1.007825032230
         H           -2.648587771959    -2.538375460302     0.027393119987     1.007825032230
         H           -3.409097771959    -1.228055460302     0.940464119987     1.007825032230
         H           -3.459835771959    -1.215490460302    -0.821621880013     1.007825032230
         H           -3.409085771959     1.234560539698     0.940475119987     1.007825032230
         H           -2.648590771959     2.544835539698     0.027326119987     1.007825032230
         H           -3.459847771959     1.221904539698    -0.821610880013     1.007825032230

  Basis Set: AUG-CC-PVTZ
    Blend: AUG-CC-PVTZ
  Basis Set: (AUG-CC-PVTZ AUX)
    Blend: AUG-CC-PVTZ-JKFIT
	 Reference Energy          =    -496.5123357489219984 [Eh]
	 Singles Energy            =      -0.0000000000000000 [Eh]
	 Same-Spin Energy          =      -0.5242062773154087 [Eh]
	 Opposite-Spin Energy      =      -1.6320982340277113 [Eh]
	 Correlation Energy        =      -2.1563045113431198 [Eh]
	 Total Energy              =    -498.6686402602651356 [Eh]

	 ================> DF-SCS-MP2 Energies <==================
	-----------------------------------------------------------
	 SCS Same-Spin Scale       =       0.3333333333333333 [-]
	 SCS Opposite-Spin Scale   =       1.2000000000000000 [-]
	 SCS Same-Spin Energy      =      -0.1747354257718029 [Eh]
	 SCS Opposite-Spin Energy  =      -1.9585178808332535 [Eh]
	 SCS Correlation Energy    =      -2.1332533066050563 [Eh]
	 SCS Total Energy          =    -498.6455890555270685 [Eh]
	-----------------------------------------------------------

  Dipole Moment: [D]
     X:    -0.7463      Y:    -0.1323      Z:     0.5034     Total:     0.9098

*** Psi4 exiting successfully. Buy a developer a beer!
