                               Psi4 1.4a3.dev225

  ==> Input File <==

--------------------------------------------------------------------------
#psi4
#
memory 32 gb

molecule  {
0 1
  O        2.2381840    -1.1587810    -0.1175950
  O        2.2381840     1.1587830    -0.1175780
  C       -1.4506090    -0.7058110    -0.0005310
  C       -1.4506100     0.7058110    -0.0005190
  C        0.9370840    -0.6945160    -0.0405820
  C        0.9613232     0.6943065    -0.0408564
  C       -0.2384000    -1.4209720    -0.0261700
  C       -0.2384020     1.4209720    -0.0261890
  C        3.0186620    -0.0000010     0.2058680
  C       -2.7532520    -1.4635880     0.0322900
  C       -2.7532530     1.4635870     0.0322790
  H       -0.2243070    -2.5079120    -0.0340590
  H       -0.2243080     2.5079120    -0.0340480
  H        3.2379270    -0.0000100     1.2832160
  H        3.9284370     0.0000040    -0.3938210
  H       -2.5724980    -2.5416060     0.0194510
  H       -3.3330080    -1.2312860     0.9325220
  H       -3.3837460    -1.2187210    -0.8295640
  H       -3.3329960     1.2313300     0.9325330
  H       -2.5725010     2.5416050     0.0193840
  H       -3.3837580     1.2186740    -0.8295530
units angstrom
no_reorient  #important for SAPT in psi4, default
symmetry c1  #important for SAPT in psi4, default
}

set PROPERTIES_ORIGIN ["COM"]
properties('MP2/aug-cc-pvtz', properties = ['dipole'])
--------------------------------------------------------------------------

    Molecular point group: c1
  Charge       = 0
  Multiplicity = 1
  Basis Set: AUG-CC-PVTZ
    Blend: AUG-CC-PVTZ
  Basis Set: (AUG-CC-PVTZ AUX)
    Blend: AUG-CC-PVTZ-JKFIT

    Orbital Energies [Eh]
    ---------------------

    Doubly Occupied:

       1A    -20.599406     2A    -20.595482     3A    -11.353861
       4A    -11.292935     5A    -11.289973     6A    -11.241789
       7A    -11.240620     8A    -11.239130     9A    -11.238032
      10A    -11.224915    11A    -11.224776    12A     -1.473010
      13A     -1.369971    14A     -1.155847    15A     -1.052430
      16A     -1.036089    17A     -0.950594    18A     -0.943980
      19A     -0.883877    20A     -0.836399    21A     -0.796957
      22A     -0.717967    23A     -0.714214    24A     -0.676640
      25A     -0.648178    26A     -0.613023    27A     -0.611074
      28A     -0.594707    29A     -0.577569    30A     -0.567296
      31A     -0.551117    32A     -0.541299    33A     -0.537319
      34A     -0.533191    35A     -0.529542    36A     -0.500327
      37A     -0.490094    38A     -0.441147    39A     -0.331882
      40A     -0.291564

  @DF-RHF Final Energy:  -496.51364357910956

   => Energetics <=

    Nuclear Repulsion Energy =            601.3097300305902309
    One-Electron Energy =               -1868.6303024907090276
    Two-Electron Energy =                 770.8069288810094122
    Total Energy =                       -496.5136435791094982
  Basis Set: (AUG-CC-PVTZ AUX)
    Blend: AUG-CC-PVTZ-RI
    Molecular point group: c1

    Geometry (in Angstrom), charge = 0, multiplicity = 1:

       Center              X                  Y                   Z               Mass
    ------------   -----------------  -----------------  -----------------  -----------------
         O            2.157979911380    -1.158764233687    -0.110530913505    15.994914619570
         O            2.157979911380     1.158799766313    -0.110513913505    15.994914619570
         C           -1.530813088620    -0.705794233687     0.006533086495    12.000000000000
         C           -1.530814088620     0.705827766313     0.006545086495    12.000000000000
         C            0.856879911380    -0.694499233687    -0.033517913505    12.000000000000
         C            0.881119111380     0.694323266313    -0.033792313505    12.000000000000
         C           -0.318604088620    -1.420955233687    -0.019105913505    12.000000000000
         C           -0.318606088620     1.420988766313    -0.019124913505    12.000000000000
         C            2.938457911380     0.000015766313     0.212932086495    12.000000000000
         C           -2.833456088620    -1.463571233687     0.039354086495    12.000000000000
         C           -2.833457088620     1.463603766313     0.039343086495    12.000000000000
         H           -0.304511088620    -2.507895233687    -0.026994913505     1.007825032230
         H           -0.304512088620     2.507928766313    -0.026983913505     1.007825032230
         H            3.157722911380     0.000006766313     1.290280086495     1.007825032230
         H            3.848232911380     0.000020766313    -0.386756913505     1.007825032230
         H           -2.652702088620    -2.541589233687     0.026515086495     1.007825032230
         H           -3.413212088620    -1.231269233687     0.939586086495     1.007825032230
         H           -3.463950088620    -1.218704233687    -0.822499913505     1.007825032230
         H           -3.413200088620     1.231346766313     0.939597086495     1.007825032230
         H           -2.652705088620     2.541621766313     0.026448086495     1.007825032230
         H           -3.463962088620     1.218690766313    -0.822488913505     1.007825032230

  Basis Set: AUG-CC-PVTZ
    Blend: AUG-CC-PVTZ
  Basis Set: (AUG-CC-PVTZ AUX)
    Blend: AUG-CC-PVTZ-JKFIT
	 Reference Energy          =    -496.5136435791095550 [Eh]
	 Singles Energy            =      -0.0000000000000000 [Eh]
	 Same-Spin Energy          =      -0.5241235994057816 [Eh]
	 Opposite-Spin Energy      =      -1.6321511343435862 [Eh]
	 Correlation Energy        =      -2.1562747337493677 [Eh]
	 Total Energy              =    -498.6699183128588970 [Eh]

	 ================> DF-SCS-MP2 Energies <==================
	-----------------------------------------------------------
	 SCS Same-Spin Scale       =       0.3333333333333333 [-]
	 SCS Opposite-Spin Scale   =       1.2000000000000000 [-]
	 SCS Same-Spin Energy      =      -0.1747078664685938 [Eh]
	 SCS Opposite-Spin Energy  =      -1.9585813612123033 [Eh]
	 SCS Correlation Energy    =      -2.1332892276808972 [Eh]
	 SCS Total Energy          =    -498.6469328067904598 [Eh]
	-----------------------------------------------------------

  Dipole Moment: [D]
     X:    -0.4472      Y:     0.0232      Z:     0.5585     Total:     0.7158

*** Psi4 exiting successfully. Buy a developer a beer!
