                               Psi4 1.4a3.dev225

  ==> Input File <==

--------------------------------------------------------------------------
#psi4
#
memory 32 gb

molecule  {
0 1
  O        2.2381840    -1.1587810    -0.1175950
  O        2.2298975     1.1814594    -0.1170871
  C       -1.4506090    -0.7058110    -0.0005310
  C       -1.4506100     0.7058110    -0.0005190
  C        0.9370840    -0.6945160    -0.0405820
  C        0.9370830     0.6945180    -0.0405590
  C       -0.2384000    -1.4209720    -0.0261700
  C       -0.2384020     1.4209720    -0.0261890
  C        3.0186620    -0.0000010     0.2058680
  C       -2.7532520    -1.4635880     0.0322900
  C       -2.7532530     1.4635870     0.0322790
  H       -0.2243070    -2.5079120    -0.0340590
  H       -0.2243080     2.5079120    -0.0340480
  H        3.2379270    -0.0000100     1.2832160
  H        3.9284370     0.0000040    -0.3938210
  H       -2.5724980    -2.5416060     0.0194510
  H       -3.3330080    -1.2312860     0.9325220
  H       -3.3837460    -1.2187210    -0.8295640
  H       -3.3329960     1.2313300     0.9325330
  H       -2.5725010     2.5416050     0.0193840
  H       -3.3837580     1.2186740    -0.8295530
units angstrom
no_reorient  #important for SAPT in psi4, default
symmetry c1  #important for SAPT in psi4, default
}

set PROPERTIES_ORIGIN ["COM"]
properties('MP2/aug-cc-pvtz', properties = ['dipole'])
--------------------------------------------------------------------------

    Molecular point group: c1
  Charge       = 0
  Multiplicity = 1
  Basis Set: AUG-CC-PVTZ
    Blend: AUG-CC-PVTZ
  Basis Set: (AUG-CC-PVTZ AUX)
    Blend: AUG-CC-PVTZ-JKFIT

    Orbital Energies [Eh]
    ---------------------

    Doubly Occupied:

       1A    -20.597576     2A    -20.596614     3A    -11.354513
       4A    -11.292038     5A    -11.290490     6A    -11.242032
       7A    -11.240932     8A    -11.238416     9A    -11.237255
      10A    -11.225164    11A    -11.225068    12A     -1.463155
      13A     -1.363722    14A     -1.157919    15A     -1.052241
      16A     -1.037949    17A     -0.952007    18A     -0.942068
      19A     -0.883852    20A     -0.836637    21A     -0.794078
      22A     -0.714756    23A     -0.710988    24A     -0.673000
      25A     -0.648532    26A     -0.614672    27A     -0.608982
      28A     -0.595152    29A     -0.574100    30A     -0.566236
      31A     -0.551341    32A     -0.540967    33A     -0.535718
      34A     -0.533768    35A     -0.530479    36A     -0.500273
      37A     -0.491384    38A     -0.442151    39A     -0.333972
      40A     -0.293201

  @DF-RHF Final Energy:  -496.51280993626676

   => Energetics <=

    Nuclear Repulsion Energy =            600.8090737496235079
    One-Electron Energy =               -1867.6769660766715333
    Two-Electron Energy =                 770.3550823907813765
    Total Energy =                       -496.5128099362667626
  Basis Set: (AUG-CC-PVTZ AUX)
    Blend: AUG-CC-PVTZ-RI
    Molecular point group: c1

    Geometry (in Angstrom), charge = 0, multiplicity = 1:

       Center              X                  Y                   Z               Mass
    ------------   -----------------  -----------------  -----------------  -----------------
         O            2.160801459182    -1.161198096257    -0.110607016988    15.994914619570
         O            2.152514959182     1.179042303743    -0.110099116988    15.994914619570
         C           -1.527991540818    -0.708228096257     0.006456983012    12.000000000000
         C           -1.527992540818     0.703393903743     0.006468983012    12.000000000000
         C            0.859701459182    -0.696933096257    -0.033594016988    12.000000000000
         C            0.859700459182     0.692100903743    -0.033571016988    12.000000000000
         C           -0.315782540818    -1.423389096257    -0.019182016988    12.000000000000
         C           -0.315784540818     1.418554903743    -0.019201016988    12.000000000000
         C            2.941279459182    -0.002418096257     0.212855983012    12.000000000000
         C           -2.830634540818    -1.466005096257     0.039277983012    12.000000000000
         C           -2.830635540818     1.461169903743     0.039266983012    12.000000000000
         H           -0.301689540818    -2.510329096257    -0.027071016988     1.007825032230
         H           -0.301690540818     2.505494903743    -0.027060016988     1.007825032230
         H            3.160544459182    -0.002427096257     1.290203983012     1.007825032230
         H            3.851054459182    -0.002413096257    -0.386833016988     1.007825032230
         H           -2.649880540818    -2.544023096257     0.026438983012     1.007825032230
         H           -3.410390540818    -1.233703096257     0.939509983012     1.007825032230
         H           -3.461128540818    -1.221138096257    -0.822576016988     1.007825032230
         H           -3.410378540818     1.228912903743     0.939520983012     1.007825032230
         H           -2.649883540818     2.539187903743     0.026371983012     1.007825032230
         H           -3.461140540818     1.216256903743    -0.822565016988     1.007825032230

  Basis Set: AUG-CC-PVTZ
    Blend: AUG-CC-PVTZ
  Basis Set: (AUG-CC-PVTZ AUX)
    Blend: AUG-CC-PVTZ-JKFIT
	 Reference Energy          =    -496.5128099362667626 [Eh]
	 Singles Energy            =      -0.0000000000000000 [Eh]
	 Same-Spin Energy          =      -0.5242240031516227 [Eh]
	 Opposite-Spin Energy      =      -1.6329670274550050 [Eh]
	 Correlation Energy        =      -2.1571910306066275 [Eh]
	 Total Energy              =    -498.6700009668733742 [Eh]

	 ================> DF-SCS-MP2 Energies <==================
	-----------------------------------------------------------
	 SCS Same-Spin Scale       =       0.3333333333333333 [-]
	 SCS Opposite-Spin Scale   =       1.2000000000000000 [-]
	 SCS Same-Spin Energy      =      -0.1747413343838742 [Eh]
	 SCS Opposite-Spin Energy  =      -1.9595604329460059 [Eh]
	 SCS Correlation Energy    =      -2.1343017673298803 [Eh]
	 SCS Total Energy          =    -498.6471117035966358 [Eh]
	-----------------------------------------------------------

  Dipole Moment: [D]
     X:    -0.5258      Y:    -0.0537      Z:     0.5753     Total:     0.7812

*** Psi4 exiting successfully. Buy a developer a beer!
