                               Psi4 1.4a3.dev225

  ==> Input File <==

--------------------------------------------------------------------------
#psi4
#
memory 32 gb

molecule  {
0 1
  O        2.2381840    -1.1587810    -0.1175950
  O        2.2381840     1.1587830    -0.1175780
  C       -1.4506090    -0.7058110    -0.0005310
  C       -1.4506100     0.7058110    -0.0005190
  C        0.9370840    -0.6945160    -0.0405820
  C        0.9370830     0.6945180    -0.0405590
  C       -0.2384000    -1.4209720    -0.0261700
  C       -0.2556248     1.4108112    -0.0258243
  C        3.0186620    -0.0000010     0.2058680
  C       -2.7532520    -1.4635880     0.0322900
  C       -2.7532530     1.4635870     0.0322790
  H       -0.2243070    -2.5079120    -0.0340590
  H       -0.2243080     2.5079120    -0.0340480
  H        3.2379270    -0.0000100     1.2832160
  H        3.9284370     0.0000040    -0.3938210
  H       -2.5724980    -2.5416060     0.0194510
  H       -3.3330080    -1.2312860     0.9325220
  H       -3.3837460    -1.2187210    -0.8295640
  H       -3.3329960     1.2313300     0.9325330
  H       -2.5725010     2.5416050     0.0193840
  H       -3.3837580     1.2186740    -0.8295530
units angstrom
no_reorient  #important for SAPT in psi4, default
symmetry c1  #important for SAPT in psi4, default
}

set PROPERTIES_ORIGIN ["COM"]
properties('MP2/aug-cc-pvtz', properties = ['dipole'])
--------------------------------------------------------------------------

    Molecular point group: c1
  Charge       = 0
  Multiplicity = 1
  Basis Set: AUG-CC-PVTZ
    Blend: AUG-CC-PVTZ
  Basis Set: (AUG-CC-PVTZ AUX)
    Blend: AUG-CC-PVTZ-JKFIT

    Orbital Energies [Eh]
    ---------------------

    Doubly Occupied:

       1A    -20.596610     2A    -20.595761     3A    -11.352446
       4A    -11.292211     5A    -11.290627     6A    -11.242138
       7A    -11.239878     8A    -11.238266     9A    -11.238203
      10A    -11.225354    11A    -11.225236    12A     -1.467059
      13A     -1.364574    14A     -1.159777    15A     -1.053089
      16A     -1.039187    17A     -0.951516    18A     -0.943535
      19A     -0.882792    20A     -0.835904    21A     -0.796618
      22A     -0.716073    23A     -0.712791    24A     -0.675600
      25A     -0.648392    26A     -0.612447    27A     -0.611577
      28A     -0.595695    29A     -0.574006    30A     -0.566507
      31A     -0.551673    32A     -0.540987    33A     -0.534987
      34A     -0.532948    35A     -0.530225    36A     -0.502110
      37A     -0.489548    38A     -0.442742    39A     -0.335120
      40A     -0.292991

  @DF-RHF Final Energy:  -496.51385511219172

   => Energetics <=

    Nuclear Repulsion Energy =            601.4472105140180247
    One-Electron Energy =               -1868.9277303841363391
    Two-Electron Energy =                 770.9666647579265373
    Total Energy =                       -496.5138551121917772
  Basis Set: (AUG-CC-PVTZ AUX)
    Blend: AUG-CC-PVTZ-RI
    Molecular point group: c1

    Geometry (in Angstrom), charge = 0, multiplicity = 1:

       Center              X                  Y                   Z               Mass
    ------------   -----------------  -----------------  -----------------  -----------------
         O            2.161295446579    -1.157968650773    -0.110583857476    15.994914619570
         O            2.161295446579     1.159595349227    -0.110566857476    15.994914619570
         C           -1.527497553421    -0.704998650773     0.006480142524    12.000000000000
         C           -1.527498553421     0.706623349227     0.006492142524    12.000000000000
         C            0.860195446579    -0.693703650773    -0.033570857476    12.000000000000
         C            0.860194446579     0.695330349227    -0.033547857476    12.000000000000
         C           -0.315288553421    -1.420159650773    -0.019158857476    12.000000000000
         C           -0.332513353421     1.411623549227    -0.018813157476    12.000000000000
         C            2.941773446579     0.000811349227     0.212879142524    12.000000000000
         C           -2.830140553421    -1.462775650773     0.039301142524    12.000000000000
         C           -2.830141553421     1.464399349227     0.039290142524    12.000000000000
         H           -0.301195553421    -2.507099650773    -0.027047857476     1.007825032230
         H           -0.301196553421     2.508724349227    -0.027036857476     1.007825032230
         H            3.161038446579     0.000802349227     1.290227142524     1.007825032230
         H            3.851548446579     0.000816349227    -0.386809857476     1.007825032230
         H           -2.649386553421    -2.540793650773     0.026462142524     1.007825032230
         H           -3.409896553421    -1.230473650773     0.939533142524     1.007825032230
         H           -3.460634553421    -1.217908650773    -0.822552857476     1.007825032230
         H           -3.409884553421     1.232142349227     0.939544142524     1.007825032230
         H           -2.649389553421     2.542417349227     0.026395142524     1.007825032230
         H           -3.460646553421     1.219486349227    -0.822541857476     1.007825032230

  Basis Set: AUG-CC-PVTZ
    Blend: AUG-CC-PVTZ
  Basis Set: (AUG-CC-PVTZ AUX)
    Blend: AUG-CC-PVTZ-JKFIT
	 Reference Energy          =    -496.5138551121917203 [Eh]
	 Singles Energy            =      -0.0000000000000000 [Eh]
	 Same-Spin Energy          =      -0.5241052942946182 [Eh]
	 Opposite-Spin Energy      =      -1.6322654105838548 [Eh]
	 Correlation Energy        =      -2.1563707048784728 [Eh]
	 Total Energy              =    -498.6702258170702180 [Eh]

	 ================> DF-SCS-MP2 Energies <==================
	-----------------------------------------------------------
	 SCS Same-Spin Scale       =       0.3333333333333333 [-]
	 SCS Opposite-Spin Scale   =       1.2000000000000000 [-]
	 SCS Same-Spin Energy      =      -0.1747017647648727 [Eh]
	 SCS Opposite-Spin Energy  =      -1.9587184927006256 [Eh]
	 SCS Correlation Energy    =      -2.1334202574654983 [Eh]
	 SCS Total Energy          =    -498.6472753696572227 [Eh]
	-----------------------------------------------------------

  Dipole Moment: [D]
     X:    -0.5655      Y:     0.0001      Z:     0.5625     Total:     0.7976

*** Psi4 exiting successfully. Buy a developer a beer!
