                               Psi4 1.4a3.dev225

  ==> Input File <==

--------------------------------------------------------------------------
#psi4
#
memory 32 gb

molecule  {
0 1
  O        2.2381840    -1.1587810    -0.1175950
  O        2.2381840     1.1587830    -0.1175780
  C       -1.4506090    -0.7058110    -0.0005310
  C       -1.4506100     0.7058110    -0.0005190
  C        0.9370840    -0.6945160    -0.0405820
  C        0.9370830     0.6945180    -0.0405590
  C       -0.2384000    -1.4209720    -0.0261700
  C       -0.2814590     1.3955699    -0.0252772
  C        3.0186620    -0.0000010     0.2058680
  C       -2.7532520    -1.4635880     0.0322900
  C       -2.7532530     1.4635870     0.0322790
  H       -0.2243070    -2.5079120    -0.0340590
  H       -0.2243080     2.5079120    -0.0340480
  H        3.2379270    -0.0000100     1.2832160
  H        3.9284370     0.0000040    -0.3938210
  H       -2.5724980    -2.5416060     0.0194510
  H       -3.3330080    -1.2312860     0.9325220
  H       -3.3837460    -1.2187210    -0.8295640
  H       -3.3329960     1.2313300     0.9325330
  H       -2.5725010     2.5416050     0.0193840
  H       -3.3837580     1.2186740    -0.8295530
units angstrom
no_reorient  #important for SAPT in psi4, default
symmetry c1  #important for SAPT in psi4, default
}

set PROPERTIES_ORIGIN ["COM"]
properties('MP2/aug-cc-pvtz', properties = ['dipole'])
--------------------------------------------------------------------------

    Molecular point group: c1
  Charge       = 0
  Multiplicity = 1
  Basis Set: AUG-CC-PVTZ
    Blend: AUG-CC-PVTZ
  Basis Set: (AUG-CC-PVTZ AUX)
    Blend: AUG-CC-PVTZ-JKFIT

    Orbital Energies [Eh]
    ---------------------

    Doubly Occupied:

       1A    -20.597333     2A    -20.595259     3A    -11.352594
       4A    -11.292640     5A    -11.289971     6A    -11.242455
       7A    -11.238896     8A    -11.238183     9A    -11.236342
      10A    -11.225432    11A    -11.225145    12A     -1.466843
      13A     -1.364409    14A     -1.161934    15A     -1.053257
      16A     -1.040266    17A     -0.950268    18A     -0.944440
      19A     -0.883291    20A     -0.834213    21A     -0.798165
      22A     -0.716085    23A     -0.712986    24A     -0.676322
      25A     -0.648627    26A     -0.612064    27A     -0.608664
      28A     -0.596268    29A     -0.573865    30A     -0.567383
      31A     -0.551946    32A     -0.541020    33A     -0.534930
      34A     -0.532346    35A     -0.529896    36A     -0.504154
      37A     -0.485880    38A     -0.444450    39A     -0.336692
      40A     -0.292417

  @DF-RHF Final Energy:  -496.51116341011789

   => Energetics <=

    Nuclear Repulsion Energy =            601.7014119104679821
    One-Electron Energy =               -1869.4304949309439507
    Two-Electron Energy =                 771.2179196103581944
    Total Energy =                       -496.5111634101178879
  Basis Set: (AUG-CC-PVTZ AUX)
    Blend: AUG-CC-PVTZ-RI
    Molecular point group: c1

    Geometry (in Angstrom), charge = 0, multiplicity = 1:

       Center              X                  Y                   Z               Mass
    ------------   -----------------  -----------------  -----------------  -----------------
         O            2.163361244988    -1.156749899920    -0.110627605620    15.994914619570
         O            2.163361244988     1.160814100080    -0.110610605620    15.994914619570
         C           -1.525431755012    -0.703779899920     0.006436394380    12.000000000000
         C           -1.525432755012     0.707842100080     0.006448394380    12.000000000000
         C            0.862261244988    -0.692484899920    -0.033614605620    12.000000000000
         C            0.862260244988     0.696549100080    -0.033591605620    12.000000000000
         C           -0.313222755012    -1.418940899920    -0.019202605620    12.000000000000
         C           -0.356281755012     1.397601000080    -0.018309805620    12.000000000000
         C            2.943839244988     0.002030100080     0.212835394380    12.000000000000
         C           -2.828074755012    -1.461556899920     0.039257394380    12.000000000000
         C           -2.828075755012     1.465618100080     0.039246394380    12.000000000000
         H           -0.299129755012    -2.505880899920    -0.027091605620     1.007825032230
         H           -0.299130755012     2.509943100080    -0.027080605620     1.007825032230
         H            3.163104244988     0.002021100080     1.290183394380     1.007825032230
         H            3.853614244988     0.002035100080    -0.386853605620     1.007825032230
         H           -2.647320755012    -2.539574899920     0.026418394380     1.007825032230
         H           -3.407830755012    -1.229254899920     0.939489394380     1.007825032230
         H           -3.458568755012    -1.216689899920    -0.822596605620     1.007825032230
         H           -3.407818755012     1.233361100080     0.939500394380     1.007825032230
         H           -2.647323755012     2.543636100080     0.026351394380     1.007825032230
         H           -3.458580755012     1.220705100080    -0.822585605620     1.007825032230

  Basis Set: AUG-CC-PVTZ
    Blend: AUG-CC-PVTZ
  Basis Set: (AUG-CC-PVTZ AUX)
    Blend: AUG-CC-PVTZ-JKFIT
	 Reference Energy          =    -496.5111634101178879 [Eh]
	 Singles Energy            =      -0.0000000000000000 [Eh]
	 Same-Spin Energy          =      -0.5241812339282084 [Eh]
	 Opposite-Spin Energy      =      -1.6323898401194308 [Eh]
	 Correlation Energy        =      -2.1565710740476391 [Eh]
	 Total Energy              =    -498.6677344841655213 [Eh]

	 ================> DF-SCS-MP2 Energies <==================
	-----------------------------------------------------------
	 SCS Same-Spin Scale       =       0.3333333333333333 [-]
	 SCS Opposite-Spin Scale   =       1.2000000000000000 [-]
	 SCS Same-Spin Energy      =      -0.1747270779760695 [Eh]
	 SCS Opposite-Spin Energy  =      -1.9588678081433168 [Eh]
	 SCS Correlation Energy    =      -2.1335948861193863 [Eh]
	 SCS Total Energy          =    -498.6447582962372849 [Eh]
	-----------------------------------------------------------

  Dipole Moment: [D]
     X:    -0.5605      Y:    -0.0011      Z:     0.5602     Total:     0.7925

*** Psi4 exiting successfully. Buy a developer a beer!
