                               Psi4 1.4a3.dev225

  ==> Input File <==

--------------------------------------------------------------------------
#psi4
#
memory 32 gb

molecule  {
0 1
  O        2.2381840    -1.1587810    -0.1175950
  O        2.2535657     1.1130129    -0.1184894
  C       -1.4506090    -0.7058110    -0.0005310
  C       -1.4506100     0.7058110    -0.0005190
  C        0.9370840    -0.6945160    -0.0405820
  C        0.9370830     0.6945180    -0.0405590
  C       -0.2384000    -1.4209720    -0.0261700
  C       -0.2384020     1.4209720    -0.0261890
  C        3.0186620    -0.0000010     0.2058680
  C       -2.7532520    -1.4635880     0.0322900
  C       -2.7532530     1.4635870     0.0322790
  H       -0.2243070    -2.5079120    -0.0340590
  H       -0.2243080     2.5079120    -0.0340480
  H        3.2379270    -0.0000100     1.2832160
  H        3.9284370     0.0000040    -0.3938210
  H       -2.5724980    -2.5416060     0.0194510
  H       -3.3330080    -1.2312860     0.9325220
  H       -3.3837460    -1.2187210    -0.8295640
  H       -3.3329960     1.2313300     0.9325330
  H       -2.5725010     2.5416050     0.0193840
  H       -3.3837580     1.2186740    -0.8295530
units angstrom
no_reorient  #important for SAPT in psi4, default
symmetry c1  #important for SAPT in psi4, default
}

set PROPERTIES_ORIGIN ["COM"]
properties('MP2/aug-cc-pvtz', properties = ['dipole'])
--------------------------------------------------------------------------

    Molecular point group: c1
  Charge       = 0
  Multiplicity = 1
  Basis Set: AUG-CC-PVTZ
    Blend: AUG-CC-PVTZ
  Basis Set: (AUG-CC-PVTZ AUX)
    Blend: AUG-CC-PVTZ-JKFIT

    Orbital Energies [Eh]
    ---------------------

    Doubly Occupied:

       1A    -20.594778     2A    -20.592993     3A    -11.347981
       4A    -11.293127     5A    -11.290871     6A    -11.242911
       7A    -11.241843     8A    -11.240321     9A    -11.237981
      10A    -11.225808    11A    -11.225623    12A     -1.476771
      13A     -1.366053    14A     -1.159730    15A     -1.055608
      16A     -1.039008    17A     -0.953237    18A     -0.944906
      19A     -0.879710    20A     -0.837807    21A     -0.798640
      22A     -0.719934    23A     -0.716260    24A     -0.679410
      25A     -0.647657    26A     -0.617266    27A     -0.614675
      28A     -0.595791    29A     -0.573655    30A     -0.565087
      31A     -0.551842    32A     -0.541123    33A     -0.534161
      34A     -0.532454    35A     -0.528923    36A     -0.501732
      37A     -0.491036    38A     -0.440639    39A     -0.335209
      40A     -0.293245

  @DF-RHF Final Energy:  -496.51507971548659

   => Energetics <=

    Nuclear Repulsion Energy =            602.2868458277609989
    One-Electron Energy =               -1870.5522377932172731
    Two-Electron Energy =                 771.7503122499697383
    Total Energy =                       -496.5150797154865359
  Basis Set: (AUG-CC-PVTZ AUX)
    Blend: AUG-CC-PVTZ-RI
    Molecular point group: c1

    Geometry (in Angstrom), charge = 0, multiplicity = 1:

       Center              X                  Y                   Z               Mass
    ------------   -----------------  -----------------  -----------------  -----------------
         O            2.158278798538    -1.153902767852    -0.110457553699    15.994914619570
         O            2.173660498538     1.117891132148    -0.111351953699    15.994914619570
         C           -1.530514201462    -0.700932767852     0.006606446301    12.000000000000
         C           -1.530515201462     0.710689232148     0.006618446301    12.000000000000
         C            0.857178798538    -0.689637767852    -0.033444553699    12.000000000000
         C            0.857177798538     0.699396232148    -0.033421553699    12.000000000000
         C           -0.318305201462    -1.416093767852    -0.019032553699    12.000000000000
         C           -0.318307201462     1.425850232148    -0.019051553699    12.000000000000
         C            2.938756798538     0.004877232148     0.213005446301    12.000000000000
         C           -2.833157201462    -1.458709767852     0.039427446301    12.000000000000
         C           -2.833158201462     1.468465232148     0.039416446301    12.000000000000
         H           -0.304212201462    -2.503033767852    -0.026921553699     1.007825032230
         H           -0.304213201462     2.512790232148    -0.026910553699     1.007825032230
         H            3.158021798538     0.004868232148     1.290353446301     1.007825032230
         H            3.848531798538     0.004882232148    -0.386683553699     1.007825032230
         H           -2.652403201462    -2.536727767852     0.026588446301     1.007825032230
         H           -3.412913201462    -1.226407767852     0.939659446301     1.007825032230
         H           -3.463651201462    -1.213842767852    -0.822426553699     1.007825032230
         H           -3.412901201462     1.236208232148     0.939670446301     1.007825032230
         H           -2.652406201462     2.546483232148     0.026521446301     1.007825032230
         H           -3.463663201462     1.223552232148    -0.822415553699     1.007825032230

  Basis Set: AUG-CC-PVTZ
    Blend: AUG-CC-PVTZ
  Basis Set: (AUG-CC-PVTZ AUX)
    Blend: AUG-CC-PVTZ-JKFIT
	 Reference Energy          =    -496.5150797154865927 [Eh]
	 Singles Energy            =      -0.0000000000000000 [Eh]
	 Same-Spin Energy          =      -0.5237804203953577 [Eh]
	 Opposite-Spin Energy      =      -1.6309466161554105 [Eh]
	 Correlation Energy        =      -2.1547270365507680 [Eh]
	 Total Energy              =    -498.6698067520373456 [Eh]

	 ================> DF-SCS-MP2 Energies <==================
	-----------------------------------------------------------
	 SCS Same-Spin Scale       =       0.3333333333333333 [-]
	 SCS Opposite-Spin Scale   =       1.2000000000000000 [-]
	 SCS Same-Spin Energy      =      -0.1745934734651192 [Eh]
	 SCS Opposite-Spin Energy  =      -1.9571359393864924 [Eh]
	 SCS Correlation Energy    =      -2.1317294128516115 [Eh]
	 SCS Total Energy          =    -498.6468091283381909 [Eh]
	-----------------------------------------------------------

  Dipole Moment: [D]
     X:    -0.6634      Y:     0.1119      Z:     0.5388     Total:     0.8619

*** Psi4 exiting successfully. Buy a developer a beer!
