                               Psi4 1.4a3.dev225

  ==> Input File <==

--------------------------------------------------------------------------
#psi4
#
memory 32 gb

molecule  {
0 1
  O        2.2381840    -1.1587810    -0.1175950
  O        2.2381840     1.1587830    -0.1175780
  C       -1.4506090    -0.7058110    -0.0005310
  C       -1.4506100     0.7058110    -0.0005190
  C        0.9370840    -0.6945160    -0.0405820
  C        0.9370830     0.6945180    -0.0405590
  C       -0.2384000    -1.4209720    -0.0261700
  C       -0.0661742     1.5225805    -0.0298361
  C        3.0186620    -0.0000010     0.2058680
  C       -2.7532520    -1.4635880     0.0322900
  C       -2.7532530     1.4635870     0.0322790
  H       -0.2243070    -2.5079120    -0.0340590
  H       -0.2243080     2.5079120    -0.0340480
  H        3.2379270    -0.0000100     1.2832160
  H        3.9284370     0.0000040    -0.3938210
  H       -2.5724980    -2.5416060     0.0194510
  H       -3.3330080    -1.2312860     0.9325220
  H       -3.3837460    -1.2187210    -0.8295640
  H       -3.3329960     1.2313300     0.9325330
  H       -2.5725010     2.5416050     0.0193840
  H       -3.3837580     1.2186740    -0.8295530
units angstrom
no_reorient  #important for SAPT in psi4, default
symmetry c1  #important for SAPT in psi4, default
}

set PROPERTIES_ORIGIN ["COM"]
properties('MP2/aug-cc-pvtz', properties = ['dipole'])
--------------------------------------------------------------------------

    Molecular point group: c1
  Charge       = 0
  Multiplicity = 1
  Basis Set: AUG-CC-PVTZ
    Blend: AUG-CC-PVTZ
  Basis Set: (AUG-CC-PVTZ AUX)
    Blend: AUG-CC-PVTZ-JKFIT

    Orbital Energies [Eh]
    ---------------------

    Doubly Occupied:

       1A    -20.598792     2A    -20.589482     3A    -11.350367
       4A    -11.296380     5A    -11.288027     6A    -11.255462
       7A    -11.240343     8A    -11.239217     9A    -11.236560
      10A    -11.226293    11A    -11.225202    12A     -1.467902
      13A     -1.365252    14A     -1.150345    15A     -1.059217
      16A     -1.030410    17A     -0.960115    18A     -0.937736
      19A     -0.881467    20A     -0.845120    21A     -0.788822
      22A     -0.723870    23A     -0.714108    24A     -0.668857
      25A     -0.643785    26A     -0.639563    27A     -0.607212
      28A     -0.593125    29A     -0.574546    30A     -0.561947
      31A     -0.550487    32A     -0.543916    33A     -0.538217
      34A     -0.534013    35A     -0.531230    36A     -0.505185
      37A     -0.465498    38A     -0.433916    39A     -0.338340
      40A     -0.289831

  @DF-RHF Final Energy:  -496.47427236671427

   => Energetics <=

    Nuclear Repulsion Energy =            599.9171817901974464
    One-Electron Energy =               -1865.8025942618808131
    Two-Electron Energy =                 769.4111401049690357
    Total Energy =                       -496.4742723667143309
  Basis Set: (AUG-CC-PVTZ AUX)
    Blend: AUG-CC-PVTZ-RI
    Molecular point group: c1

    Geometry (in Angstrom), charge = 0, multiplicity = 1:

       Center              X                  Y                   Z               Mass
    ------------   -----------------  -----------------  -----------------  -----------------
         O            2.146146274239    -1.166906138371    -0.110263059075    15.994914619570
         O            2.146146274239     1.150657861629    -0.110246059075    15.994914619570
         C           -1.542646725761    -0.713936138371     0.006800940925    12.000000000000
         C           -1.542647725761     0.697685861629     0.006812940925    12.000000000000
         C            0.845046274239    -0.702641138371    -0.033250059075    12.000000000000
         C            0.845045274239     0.686392861629    -0.033227059075    12.000000000000
         C           -0.330437725761    -1.429097138371    -0.018838059075    12.000000000000
         C           -0.158211925761     1.514455361629    -0.022504159075    12.000000000000
         C            2.926624274239    -0.008126138371     0.213199940925    12.000000000000
         C           -2.845289725761    -1.471713138371     0.039621940925    12.000000000000
         C           -2.845290725761     1.455461861629     0.039610940925    12.000000000000
         H           -0.316344725761    -2.516037138371    -0.026727059075     1.007825032230
         H           -0.316345725761     2.499786861629    -0.026716059075     1.007825032230
         H            3.145889274239    -0.008135138371     1.290547940925     1.007825032230
         H            3.836399274239    -0.008121138371    -0.386489059075     1.007825032230
         H           -2.664535725761    -2.549731138371     0.026782940925     1.007825032230
         H           -3.425045725761    -1.239411138371     0.939853940925     1.007825032230
         H           -3.475783725761    -1.226846138371    -0.822232059075     1.007825032230
         H           -3.425033725761     1.223204861629     0.939864940925     1.007825032230
         H           -2.664538725761     2.533479861629     0.026715940925     1.007825032230
         H           -3.475795725761     1.210548861629    -0.822221059075     1.007825032230

  Basis Set: AUG-CC-PVTZ
    Blend: AUG-CC-PVTZ
  Basis Set: (AUG-CC-PVTZ AUX)
    Blend: AUG-CC-PVTZ-JKFIT
	 Reference Energy          =    -496.4742723667142741 [Eh]
	 Singles Energy            =      -0.0000000000000000 [Eh]
	 Same-Spin Energy          =      -0.5235095093013569 [Eh]
	 Opposite-Spin Energy      =      -1.6345113004729390 [Eh]
	 Correlation Energy        =      -2.1580208097742961 [Eh]
	 Total Energy              =    -498.6322931764885880 [Eh]

	 ================> DF-SCS-MP2 Energies <==================
	-----------------------------------------------------------
	 SCS Same-Spin Scale       =       0.3333333333333333 [-]
	 SCS Opposite-Spin Scale   =       1.2000000000000000 [-]
	 SCS Same-Spin Energy      =      -0.1745031697671189 [Eh]
	 SCS Opposite-Spin Energy  =      -1.9614135605675267 [Eh]
	 SCS Correlation Energy    =      -2.1359167303346456 [Eh]
	 SCS Total Energy          =    -498.6101890970489308 [Eh]
	-----------------------------------------------------------

  Dipole Moment: [D]
     X:    -0.6644      Y:    -0.0280      Z:     0.5765     Total:     0.8801

*** Psi4 exiting successfully. Buy a developer a beer!
