                               Psi4 1.4a3.dev225

  ==> Input File <==

--------------------------------------------------------------------------
#psi4
#
memory 32 gb

molecule  {
0 1
  O        2.2381840    -1.1587810    -0.1175950
  O        2.2381840     1.1587830    -0.1175780
  C       -1.4506090    -0.7058110    -0.0005310
  C       -1.4506100     0.7058110    -0.0005190
  C        0.9370840    -0.6945160    -0.0405820
  C        0.9370830     0.6945180    -0.0405590
  C       -0.2384000    -1.4209720    -0.0261700
  C       -0.2384020     1.4209720    -0.0261890
  C        3.0186620    -0.0000010     0.2058680
  C       -2.7532520    -1.4635880     0.0322900
  C       -2.7532530     1.4635870     0.0322790
  H       -0.2243070    -2.5079120    -0.0340590
  H       -0.2243080     2.5079120    -0.0340480
  H        3.2379270    -0.0000100     1.2832160
  H        3.9284370     0.0000040    -0.3938210
  H       -2.5724980    -2.5416060     0.0194510
  H       -3.2421921    -1.2668255     0.9928737
  H       -3.3837460    -1.2187210    -0.8295640
  H       -3.3329960     1.2313300     0.9325330
  H       -2.5725010     2.5416050     0.0193840
  H       -3.3837580     1.2186740    -0.8295530
units angstrom
no_reorient  #important for SAPT in psi4, default
symmetry c1  #important for SAPT in psi4, default
}

set PROPERTIES_ORIGIN ["COM"]
properties('MP2/aug-cc-pvtz', properties = ['dipole'])
--------------------------------------------------------------------------

    Molecular point group: c1
  Charge       = 0
  Multiplicity = 1
  Basis Set: AUG-CC-PVTZ
    Blend: AUG-CC-PVTZ
  Basis Set: (AUG-CC-PVTZ AUX)
    Blend: AUG-CC-PVTZ-JKFIT

    Orbital Energies [Eh]
    ---------------------

    Doubly Occupied:

       1A    -20.595916     2A    -20.595842     3A    -11.352169
       4A    -11.291821     5A    -11.290544     6A    -11.241802
       7A    -11.240673     8A    -11.238091     9A    -11.237755
      10A    -11.225428    11A    -11.225012    12A     -1.466983
      13A     -1.364467    14A     -1.158316    15A     -1.053251
      16A     -1.038301    17A     -0.952409    18A     -0.942642
      19A     -0.882060    20A     -0.836702    21A     -0.794911
      22A     -0.715758    23A     -0.712366    24A     -0.674124
      25A     -0.647982    26A     -0.614748    27A     -0.609952
      28A     -0.600506    29A     -0.573919    30A     -0.564226
      31A     -0.556756    32A     -0.540102    33A     -0.534568
      34A     -0.532052    35A     -0.528986    36A     -0.497450
      37A     -0.491041    38A     -0.441784    39A     -0.334208
      40A     -0.293056

  @DF-RHF Final Energy:  -496.51313298757918

   => Energetics <=

    Nuclear Repulsion Energy =            601.3662558825129736
    One-Electron Energy =               -1868.7814239618303418
    Two-Electron Energy =                 770.9020350917382984
    Total Energy =                       -496.5131329875791835
  Basis Set: (AUG-CC-PVTZ AUX)
    Blend: AUG-CC-PVTZ-RI
    Molecular point group: c1

    Geometry (in Angstrom), charge = 0, multiplicity = 1:

       Center              X                  Y                   Z               Mass
    ------------   -----------------  -----------------  -----------------  -----------------
         O            2.159308347536    -1.158542470352    -0.110960003783    15.994914619570
         O            2.159308347536     1.159021529648    -0.110943003783    15.994914619570
         C           -1.529484652464    -0.705572470352     0.006103996217    12.000000000000
         C           -1.529485652464     0.706049529648     0.006115996217    12.000000000000
         C            0.858208347536    -0.694277470352    -0.033947003783    12.000000000000
         C            0.858207347536     0.694756529648    -0.033924003783    12.000000000000
         C           -0.317275652464    -1.420733470352    -0.019535003783    12.000000000000
         C           -0.317277652464     1.421210529648    -0.019554003783    12.000000000000
         C            2.939786347536     0.000237529648     0.212502996217    12.000000000000
         C           -2.832127652464    -1.463349470352     0.038924996217    12.000000000000
         C           -2.832128652464     1.463825529648     0.038913996217    12.000000000000
         H           -0.303182652464    -2.507673470352    -0.027424003783     1.007825032230
         H           -0.303183652464     2.508150529648    -0.027413003783     1.007825032230
         H            3.159051347536     0.000228529648     1.289850996217     1.007825032230
         H            3.849561347536     0.000242529648    -0.387186003783     1.007825032230
         H           -2.651373652464    -2.541367470352     0.026085996217     1.007825032230
         H           -3.321067752464    -1.266586970352     0.999508696217     1.007825032230
         H           -3.462621652464    -1.218482470352    -0.822929003783     1.007825032230
         H           -3.411871652464     1.231568529648     0.939167996217     1.007825032230
         H           -2.651376652464     2.541843529648     0.026018996217     1.007825032230
         H           -3.462633652464     1.218912529648    -0.822918003783     1.007825032230

  Basis Set: AUG-CC-PVTZ
    Blend: AUG-CC-PVTZ
  Basis Set: (AUG-CC-PVTZ AUX)
    Blend: AUG-CC-PVTZ-JKFIT
	 Reference Energy          =    -496.5131329875791835 [Eh]
	 Singles Energy            =      -0.0000000000000000 [Eh]
	 Same-Spin Energy          =      -0.5240778755575932 [Eh]
	 Opposite-Spin Energy      =      -1.6323729947772991 [Eh]
	 Correlation Energy        =      -2.1564508703348926 [Eh]
	 Total Energy              =    -498.6695838579140627 [Eh]

	 ================> DF-SCS-MP2 Energies <==================
	-----------------------------------------------------------
	 SCS Same-Spin Scale       =       0.3333333333333333 [-]
	 SCS Opposite-Spin Scale   =       1.2000000000000000 [-]
	 SCS Same-Spin Energy      =      -0.1746926251858644 [Eh]
	 SCS Opposite-Spin Energy  =      -1.9588475937327590 [Eh]
	 SCS Correlation Energy    =      -2.1335402189186232 [Eh]
	 SCS Total Energy          =    -498.6466732064977805 [Eh]
	-----------------------------------------------------------

  Dipole Moment: [D]
     X:    -0.5622      Y:    -0.0295      Z:     0.5767     Total:     0.8060

*** Psi4 exiting successfully. Buy a developer a beer!
