                               Psi4 1.4a3.dev225

  ==> Input File <==

--------------------------------------------------------------------------
#psi4
#
memory 32 gb

molecule  {
0 1
  O        2.2381840    -1.1587810    -0.1175950
  O        2.2381840     1.1587830    -0.1175780
  C       -1.4506090    -0.7058110    -0.0005310
  C       -1.4506100     0.7058110    -0.0005190
  C        0.9182765    -0.6878050    -0.0394688
  C        0.9370830     0.6945180    -0.0405590
  C       -0.2384000    -1.4209720    -0.0261700
  C       -0.2384020     1.4209720    -0.0261890
  C        3.0186620    -0.0000010     0.2058680
  C       -2.7532520    -1.4635880     0.0322900
  C       -2.7532530     1.4635870     0.0322790
  H       -0.2243070    -2.5079120    -0.0340590
  H       -0.2243080     2.5079120    -0.0340480
  H        3.2379270    -0.0000100     1.2832160
  H        3.9284370     0.0000040    -0.3938210
  H       -2.5724980    -2.5416060     0.0194510
  H       -3.3330080    -1.2312860     0.9325220
  H       -3.3837460    -1.2187210    -0.8295640
  H       -3.3329960     1.2313300     0.9325330
  H       -2.5725010     2.5416050     0.0193840
  H       -3.3837580     1.2186740    -0.8295530
units angstrom
no_reorient  #important for SAPT in psi4, default
symmetry c1  #important for SAPT in psi4, default
}

set PROPERTIES_ORIGIN ["COM"]
properties('MP2/aug-cc-pvtz', properties = ['dipole'])
--------------------------------------------------------------------------

    Molecular point group: c1
  Charge       = 0
  Multiplicity = 1
  Basis Set: AUG-CC-PVTZ
    Blend: AUG-CC-PVTZ
  Basis Set: (AUG-CC-PVTZ AUX)
    Blend: AUG-CC-PVTZ-JKFIT

    Orbital Energies [Eh]
    ---------------------

    Doubly Occupied:

       1A    -20.596238     2A    -20.593178     3A    -11.350770
       4A    -11.292054     5A    -11.289867     6A    -11.242997
       7A    -11.241852     8A    -11.238708     9A    -11.238077
      10A    -11.225843    11A    -11.225744    12A     -1.462925
      13A     -1.359697    14A     -1.160985    15A     -1.054453
      16A     -1.039924    17A     -0.953700    18A     -0.941775
      19A     -0.882269    20A     -0.837828    21A     -0.794203
      22A     -0.715214    23A     -0.711209    24A     -0.673107
      25A     -0.648124    26A     -0.616918    27A     -0.610916
      28A     -0.595993    29A     -0.571256    30A     -0.565020
      31A     -0.551950    32A     -0.541258    33A     -0.534484
      34A     -0.532585    35A     -0.530294    36A     -0.501093
      37A     -0.492546    38A     -0.442040    39A     -0.336020
      40A     -0.295175

  @DF-RHF Final Energy:  -496.51377981134169

   => Energetics <=

    Nuclear Repulsion Energy =            601.3434593586795245
    One-Electron Energy =               -1868.7379021480855954
    Two-Electron Energy =                 770.8806629780644926
    Total Energy =                       -496.5137798113416920
  Basis Set: (AUG-CC-PVTZ AUX)
    Blend: AUG-CC-PVTZ-RI
    Molecular point group: c1

    Geometry (in Angstrom), charge = 0, multiplicity = 1:

       Center              X                  Y                   Z               Mass
    ------------   -----------------  -----------------  -----------------  -----------------
         O            2.161422165066    -1.159317782451    -0.110643710311    15.994914619570
         O            2.161422165066     1.158246217549    -0.110626710311    15.994914619570
         C           -1.527370834934    -0.706347782451     0.006420289689    12.000000000000
         C           -1.527371834934     0.705274217549     0.006432289689    12.000000000000
         C            0.841514665066    -0.688341782451    -0.032517510311    12.000000000000
         C            0.860321165066     0.693981217549    -0.033607710311    12.000000000000
         C           -0.315161834934    -1.421508782451    -0.019218710311    12.000000000000
         C           -0.315163834934     1.420435217549    -0.019237710311    12.000000000000
         C            2.941900165066    -0.000537782451     0.212819289689    12.000000000000
         C           -2.830013834934    -1.464124782451     0.039241289689    12.000000000000
         C           -2.830014834934     1.463050217549     0.039230289689    12.000000000000
         H           -0.301068834934    -2.508448782451    -0.027107710311     1.007825032230
         H           -0.301069834934     2.507375217549    -0.027096710311     1.007825032230
         H            3.161165165066    -0.000546782451     1.290167289689     1.007825032230
         H            3.851675165066    -0.000532782451    -0.386869710311     1.007825032230
         H           -2.649259834934    -2.542142782451     0.026402289689     1.007825032230
         H           -3.409769834934    -1.231822782451     0.939473289689     1.007825032230
         H           -3.460507834934    -1.219257782451    -0.822612710311     1.007825032230
         H           -3.409757834934     1.230793217549     0.939484289689     1.007825032230
         H           -2.649262834934     2.541068217549     0.026335289689     1.007825032230
         H           -3.460519834934     1.218137217549    -0.822601710311     1.007825032230

  Basis Set: AUG-CC-PVTZ
    Blend: AUG-CC-PVTZ
  Basis Set: (AUG-CC-PVTZ AUX)
    Blend: AUG-CC-PVTZ-JKFIT
	 Reference Energy          =    -496.5137798113416920 [Eh]
	 Singles Energy            =      -0.0000000000000000 [Eh]
	 Same-Spin Energy          =      -0.5240175735596514 [Eh]
	 Opposite-Spin Energy      =      -1.6323551698624097 [Eh]
	 Correlation Energy        =      -2.1563727434220610 [Eh]
	 Total Energy              =    -498.6701525547637743 [Eh]

	 ================> DF-SCS-MP2 Energies <==================
	-----------------------------------------------------------
	 SCS Same-Spin Scale       =       0.3333333333333333 [-]
	 SCS Opposite-Spin Scale   =       1.2000000000000000 [-]
	 SCS Same-Spin Energy      =      -0.1746725245198838 [Eh]
	 SCS Opposite-Spin Energy  =      -1.9588262038348916 [Eh]
	 SCS Correlation Energy    =      -2.1334987283547755 [Eh]
	 SCS Total Energy          =    -498.6472785396964582 [Eh]
	-----------------------------------------------------------

  Dipole Moment: [D]
     X:    -0.6873      Y:     0.0194      Z:     0.5684     Total:     0.8921

*** Psi4 exiting successfully. Buy a developer a beer!
