                               Psi4 1.4a3.dev225

  ==> Input File <==

--------------------------------------------------------------------------
#psi4
#
memory 32 gb

molecule  {
0 1
  O        2.2381840    -1.1587810    -0.1175950
  O        2.2381840     1.1587830    -0.1175780
  C       -1.4506090    -0.7058110    -0.0005310
  C       -1.4506100     0.7058110    -0.0005190
  C        0.9370840    -0.6945160    -0.0405820
  C        0.9370830     0.6945180    -0.0405590
  C       -0.2384000    -1.4209720    -0.0261700
  C       -0.2510629     1.4420236    -0.0258235
  C        3.0186620    -0.0000010     0.2058680
  C       -2.7532520    -1.4635880     0.0322900
  C       -2.7532530     1.4635870     0.0322790
  H       -0.2243070    -2.5079120    -0.0340590
  H       -0.2243080     2.5079120    -0.0340480
  H        3.2379270    -0.0000100     1.2832160
  H        3.9284370     0.0000040    -0.3938210
  H       -2.5724980    -2.5416060     0.0194510
  H       -3.3330080    -1.2312860     0.9325220
  H       -3.3837460    -1.2187210    -0.8295640
  H       -3.3329960     1.2313300     0.9325330
  H       -2.5725010     2.5416050     0.0193840
  H       -3.3837580     1.2186740    -0.8295530
units angstrom
no_reorient  #important for SAPT in psi4, default
symmetry c1  #important for SAPT in psi4, default
}

set PROPERTIES_ORIGIN ["COM"]
properties('MP2/aug-cc-pvtz', properties = ['dipole'])
--------------------------------------------------------------------------

    Molecular point group: c1
  Charge       = 0
  Multiplicity = 1
  Basis Set: AUG-CC-PVTZ
    Blend: AUG-CC-PVTZ
  Basis Set: (AUG-CC-PVTZ AUX)
    Blend: AUG-CC-PVTZ-JKFIT

    Orbital Energies [Eh]
    ---------------------

    Doubly Occupied:

       1A    -20.596033     2A    -20.595768     3A    -11.352161
       4A    -11.293938     5A    -11.290887     6A    -11.242774
       7A    -11.241544     8A    -11.239210     9A    -11.239017
      10A    -11.225467    11A    -11.224806    12A     -1.466961
      13A     -1.364456    14A     -1.156977    15A     -1.052257
      16A     -1.038257    17A     -0.951173    18A     -0.942567
      19A     -0.882146    20A     -0.838132    21A     -0.794822
      22A     -0.715890    23A     -0.712495    24A     -0.674995
      25A     -0.648772    26A     -0.618571    27A     -0.610823
      28A     -0.595197    29A     -0.573857    30A     -0.565578
      31A     -0.551454    32A     -0.541200    33A     -0.534927
      34A     -0.532768    35A     -0.529185    36A     -0.499512
      37A     -0.493549    38A     -0.441127    39A     -0.333332
      40A     -0.292642

  @DF-RHF Final Energy:  -496.51308972022690

   => Energetics <=

    Nuclear Repulsion Energy =            600.8545274342773155
    One-Electron Energy =               -1867.7447798794960363
    Two-Electron Energy =                 770.3771627249918765
    Total Energy =                       -496.5130897202268443
  Basis Set: (AUG-CC-PVTZ AUX)
    Blend: AUG-CC-PVTZ-RI
    Molecular point group: c1

    Geometry (in Angstrom), charge = 0, multiplicity = 1:

       Center              X                  Y                   Z               Mass
    ------------   -----------------  -----------------  -----------------  -----------------
         O            2.160930660142    -1.160464509993    -0.110583921447    15.994914619570
         O            2.160930660142     1.157099490007    -0.110566921447    15.994914619570
         C           -1.527862339858    -0.707494509993     0.006480078553    12.000000000000
         C           -1.527863339858     0.704127490007     0.006492078553    12.000000000000
         C            0.859830660142    -0.696199509993    -0.033570921447    12.000000000000
         C            0.859829660142     0.692834490007    -0.033547921447    12.000000000000
         C           -0.315653339858    -1.422655509993    -0.019158921447    12.000000000000
         C           -0.328316239858     1.440340090007    -0.018812421447    12.000000000000
         C            2.941408660142    -0.001684509993     0.212879078553    12.000000000000
         C           -2.830505339858    -1.465271509993     0.039301078553    12.000000000000
         C           -2.830506339858     1.461903490007     0.039290078553    12.000000000000
         H           -0.301560339858    -2.509595509993    -0.027047921447     1.007825032230
         H           -0.301561339858     2.506228490007    -0.027036921447     1.007825032230
         H            3.160673660142    -0.001693509993     1.290227078553     1.007825032230
         H            3.851183660142    -0.001679509993    -0.386809921447     1.007825032230
         H           -2.649751339858    -2.543289509993     0.026462078553     1.007825032230
         H           -3.410261339858    -1.232969509993     0.939533078553     1.007825032230
         H           -3.460999339858    -1.220404509993    -0.822552921447     1.007825032230
         H           -3.410249339858     1.229646490007     0.939544078553     1.007825032230
         H           -2.649754339858     2.539921490007     0.026395078553     1.007825032230
         H           -3.461011339858     1.216990490007    -0.822541921447     1.007825032230

  Basis Set: AUG-CC-PVTZ
    Blend: AUG-CC-PVTZ
  Basis Set: (AUG-CC-PVTZ AUX)
    Blend: AUG-CC-PVTZ-JKFIT
	 Reference Energy          =    -496.5130897202269011 [Eh]
	 Singles Energy            =      -0.0000000000000000 [Eh]
	 Same-Spin Energy          =      -0.5240960071778328 [Eh]
	 Opposite-Spin Energy      =      -1.6324781219330278 [Eh]
	 Correlation Energy        =      -2.1565741291108607 [Eh]
	 Total Energy              =    -498.6696638493377804 [Eh]

	 ================> DF-SCS-MP2 Energies <==================
	-----------------------------------------------------------
	 SCS Same-Spin Scale       =       0.3333333333333333 [-]
	 SCS Opposite-Spin Scale   =       1.2000000000000000 [-]
	 SCS Same-Spin Energy      =      -0.1746986690592776 [Eh]
	 SCS Opposite-Spin Energy  =      -1.9589737463196333 [Eh]
	 SCS Correlation Energy    =      -2.1336724153789111 [Eh]
	 SCS Total Energy          =    -498.6467621356057975 [Eh]
	-----------------------------------------------------------

  Dipole Moment: [D]
     X:    -0.5628      Y:     0.0051      Z:     0.5612     Total:     0.7948

*** Psi4 exiting successfully. Buy a developer a beer!
