                               Psi4 1.4a3.dev225

  ==> Input File <==

--------------------------------------------------------------------------
#psi4
#
memory 32 gb

molecule  {
0 1
  O        2.2381840    -1.1587810    -0.1175950
  O        2.2381840     1.1587830    -0.1175780
  C       -1.4506090    -0.7058110    -0.0005310
  C       -1.4506100     0.7058110    -0.0005190
  C        0.9370840    -0.6945160    -0.0405820
  C        0.9128428     0.6943064    -0.0402616
  C       -0.2384000    -1.4209720    -0.0261700
  C       -0.2384020     1.4209720    -0.0261890
  C        3.0186620    -0.0000010     0.2058680
  C       -2.7532520    -1.4635880     0.0322900
  C       -2.7532530     1.4635870     0.0322790
  H       -0.2243070    -2.5079120    -0.0340590
  H       -0.2243080     2.5079120    -0.0340480
  H        3.2379270    -0.0000100     1.2832160
  H        3.9284370     0.0000040    -0.3938210
  H       -2.5724980    -2.5416060     0.0194510
  H       -3.3330080    -1.2312860     0.9325220
  H       -3.3837460    -1.2187210    -0.8295640
  H       -3.3329960     1.2313300     0.9325330
  H       -2.5725010     2.5416050     0.0193840
  H       -3.3837580     1.2186740    -0.8295530
units angstrom
no_reorient  #important for SAPT in psi4, default
symmetry c1  #important for SAPT in psi4, default
}

set PROPERTIES_ORIGIN ["COM"]
properties('MP2/aug-cc-pvtz', properties = ['dipole'])
--------------------------------------------------------------------------

    Molecular point group: c1
  Charge       = 0
  Multiplicity = 1
  Basis Set: AUG-CC-PVTZ
    Blend: AUG-CC-PVTZ
  Basis Set: (AUG-CC-PVTZ AUX)
    Blend: AUG-CC-PVTZ-JKFIT

    Orbital Energies [Eh]
    ---------------------

    Doubly Occupied:

       1A    -20.596674     2A    -20.592802     3A    -11.350822
       4A    -11.292980     5A    -11.290170     6A    -11.242906
       7A    -11.241730     8A    -11.238527     9A    -11.237294
      10A    -11.225818    11A    -11.225708    12A     -1.462158
      13A     -1.359166    14A     -1.161297    15A     -1.054190
      16A     -1.040569    17A     -0.954400    18A     -0.941662
      19A     -0.881205    20A     -0.837621    21A     -0.794356
      22A     -0.715006    23A     -0.710968    24A     -0.673595
      25A     -0.648139    26A     -0.617540    27A     -0.611101
      28A     -0.595997    29A     -0.571115    30A     -0.564187
      31A     -0.551895    32A     -0.541214    33A     -0.534394
      34A     -0.532280    35A     -0.530232    36A     -0.501363
      37A     -0.491896    38A     -0.442161    39A     -0.337060
      40A     -0.294656

  @DF-RHF Final Energy:  -496.51341414830711

   => Energetics <=

    Nuclear Repulsion Energy =            601.2801100826810625
    One-Electron Energy =               -1868.6133386365647766
    Two-Electron Energy =                 770.8198144055764942
    Total Energy =                       -496.5134141483071062
  Basis Set: (AUG-CC-PVTZ AUX)
    Blend: AUG-CC-PVTZ-RI
    Molecular point group: c1

    Geometry (in Angstrom), charge = 0, multiplicity = 1:

       Center              X                  Y                   Z               Mass
    ------------   -----------------  -----------------  -----------------  -----------------
         O            2.161856583899    -1.158764225690    -0.110578475918    15.994914619570
         O            2.161856583899     1.158799774310    -0.110561475918    15.994914619570
         C           -1.526936416101    -0.705794225690     0.006485524082    12.000000000000
         C           -1.526937416101     0.705827774310     0.006497524082    12.000000000000
         C            0.860756583899    -0.694499225690    -0.033565475918    12.000000000000
         C            0.836515383899     0.694323174310    -0.033245075918    12.000000000000
         C           -0.314727416101    -1.420955225690    -0.019153475918    12.000000000000
         C           -0.314729416101     1.420988774310    -0.019172475918    12.000000000000
         C            2.942334583899     0.000015774310     0.212884524082    12.000000000000
         C           -2.829579416101    -1.463571225690     0.039306524082    12.000000000000
         C           -2.829580416101     1.463603774310     0.039295524082    12.000000000000
         H           -0.300634416101    -2.507895225690    -0.027042475918     1.007825032230
         H           -0.300635416101     2.507928774310    -0.027031475918     1.007825032230
         H            3.161599583899     0.000006774310     1.290232524082     1.007825032230
         H            3.852109583899     0.000020774310    -0.386804475918     1.007825032230
         H           -2.648825416101    -2.541589225690     0.026467524082     1.007825032230
         H           -3.409335416101    -1.231269225690     0.939538524082     1.007825032230
         H           -3.460073416101    -1.218704225690    -0.822547475918     1.007825032230
         H           -3.409323416101     1.231346774310     0.939549524082     1.007825032230
         H           -2.648828416101     2.541621774310     0.026400524082     1.007825032230
         H           -3.460085416101     1.218690774310    -0.822536475918     1.007825032230

  Basis Set: AUG-CC-PVTZ
    Blend: AUG-CC-PVTZ
  Basis Set: (AUG-CC-PVTZ AUX)
    Blend: AUG-CC-PVTZ-JKFIT
	 Reference Energy          =    -496.5134141483071062 [Eh]
	 Singles Energy            =      -0.0000000000000000 [Eh]
	 Same-Spin Energy          =      -0.5240058343720602 [Eh]
	 Opposite-Spin Energy      =      -1.6324175499314655 [Eh]
	 Correlation Energy        =      -2.1564233843035256 [Eh]
	 Total Energy              =    -498.6698375326106429 [Eh]

	 ================> DF-SCS-MP2 Energies <==================
	-----------------------------------------------------------
	 SCS Same-Spin Scale       =       0.3333333333333333 [-]
	 SCS Opposite-Spin Scale   =       1.2000000000000000 [-]
	 SCS Same-Spin Energy      =      -0.1746686114573534 [Eh]
	 SCS Opposite-Spin Energy  =      -1.9589010599177585 [Eh]
	 SCS Correlation Energy    =      -2.1335696713751120 [Eh]
	 SCS Total Energy          =    -498.6469838196821911 [Eh]
	-----------------------------------------------------------

  Dipole Moment: [D]
     X:    -0.6907      Y:    -0.0211      Z:     0.5692     Total:     0.8952

*** Psi4 exiting successfully. Buy a developer a beer!
