                               Psi4 1.4a3.dev225

  ==> Input File <==

--------------------------------------------------------------------------
#psi4
#
memory 32 gb

molecule  {
0 1
  O        2.2381840    -1.1587810    -0.1175950
  O        2.2381840     1.1587830    -0.1175780
  C       -1.4506090    -0.7058110    -0.0005310
  C       -1.4506100     0.7058110    -0.0005190
  C        0.9370840    -0.6945160    -0.0405820
  C        0.9370830     0.6945180    -0.0405590
  C       -0.2384000    -1.4209720    -0.0261700
  C       -0.2384020     1.4209720    -0.0261890
  C        3.0186620    -0.0000010     0.2058680
  C       -2.7532520    -1.4635880     0.0322900
  C       -2.7532530     1.4635870     0.0322790
  H       -0.2243070    -2.5079120    -0.0340590
  H       -0.2243080     2.5079120    -0.0340480
  H        3.2379270    -0.0000100     1.2832160
  H        3.9284370     0.0000040    -0.3938210
  H       -2.6112668    -2.5461870     0.0850080
  H       -3.3330080    -1.2312860     0.9325220
  H       -3.3837460    -1.2187210    -0.8295640
  H       -3.3329960     1.2313300     0.9325330
  H       -2.5725010     2.5416050     0.0193840
  H       -3.3837580     1.2186740    -0.8295530
units angstrom
no_reorient  #important for SAPT in psi4, default
symmetry c1  #important for SAPT in psi4, default
}

set PROPERTIES_ORIGIN ["COM"]
properties('MP2/aug-cc-pvtz', properties = ['dipole'])
--------------------------------------------------------------------------

    Molecular point group: c1
  Charge       = 0
  Multiplicity = 1
  Basis Set: AUG-CC-PVTZ
    Blend: AUG-CC-PVTZ
  Basis Set: (AUG-CC-PVTZ AUX)
    Blend: AUG-CC-PVTZ-JKFIT

    Orbital Energies [Eh]
    ---------------------

    Doubly Occupied:

       1A    -20.596120     2A    -20.596068     3A    -11.352330
       4A    -11.292135     5A    -11.290859     6A    -11.242663
       7A    -11.241543     8A    -11.238353     9A    -11.238254
      10A    -11.225235    11A    -11.225218    12A     -1.467195
      13A     -1.364676    14A     -1.158499    15A     -1.053200
      16A     -1.038116    17A     -0.952364    18A     -0.943036
      19A     -0.882660    20A     -0.837075    21A     -0.795842
      22A     -0.716096    23A     -0.712558    24A     -0.675364
      25A     -0.648676    26A     -0.614901    27A     -0.610575
      28A     -0.595555    29A     -0.574100    30A     -0.566336
      31A     -0.552394    32A     -0.540492    33A     -0.534707
      34A     -0.531827    35A     -0.530460    36A     -0.500358
      37A     -0.491755    38A     -0.441699    39A     -0.334374
      40A     -0.293300

  @DF-RHF Final Energy:  -496.51383457264416

   => Energetics <=

    Nuclear Repulsion Energy =            601.2145078003745766
    One-Electron Energy =               -1868.4627591801590825
    Two-Electron Energy =                 770.7344168071404056
    Total Energy =                       -496.5138345726441003
  Basis Set: (AUG-CC-PVTZ AUX)
    Blend: AUG-CC-PVTZ-RI
    Molecular point group: c1

    Geometry (in Angstrom), charge = 0, multiplicity = 1:

       Center              X                  Y                   Z               Mass
    ------------   -----------------  -----------------  -----------------  -----------------
         O            2.160178610584    -1.158750380998    -0.110994961461    15.994914619570
         O            2.160178610584     1.158813619002    -0.110977961461    15.994914619570
         C           -1.528614389416    -0.705780380998     0.006069038539    12.000000000000
         C           -1.528615389416     0.705841619002     0.006081038539    12.000000000000
         C            0.859078610584    -0.694485380998    -0.033981961461    12.000000000000
         C            0.859077610584     0.694548619002    -0.033958961461    12.000000000000
         C           -0.316405389416    -1.420941380998    -0.019569961461    12.000000000000
         C           -0.316407389416     1.421002619002    -0.019588961461    12.000000000000
         C            2.940656610584     0.000029619002     0.212468038539    12.000000000000
         C           -2.831257389416    -1.463557380998     0.038890038539    12.000000000000
         C           -2.831258389416     1.463617619002     0.038879038539    12.000000000000
         H           -0.302312389416    -2.507881380998    -0.027458961461     1.007825032230
         H           -0.302313389416     2.507942619002    -0.027447961461     1.007825032230
         H            3.159921610584     0.000020619002     1.289816038539     1.007825032230
         H            3.850431610584     0.000034619002    -0.387220961461     1.007825032230
         H           -2.689272189416    -2.546156380998     0.091608038539     1.007825032230
         H           -3.411013389416    -1.231255380998     0.939122038539     1.007825032230
         H           -3.461751389416    -1.218690380998    -0.822963961461     1.007825032230
         H           -3.411001389416     1.231360619002     0.939133038539     1.007825032230
         H           -2.650506389416     2.541635619002     0.025984038539     1.007825032230
         H           -3.461763389416     1.218704619002    -0.822952961461     1.007825032230

  Basis Set: AUG-CC-PVTZ
    Blend: AUG-CC-PVTZ
  Basis Set: (AUG-CC-PVTZ AUX)
    Blend: AUG-CC-PVTZ-JKFIT
	 Reference Energy          =    -496.5138345726441571 [Eh]
	 Singles Energy            =      -0.0000000000000000 [Eh]
	 Same-Spin Energy          =      -0.5240416975671156 [Eh]
	 Opposite-Spin Energy      =      -1.6322313163065427 [Eh]
	 Correlation Energy        =      -2.1562730138736583 [Eh]
	 Total Energy              =    -498.6701075865178154 [Eh]

	 ================> DF-SCS-MP2 Energies <==================
	-----------------------------------------------------------
	 SCS Same-Spin Scale       =       0.3333333333333333 [-]
	 SCS Opposite-Spin Scale   =       1.2000000000000000 [-]
	 SCS Same-Spin Energy      =      -0.1746805658557052 [Eh]
	 SCS Opposite-Spin Energy  =      -1.9586775795678513 [Eh]
	 SCS Correlation Energy    =      -2.1333581454235566 [Eh]
	 SCS Total Energy          =    -498.6471927180676857 [Eh]
	-----------------------------------------------------------

  Dipole Moment: [D]
     X:    -0.5765      Y:    -0.0102      Z:     0.5877     Total:     0.8233

*** Psi4 exiting successfully. Buy a developer a beer!
