                               Psi4 1.4a3.dev225

  ==> Input File <==

--------------------------------------------------------------------------
#psi4
#
memory 32 gb

molecule  {
0 1
  O        2.2381840    -1.1587810    -0.1175950
  O        2.2381840     1.1587830    -0.1175780
  C       -1.4506090    -0.7058110    -0.0005310
  C       -1.4506100     0.7058110    -0.0005190
  C        0.9370840    -0.6945160    -0.0405820
  C        0.9370830     0.6945180    -0.0405590
  C       -0.2384000    -1.4209720    -0.0261700
  C       -0.3245159     1.3701678    -0.0243654
  C        3.0186620    -0.0000010     0.2058680
  C       -2.7532520    -1.4635880     0.0322900
  C       -2.7532530     1.4635870     0.0322790
  H       -0.2243070    -2.5079120    -0.0340590
  H       -0.2243080     2.5079120    -0.0340480
  H        3.2379270    -0.0000100     1.2832160
  H        3.9284370     0.0000040    -0.3938210
  H       -2.5724980    -2.5416060     0.0194510
  H       -3.3330080    -1.2312860     0.9325220
  H       -3.3837460    -1.2187210    -0.8295640
  H       -3.3329960     1.2313300     0.9325330
  H       -2.5725010     2.5416050     0.0193840
  H       -3.3837580     1.2186740    -0.8295530
units angstrom
no_reorient  #important for SAPT in psi4, default
symmetry c1  #important for SAPT in psi4, default
}

set PROPERTIES_ORIGIN ["COM"]
properties('MP2/aug-cc-pvtz', properties = ['dipole'])
--------------------------------------------------------------------------

    Molecular point group: c1
  Charge       = 0
  Multiplicity = 1
  Basis Set: AUG-CC-PVTZ
    Blend: AUG-CC-PVTZ
  Basis Set: (AUG-CC-PVTZ AUX)
    Blend: AUG-CC-PVTZ-JKFIT

    Orbital Energies [Eh]
    ---------------------

    Doubly Occupied:

       1A    -20.598376     2A    -20.594401     3A    -11.352764
       4A    -11.293467     5A    -11.288686     6A    -11.243179
       7A    -11.238757     8A    -11.238166     9A    -11.230809
      10A    -11.225606    11A    -11.225064    12A     -1.466421
      13A     -1.364081    14A     -1.166274    15A     -1.055037
      16A     -1.041105    17A     -0.948325    18A     -0.945933
      19A     -0.884192    20A     -0.831407    21A     -0.800537
      22A     -0.716644    23A     -0.713269    24A     -0.677052
      25A     -0.648893    26A     -0.612708    27A     -0.603195
      28A     -0.597412    29A     -0.573643    30A     -0.568549
      31A     -0.552496    32A     -0.541136    33A     -0.534863
      34A     -0.531604    35A     -0.529387    36A     -0.507100
      37A     -0.477739    38A     -0.447726    39A     -0.340459
      40A     -0.290926

  @DF-RHF Final Energy:  -496.50085983819565

   => Energetics <=

    Nuclear Repulsion Energy =            602.1594665028962936
    One-Electron Energy =               -1870.3258798496221971
    Two-Electron Energy =                 771.6655535085302517
    Total Energy =                       -496.5008598381956517
  Basis Set: (AUG-CC-PVTZ AUX)
    Blend: AUG-CC-PVTZ-RI
    Molecular point group: c1

    Geometry (in Angstrom), charge = 0, multiplicity = 1:

       Center              X                  Y                   Z               Mass
    ------------   -----------------  -----------------  -----------------  -----------------
         O            2.166804234340    -1.154718653829    -0.110700516528    15.994914619570
         O            2.166804234340     1.162845346171    -0.110683516528    15.994914619570
         C           -1.521988765660    -0.701748653829     0.006363483472    12.000000000000
         C           -1.521989765660     0.709873346171     0.006375483472    12.000000000000
         C            0.865704234340    -0.690453653829    -0.033687516528    12.000000000000
         C            0.865703234340     0.698580346171    -0.033664516528    12.000000000000
         C           -0.309779765660    -1.416909653829    -0.019275516528    12.000000000000
         C           -0.395895665660     1.374230146171    -0.017470916528    12.000000000000
         C            2.947282234340     0.004061346171     0.212762483472    12.000000000000
         C           -2.824631765660    -1.459525653829     0.039184483472    12.000000000000
         C           -2.824632765660     1.467649346171     0.039173483472    12.000000000000
         H           -0.295686765660    -2.503849653829    -0.027164516528     1.007825032230
         H           -0.295687765660     2.511974346171    -0.027153516528     1.007825032230
         H            3.166547234340     0.004052346171     1.290110483472     1.007825032230
         H            3.857057234340     0.004066346171    -0.386926516528     1.007825032230
         H           -2.643877765660    -2.537543653829     0.026345483472     1.007825032230
         H           -3.404387765660    -1.227223653829     0.939416483472     1.007825032230
         H           -3.455125765660    -1.214658653829    -0.822669516528     1.007825032230
         H           -3.404375765660     1.235392346171     0.939427483472     1.007825032230
         H           -2.643880765660     2.545667346171     0.026278483472     1.007825032230
         H           -3.455137765660     1.222736346171    -0.822658516528     1.007825032230

  Basis Set: AUG-CC-PVTZ
    Blend: AUG-CC-PVTZ
  Basis Set: (AUG-CC-PVTZ AUX)
    Blend: AUG-CC-PVTZ-JKFIT
	 Reference Energy          =    -496.5008598381956517 [Eh]
	 Singles Energy            =      -0.0000000000000000 [Eh]
	 Same-Spin Energy          =      -0.5242593035972664 [Eh]
	 Opposite-Spin Energy      =      -1.6328093678659406 [Eh]
	 Correlation Energy        =      -2.1570686714632070 [Eh]
	 Total Energy              =    -498.6579285096588592 [Eh]

	 ================> DF-SCS-MP2 Energies <==================
	-----------------------------------------------------------
	 SCS Same-Spin Scale       =       0.3333333333333333 [-]
	 SCS Opposite-Spin Scale   =       1.2000000000000000 [-]
	 SCS Same-Spin Energy      =      -0.1747531011990888 [Eh]
	 SCS Opposite-Spin Energy  =      -1.9593712414391287 [Eh]
	 SCS Correlation Energy    =      -2.1341243426382173 [Eh]
	 SCS Total Energy          =    -498.6349841808338965 [Eh]
	-----------------------------------------------------------

  Dipole Moment: [D]
     X:    -0.5585      Y:    -0.0073      Z:     0.5563     Total:     0.7884

*** Psi4 exiting successfully. Buy a developer a beer!
