                               Psi4 1.4a3.dev225

  ==> Input File <==

--------------------------------------------------------------------------
#psi4
#
memory 32 gb

molecule  {
0 1
  O        2.2381840    -1.1587810    -0.1175950
  O        2.2381840     1.1587830    -0.1175780
  C       -1.4506090    -0.7058110    -0.0005310
  C       -1.4506100     0.7058110    -0.0005190
  C        0.9370840    -0.6945160    -0.0405820
  C        0.9370830     0.6945180    -0.0405590
  C       -0.2384000    -1.4209720    -0.0261700
  C       -0.2384020     1.4209720    -0.0261890
  C        3.0186620    -0.0000010     0.2058680
  C       -2.7532520    -1.4635880     0.0322900
  C       -2.7532530     1.4635870     0.0322790
  H       -0.2243070    -2.5079120    -0.0340590
  H       -0.2243080     2.5079120    -0.0340480
  H        3.2379270    -0.0000100     1.2832160
  H        3.9284370     0.0000040    -0.3938210
  H       -2.5160538    -2.5249009    -0.0786674
  H       -3.3330080    -1.2312860     0.9325220
  H       -3.3837460    -1.2187210    -0.8295640
  H       -3.3329960     1.2313300     0.9325330
  H       -2.5725010     2.5416050     0.0193840
  H       -3.3837580     1.2186740    -0.8295530
units angstrom
no_reorient  #important for SAPT in psi4, default
symmetry c1  #important for SAPT in psi4, default
}

set PROPERTIES_ORIGIN ["COM"]
properties('MP2/aug-cc-pvtz', properties = ['dipole'])
--------------------------------------------------------------------------

    Molecular point group: c1
  Charge       = 0
  Multiplicity = 1
  Basis Set: AUG-CC-PVTZ
    Blend: AUG-CC-PVTZ
  Basis Set: (AUG-CC-PVTZ AUX)
    Blend: AUG-CC-PVTZ-JKFIT

    Orbital Energies [Eh]
    ---------------------

    Doubly Occupied:

       1A    -20.596119     2A    -20.596056     3A    -11.352330
       4A    -11.292123     5A    -11.290845     6A    -11.241826
       7A    -11.240713     8A    -11.238299     9A    -11.238150
      10A    -11.225437    11A    -11.225397    12A     -1.467187
      13A     -1.364671    14A     -1.158520    15A     -1.053402
      16A     -1.038701    17A     -0.952461    18A     -0.942872
      19A     -0.882281    20A     -0.836913    21A     -0.795262
      22A     -0.716322    23A     -0.712976    24A     -0.674618
      25A     -0.647537    26A     -0.615514    27A     -0.612571
      28A     -0.595576    29A     -0.574093    30A     -0.565976
      31A     -0.554438    32A     -0.538245    33A     -0.535428
      34A     -0.533575    35A     -0.529693    36A     -0.501204
      37A     -0.490003    38A     -0.441663    39A     -0.334415
      40A     -0.293108

  @DF-RHF Final Energy:  -496.51299738378879

   => Energetics <=

    Nuclear Repulsion Energy =            601.4041087109071668
    One-Electron Energy =               -1868.8411717059732382
    Two-Electron Energy =                 770.9240656112772285
    Total Energy =                       -496.5129973837888429
  Basis Set: (AUG-CC-PVTZ AUX)
    Blend: AUG-CC-PVTZ-RI
    Molecular point group: c1

    Geometry (in Angstrom), charge = 0, multiplicity = 1:

       Center              X                  Y                   Z               Mass
    ------------   -----------------  -----------------  -----------------  -----------------
         O            2.159539180500    -1.158893333879    -0.109895752584    15.994914619570
         O            2.159539180500     1.158670666121    -0.109878752584    15.994914619570
         C           -1.529253819500    -0.705923333879     0.007168247416    12.000000000000
         C           -1.529254819500     0.705698666121     0.007180247416    12.000000000000
         C            0.858439180500    -0.694628333879    -0.032882752584    12.000000000000
         C            0.858438180500     0.694405666121    -0.032859752584    12.000000000000
         C           -0.317044819500    -1.421084333879    -0.018470752584    12.000000000000
         C           -0.317046819500     1.420859666121    -0.018489752584    12.000000000000
         C            2.940017180500    -0.000113333879     0.213567247416    12.000000000000
         C           -2.831896819500    -1.463700333879     0.039989247416    12.000000000000
         C           -2.831897819500     1.463474666121     0.039978247416    12.000000000000
         H           -0.302951819500    -2.508024333879    -0.026359752584     1.007825032230
         H           -0.302952819500     2.507799666121    -0.026348752584     1.007825032230
         H            3.159282180500    -0.000122333879     1.290915247416     1.007825032230
         H            3.849792180500    -0.000108333879    -0.386121752584     1.007825032230
         H           -2.594698619500    -2.525013233879    -0.070968152584     1.007825032230
         H           -3.411652819500    -1.231398333879     0.940221247416     1.007825032230
         H           -3.462390819500    -1.218833333879    -0.821864752584     1.007825032230
         H           -3.411640819500     1.231217666121     0.940232247416     1.007825032230
         H           -2.651145819500     2.541492666121     0.027083247416     1.007825032230
         H           -3.462402819500     1.218561666121    -0.821853752584     1.007825032230

  Basis Set: AUG-CC-PVTZ
    Blend: AUG-CC-PVTZ
  Basis Set: (AUG-CC-PVTZ AUX)
    Blend: AUG-CC-PVTZ-JKFIT
	 Reference Energy          =    -496.5129973837887860 [Eh]
	 Singles Energy            =      -0.0000000000000000 [Eh]
	 Same-Spin Energy          =      -0.5241533365890947 [Eh]
	 Opposite-Spin Energy      =      -1.6323873712928754 [Eh]
	 Correlation Energy        =      -2.1565407078819701 [Eh]
	 Total Energy              =    -498.6695380916707450 [Eh]

	 ================> DF-SCS-MP2 Energies <==================
	-----------------------------------------------------------
	 SCS Same-Spin Scale       =       0.3333333333333333 [-]
	 SCS Opposite-Spin Scale   =       1.2000000000000000 [-]
	 SCS Same-Spin Energy      =      -0.1747177788630316 [Eh]
	 SCS Opposite-Spin Energy  =      -1.9588648455514504 [Eh]
	 SCS Correlation Energy    =      -2.1335826244144820 [Eh]
	 SCS Total Energy          =    -498.6465800082032729 [Eh]
	-----------------------------------------------------------

  Dipole Moment: [D]
     X:    -0.5617      Y:     0.0204      Z:     0.5322     Total:     0.7741

*** Psi4 exiting successfully. Buy a developer a beer!
