                               Psi4 1.4a3.dev225

  ==> Input File <==

--------------------------------------------------------------------------
#psi4
#
memory 32 gb

molecule  {
0 1
  O        2.2381840    -1.1587810    -0.1175950
  O        2.2381840     1.1587830    -0.1175780
  C       -1.4506090    -0.7058110    -0.0005310
  C       -1.4506100     0.7058110    -0.0005190
  C        0.9370840    -0.6945160    -0.0405820
  C        0.9370830     0.6945180    -0.0405590
  C       -0.2384000    -1.4209720    -0.0261700
  C       -0.2384020     1.4209720    -0.0261890
  C        3.0186620    -0.0000010     0.2058680
  C       -2.7532520    -1.4635880     0.0322900
  C       -2.7532530     1.4635870     0.0322790
  H       -0.2243070    -2.5079120    -0.0340590
  H       -0.2243080     2.5079120    -0.0340480
  H        3.2379270    -0.0000100     1.2832160
  H        3.7614508     0.0000031    -0.2837501
  H       -2.5724980    -2.5416060     0.0194510
  H       -3.3330080    -1.2312860     0.9325220
  H       -3.3837460    -1.2187210    -0.8295640
  H       -3.3329960     1.2313300     0.9325330
  H       -2.5725010     2.5416050     0.0193840
  H       -3.3837580     1.2186740    -0.8295530
units angstrom
no_reorient  #important for SAPT in psi4, default
symmetry c1  #important for SAPT in psi4, default
}

set PROPERTIES_ORIGIN ["COM"]
properties('MP2/aug-cc-pvtz', properties = ['dipole'])
--------------------------------------------------------------------------

    Molecular point group: c1
  Charge       = 0
  Multiplicity = 1
  Basis Set: AUG-CC-PVTZ
    Blend: AUG-CC-PVTZ
  Basis Set: (AUG-CC-PVTZ AUX)
    Blend: AUG-CC-PVTZ-JKFIT

    Orbital Energies [Eh]
    ---------------------

    Doubly Occupied:

       1A    -20.594659     2A    -20.594639     3A    -11.329161
       4A    -11.291404     5A    -11.290132     6A    -11.241811
       7A    -11.240711     8A    -11.237691     9A    -11.237674
      10A    -11.224968    11A    -11.224962    12A     -1.466985
      13A     -1.363424    14A     -1.158754    15A     -1.057932
      16A     -1.037822    17A     -0.964156    18A     -0.951906
      19A     -0.889933    20A     -0.837410    21A     -0.795099
      22A     -0.732769    23A     -0.712052    24A     -0.674549
      25A     -0.659816    26A     -0.617855    27A     -0.614522
      28A     -0.595604    29A     -0.572891    30A     -0.565960
      31A     -0.551153    32A     -0.541349    33A     -0.540585
      34A     -0.534351    35A     -0.532043    36A     -0.500399
      37A     -0.490815    38A     -0.443159    39A     -0.333844
      40A     -0.292770

  @DF-RHF Final Energy:  -496.48013635751721

   => Energetics <=

    Nuclear Repulsion Energy =            602.5376171602860040
    One-Electron Energy =               -1870.9600738425499458
    Two-Electron Energy =                 771.9423203247469019
    Total Energy =                       -496.4801363575171536
  Basis Set: (AUG-CC-PVTZ AUX)
    Blend: AUG-CC-PVTZ-RI
    Molecular point group: c1

    Geometry (in Angstrom), charge = 0, multiplicity = 1:

       Center              X                  Y                   Z               Mass
    ------------   -----------------  -----------------  -----------------  -----------------
         O            2.161039691140    -1.158781139967    -0.111293907266    15.994914619570
         O            2.161039691140     1.158782860033    -0.111276907266    15.994914619570
         C           -1.527753308860    -0.705811139967     0.005770092734    12.000000000000
         C           -1.527754308860     0.705810860033     0.005782092734    12.000000000000
         C            0.859939691140    -0.694516139967    -0.034280907266    12.000000000000
         C            0.859938691140     0.694517860033    -0.034257907266    12.000000000000
         C           -0.315544308860    -1.420972139967    -0.019868907266    12.000000000000
         C           -0.315546308860     1.420971860033    -0.019887907266    12.000000000000
         C            2.941517691140    -0.000001139967     0.212169092734    12.000000000000
         C           -2.830396308860    -1.463588139967     0.038591092734    12.000000000000
         C           -2.830397308860     1.463586860033     0.038580092734    12.000000000000
         H           -0.301451308860    -2.507912139967    -0.027757907266     1.007825032230
         H           -0.301452308860     2.507911860033    -0.027746907266     1.007825032230
         H            3.160782691140    -0.000010139967     1.289517092734     1.007825032230
         H            3.684306491140     0.000002960033    -0.277449007266     1.007825032230
         H           -2.649642308860    -2.541606139967     0.025752092734     1.007825032230
         H           -3.410152308860    -1.231286139967     0.938823092734     1.007825032230
         H           -3.460890308860    -1.218721139967    -0.823262907266     1.007825032230
         H           -3.410140308860     1.231329860033     0.938834092734     1.007825032230
         H           -2.649645308860     2.541604860033     0.025685092734     1.007825032230
         H           -3.460902308860     1.218673860033    -0.823251907266     1.007825032230

  Basis Set: AUG-CC-PVTZ
    Blend: AUG-CC-PVTZ
  Basis Set: (AUG-CC-PVTZ AUX)
    Blend: AUG-CC-PVTZ-JKFIT
	 Reference Energy          =    -496.4801363575172104 [Eh]
	 Singles Energy            =      -0.0000000000000000 [Eh]
	 Same-Spin Energy          =      -0.5238352216571465 [Eh]
	 Opposite-Spin Energy      =      -1.6313515878814533 [Eh]
	 Correlation Energy        =      -2.1551868095385998 [Eh]
	 Total Energy              =    -498.6353231670557875 [Eh]

	 ================> DF-SCS-MP2 Energies <==================
	-----------------------------------------------------------
	 SCS Same-Spin Scale       =       0.3333333333333333 [-]
	 SCS Opposite-Spin Scale   =       1.2000000000000000 [-]
	 SCS Same-Spin Energy      =      -0.1746117405523822 [Eh]
	 SCS Opposite-Spin Energy  =      -1.9576219054577439 [Eh]
	 SCS Correlation Energy    =      -2.1322336460101261 [Eh]
	 SCS Total Energy          =    -498.6123700035273600 [Eh]
	-----------------------------------------------------------

  Dipole Moment: [D]
     X:    -0.5065      Y:    -0.0000      Z:     0.5746     Total:     0.7659

*** Psi4 exiting successfully. Buy a developer a beer!
