                               Psi4 1.4a3.dev225

  ==> Input File <==

--------------------------------------------------------------------------
#psi4
#
memory 32 gb

molecule  {
0 1
  O        2.2381840    -1.1587810    -0.1175950
  O        2.2381840     1.1587830    -0.1175780
  C       -1.4506090    -0.7058110    -0.0005310
  C       -1.4506100     0.7058110    -0.0005190
  C        0.9370840    -0.6945160    -0.0405820
  C        0.9370830     0.6945180    -0.0405590
  C       -0.2384000    -1.4209720    -0.0261700
  C       -0.2384020     1.4209720    -0.0261890
  C        3.0186620    -0.0000010     0.2058680
  C       -2.7532520    -1.4635880     0.0322900
  C       -2.7532530     1.4635870     0.0322790
  H       -0.2243070    -2.5079120    -0.0340590
  H       -0.2243080     2.5079120    -0.0340480
  H        3.2379270    -0.0000100     1.2832160
  H        3.9284370     0.0000040    -0.3938210
  H       -2.5724980    -2.5416060     0.0194510
  H       -3.3330080    -1.2312860     0.9325220
  H       -3.3837460    -1.2187210    -0.8295640
  H       -3.3475405     1.2256434     0.9214965
  H       -2.5725010     2.5416050     0.0193840
  H       -3.3837580     1.2186740    -0.8295530
units angstrom
no_reorient  #important for SAPT in psi4, default
symmetry c1  #important for SAPT in psi4, default
}

set PROPERTIES_ORIGIN ["COM"]
properties('MP2/aug-cc-pvtz', properties = ['dipole'])
--------------------------------------------------------------------------

    Molecular point group: c1
  Charge       = 0
  Multiplicity = 1
  Basis Set: AUG-CC-PVTZ
    Blend: AUG-CC-PVTZ
  Basis Set: (AUG-CC-PVTZ AUX)
    Blend: AUG-CC-PVTZ-JKFIT

    Orbital Energies [Eh]
    ---------------------

    Doubly Occupied:

       1A    -20.596130     2A    -20.596109     3A    -11.352351
       4A    -11.292169     5A    -11.290898     6A    -11.242407
       7A    -11.241305     8A    -11.238360     9A    -11.238305
      10A    -11.225361    11A    -11.225305    12A     -1.467219
      13A     -1.364702    14A     -1.158530    15A     -1.053267
      16A     -1.038333    17A     -0.952363    18A     -0.943006
      19A     -0.882566    20A     -0.837051    21A     -0.795705
      22A     -0.716239    23A     -0.712780    24A     -0.675177
      25A     -0.648232    26A     -0.615118    27A     -0.611492
      28A     -0.594617    29A     -0.574123    30A     -0.566212
      31A     -0.550514    32A     -0.541190    33A     -0.535207
      34A     -0.533662    35A     -0.530459    36A     -0.501277
      37A     -0.491337    38A     -0.441650    39A     -0.334404
      40A     -0.293228

  @DF-RHF Final Energy:  -496.51430277347703

   => Energetics <=

    Nuclear Repulsion Energy =            601.2733496926676935
    One-Electron Energy =               -1868.5785845413804509
    Two-Electron Energy =                 770.7909320752355598
    Total Energy =                       -496.5143027734770840
  Basis Set: (AUG-CC-PVTZ AUX)
    Blend: AUG-CC-PVTZ-RI
    Molecular point group: c1

    Geometry (in Angstrom), charge = 0, multiplicity = 1:

       Center              X                  Y                   Z               Mass
    ------------   -----------------  -----------------  -----------------  -----------------
         O            2.160015925382    -1.158742956025    -0.110480575945    15.994914619570
         O            2.160015925382     1.158821043975    -0.110463575945    15.994914619570
         C           -1.528777074618    -0.705772956025     0.006583424055    12.000000000000
         C           -1.528778074618     0.705849043975     0.006595424055    12.000000000000
         C            0.858915925382    -0.694477956025    -0.033467575945    12.000000000000
         C            0.858914925382     0.694556043975    -0.033444575945    12.000000000000
         C           -0.316568074618    -1.420933956025    -0.019055575945    12.000000000000
         C           -0.316570074618     1.421010043975    -0.019074575945    12.000000000000
         C            2.940493925382     0.000037043975     0.212982424055    12.000000000000
         C           -2.831420074618    -1.463549956025     0.039404424055    12.000000000000
         C           -2.831421074618     1.463625043975     0.039393424055    12.000000000000
         H           -0.302475074618    -2.507873956025    -0.026944575945     1.007825032230
         H           -0.302476074618     2.507950043975    -0.026933575945     1.007825032230
         H            3.159758925382     0.000028043975     1.290330424055     1.007825032230
         H            3.850268925382     0.000042043975    -0.386706575945     1.007825032230
         H           -2.650666074618    -2.541567956025     0.026565424055     1.007825032230
         H           -3.411176074618    -1.231247956025     0.939636424055     1.007825032230
         H           -3.461914074618    -1.218682956025    -0.822449575945     1.007825032230
         H           -3.425708574618     1.225681443975     0.928610924055     1.007825032230
         H           -2.650669074618     2.541643043975     0.026498424055     1.007825032230
         H           -3.461926074618     1.218712043975    -0.822438575945     1.007825032230

  Basis Set: AUG-CC-PVTZ
    Blend: AUG-CC-PVTZ
  Basis Set: (AUG-CC-PVTZ AUX)
    Blend: AUG-CC-PVTZ-JKFIT
	 Reference Energy          =    -496.5143027734770271 [Eh]
	 Singles Energy            =      -0.0000000000000000 [Eh]
	 Same-Spin Energy          =      -0.5240506256339744 [Eh]
	 Opposite-Spin Energy      =      -1.6322314269516411 [Eh]
	 Correlation Energy        =      -2.1562820525856154 [Eh]
	 Total Energy              =    -498.6705848260626226 [Eh]

	 ================> DF-SCS-MP2 Energies <==================
	-----------------------------------------------------------
	 SCS Same-Spin Scale       =       0.3333333333333333 [-]
	 SCS Opposite-Spin Scale   =       1.2000000000000000 [-]
	 SCS Same-Spin Energy      =      -0.1746835418779915 [Eh]
	 SCS Opposite-Spin Energy  =      -1.9586777123419692 [Eh]
	 SCS Correlation Energy    =      -2.1333612542199605 [Eh]
	 SCS Total Energy          =    -498.6476640276969761 [Eh]
	-----------------------------------------------------------

  Dipole Moment: [D]
     X:    -0.5720      Y:    -0.0046      Z:     0.5613     Total:     0.8014

*** Psi4 exiting successfully. Buy a developer a beer!
