                               Psi4 1.4a3.dev225

  ==> Input File <==

--------------------------------------------------------------------------
#psi4
#
memory 32 gb

molecule  {
0 1
  O        2.1384083    -1.1100512    -0.0165892
  O        2.2381840     1.1587830    -0.1175780
  C       -1.4506090    -0.7058110    -0.0005310
  C       -1.4506100     0.7058110    -0.0005190
  C        0.9370840    -0.6945160    -0.0405820
  C        0.9370830     0.6945180    -0.0405590
  C       -0.2384000    -1.4209720    -0.0261700
  C       -0.2384020     1.4209720    -0.0261890
  C        3.0186620    -0.0000010     0.2058680
  C       -2.7532520    -1.4635880     0.0322900
  C       -2.7532530     1.4635870     0.0322790
  H       -0.2243070    -2.5079120    -0.0340590
  H       -0.2243080     2.5079120    -0.0340480
  H        3.2379270    -0.0000100     1.2832160
  H        3.9284370     0.0000040    -0.3938210
  H       -2.5724980    -2.5416060     0.0194510
  H       -3.3330080    -1.2312860     0.9325220
  H       -3.3837460    -1.2187210    -0.8295640
  H       -3.3329960     1.2313300     0.9325330
  H       -2.5725010     2.5416050     0.0193840
  H       -3.3837580     1.2186740    -0.8295530
units angstrom
no_reorient  #important for SAPT in psi4, default
symmetry c1  #important for SAPT in psi4, default
}

set PROPERTIES_ORIGIN ["COM"]
properties('MP2/aug-cc-pvtz', properties = ['dipole'])
--------------------------------------------------------------------------

    Molecular point group: c1
  Charge       = 0
  Multiplicity = 1
  Basis Set: AUG-CC-PVTZ
    Blend: AUG-CC-PVTZ
  Basis Set: (AUG-CC-PVTZ AUX)
    Blend: AUG-CC-PVTZ-JKFIT

    Orbital Energies [Eh]
    ---------------------

    Doubly Occupied:

       1A    -20.599287     2A    -20.596407     3A    -11.362131
       4A    -11.287513     5A    -11.281621     6A    -11.237977
       7A    -11.234608     8A    -11.231351     9A    -11.228228
      10A    -11.221781    11A    -11.219975    12A     -1.500055
      13A     -1.383107    14A     -1.152884    15A     -1.052685
      16A     -1.033013    17A     -0.954277    18A     -0.947324
      19A     -0.882289    20A     -0.836613    21A     -0.804873
      22A     -0.725794    23A     -0.719389    24A     -0.687239
      25A     -0.653031    26A     -0.615158    27A     -0.609894
      28A     -0.591771    29A     -0.582345    30A     -0.565017
      31A     -0.551041    32A     -0.546910    33A     -0.537019
      34A     -0.534553    35A     -0.525219    36A     -0.495672
      37A     -0.484927    38A     -0.437988    39A     -0.328576
      40A     -0.280620

  @DF-RHF Final Energy:  -496.50663818317685

   => Energetics <=

    Nuclear Repulsion Energy =            604.9918444762836316
    One-Electron Energy =               -1875.9566396332259046
    Two-Electron Energy =                 774.4581569737654263
    Total Energy =                       -496.5066381831768467
  Basis Set: (AUG-CC-PVTZ AUX)
    Blend: AUG-CC-PVTZ-RI
    Molecular point group: c1

    Geometry (in Angstrom), charge = 0, multiplicity = 1:

       Center              X                  Y                   Z               Mass
    ------------   -----------------  -----------------  -----------------  -----------------
         O            2.070777079695    -1.115245181987    -0.020314536225    15.994914619570
         O            2.170552779695     1.153589018013    -0.121303336225    15.994914619570
         C           -1.518240220305    -0.711004981987    -0.004256336225    12.000000000000
         C           -1.518241220305     0.700617018013    -0.004244336225    12.000000000000
         C            0.869452779695    -0.699709981987    -0.044307336225    12.000000000000
         C            0.869451779695     0.689324018013    -0.044284336225    12.000000000000
         C           -0.306031220305    -1.426165981987    -0.029895336225    12.000000000000
         C           -0.306033220305     1.415778018013    -0.029914336225    12.000000000000
         C            2.951030779695    -0.005194981987     0.202142663775    12.000000000000
         C           -2.820883220305    -1.468781981987     0.028564663775    12.000000000000
         C           -2.820884220305     1.458393018013     0.028553663775    12.000000000000
         H           -0.291938220305    -2.513105981987    -0.037784336225     1.007825032230
         H           -0.291939220305     2.502718018013    -0.037773336225     1.007825032230
         H            3.170295779695    -0.005203981987     1.279490663775     1.007825032230
         H            3.860805779695    -0.005189981987    -0.397546336225     1.007825032230
         H           -2.640129220305    -2.546799981987     0.015725663775     1.007825032230
         H           -3.400639220305    -1.236479981987     0.928796663775     1.007825032230
         H           -3.451377220305    -1.223914981987    -0.833289336225     1.007825032230
         H           -3.400627220305     1.226136018013     0.928807663775     1.007825032230
         H           -2.640132220305     2.536411018013     0.015658663775     1.007825032230
         H           -3.451389220305     1.213480018013    -0.833278336225     1.007825032230

  Basis Set: AUG-CC-PVTZ
    Blend: AUG-CC-PVTZ
  Basis Set: (AUG-CC-PVTZ AUX)
    Blend: AUG-CC-PVTZ-JKFIT
	 Reference Energy          =    -496.5066381831768467 [Eh]
	 Singles Energy            =      -0.0000000000000000 [Eh]
	 Same-Spin Energy          =      -0.5237597708906265 [Eh]
	 Opposite-Spin Energy      =      -1.6297481498381954 [Eh]
	 Correlation Energy        =      -2.1535079207288219 [Eh]
	 Total Energy              =    -498.6601461039056744 [Eh]

	 ================> DF-SCS-MP2 Energies <==================
	-----------------------------------------------------------
	 SCS Same-Spin Scale       =       0.3333333333333333 [-]
	 SCS Opposite-Spin Scale   =       1.2000000000000000 [-]
	 SCS Same-Spin Energy      =      -0.1745865902968755 [Eh]
	 SCS Opposite-Spin Energy  =      -1.9556977798058344 [Eh]
	 SCS Correlation Energy    =      -2.1302843701027099 [Eh]
	 SCS Total Energy          =    -498.6369225532795326 [Eh]
	-----------------------------------------------------------

  Dipole Moment: [D]
     X:     0.2965      Y:    -0.2055      Z:     0.4646     Total:     0.5882

*** Psi4 exiting successfully. Buy a developer a beer!
