                               Psi4 1.4a3.dev225

  ==> Input File <==

--------------------------------------------------------------------------
#psi4
#
memory 32 gb

molecule  {
0 1
  O        2.2381840    -1.1587810    -0.1175950
  O        2.2381840     1.1587830    -0.1175780
  C       -1.4506090    -0.7058110    -0.0005310
  C       -1.4506100     0.7058110    -0.0005190
  C        0.9370840    -0.6945160    -0.0405820
  C        0.9370830     0.6945180    -0.0405590
  C       -0.2384000    -1.4209720    -0.0261700
  C       -0.2384020     1.4209720    -0.0261890
  C        3.0186620    -0.0000010     0.2058680
  C       -2.7532520    -1.4635880     0.0322900
  C       -2.7532530     1.4635870     0.0322790
  H       -0.2217141    -2.7078899    -0.0355104
  H       -0.2243080     2.5079120    -0.0340480
  H        3.2379270    -0.0000100     1.2832160
  H        3.9284370     0.0000040    -0.3938210
  H       -2.5724980    -2.5416060     0.0194510
  H       -3.3330080    -1.2312860     0.9325220
  H       -3.3837460    -1.2187210    -0.8295640
  H       -3.3329960     1.2313300     0.9325330
  H       -2.5725010     2.5416050     0.0193840
  H       -3.3837580     1.2186740    -0.8295530
units angstrom
no_reorient  #important for SAPT in psi4, default
symmetry c1  #important for SAPT in psi4, default
}

set PROPERTIES_ORIGIN ["COM"]
properties('MP2/aug-cc-pvtz', properties = ['dipole'])
--------------------------------------------------------------------------

    Molecular point group: c1
  Charge       = 0
  Multiplicity = 1
  Basis Set: AUG-CC-PVTZ
    Blend: AUG-CC-PVTZ
  Basis Set: (AUG-CC-PVTZ AUX)
    Blend: AUG-CC-PVTZ-JKFIT

    Orbital Energies [Eh]
    ---------------------

    Doubly Occupied:

       1A    -20.596993     2A    -20.596509     3A    -11.352756
       4A    -11.294107     5A    -11.292703     6A    -11.259262
       7A    -11.244137     8A    -11.242970     9A    -11.239145
      10A    -11.226156    11A    -11.225051    12A     -1.467865
      13A     -1.365256    14A     -1.159088    15A     -1.054260
      16A     -1.035751    17A     -0.951547    18A     -0.943094
      19A     -0.882915    20A     -0.830119    21A     -0.795961
      22A     -0.715227    23A     -0.711184    24A     -0.674022
      25A     -0.645037    26A     -0.612280    27A     -0.595856
      28A     -0.589171    29A     -0.573692    30A     -0.566206
      31A     -0.551774    32A     -0.540010    33A     -0.535164
      34A     -0.532526    35A     -0.529724    36A     -0.501982
      37A     -0.481692    38A     -0.442685    39A     -0.335512
      40A     -0.294447

  @DF-RHF Final Energy:  -496.49186177457091

   => Energetics <=

    Nuclear Repulsion Energy =            600.2898191053665187
    One-Electron Energy =               -1866.5956913362740579
    Two-Electron Energy =                 769.8140104563365185
    Total Energy =                       -496.4918617745709071
  Basis Set: (AUG-CC-PVTZ AUX)
    Blend: AUG-CC-PVTZ-RI
    Molecular point group: c1

    Geometry (in Angstrom), charge = 0, multiplicity = 1:

       Center              X                  Y                   Z               Mass
    ------------   -----------------  -----------------  -----------------  -----------------
         O            2.159900834279    -1.157438137330    -0.110544947421    15.994914619570
         O            2.159900834279     1.160125862670    -0.110527947421    15.994914619570
         C           -1.528892165721    -0.704468137330     0.006519052579    12.000000000000
         C           -1.528893165721     0.707153862670     0.006531052579    12.000000000000
         C            0.858800834279    -0.693173137330    -0.033531947421    12.000000000000
         C            0.858799834279     0.695860862670    -0.033508947421    12.000000000000
         C           -0.316683165721    -1.419629137330    -0.019119947421    12.000000000000
         C           -0.316685165721     1.422314862670    -0.019138947421    12.000000000000
         C            2.940378834279     0.001341862670     0.212918052579    12.000000000000
         C           -2.831535165721    -1.462245137330     0.039340052579    12.000000000000
         C           -2.831536165721     1.464929862670     0.039329052579    12.000000000000
         H           -0.299997265721    -2.706547037330    -0.028460347421     1.007825032230
         H           -0.302591165721     2.509254862670    -0.026997947421     1.007825032230
         H            3.159643834279     0.001332862670     1.290266052579     1.007825032230
         H            3.850153834279     0.001346862670    -0.386770947421     1.007825032230
         H           -2.650781165721    -2.540263137330     0.026501052579     1.007825032230
         H           -3.411291165721    -1.229943137330     0.939572052579     1.007825032230
         H           -3.462029165721    -1.217378137330    -0.822513947421     1.007825032230
         H           -3.411279165721     1.232672862670     0.939583052579     1.007825032230
         H           -2.650784165721     2.542947862670     0.026434052579     1.007825032230
         H           -3.462041165721     1.220016862670    -0.822502947421     1.007825032230

  Basis Set: AUG-CC-PVTZ
    Blend: AUG-CC-PVTZ
  Basis Set: (AUG-CC-PVTZ AUX)
    Blend: AUG-CC-PVTZ-JKFIT
	 Reference Energy          =    -496.4918617745709071 [Eh]
	 Singles Energy            =      -0.0000000000000000 [Eh]
	 Same-Spin Energy          =      -0.5246862771193264 [Eh]
	 Opposite-Spin Energy      =      -1.6344944292123904 [Eh]
	 Correlation Energy        =      -2.1591807063317168 [Eh]
	 Total Energy              =    -498.6510424809026176 [Eh]

	 ================> DF-SCS-MP2 Energies <==================
	-----------------------------------------------------------
	 SCS Same-Spin Scale       =       0.3333333333333333 [-]
	 SCS Opposite-Spin Scale   =       1.2000000000000000 [-]
	 SCS Same-Spin Energy      =      -0.1748954257064421 [Eh]
	 SCS Opposite-Spin Energy  =      -1.9613933150548684 [Eh]
	 SCS Correlation Energy    =      -2.1362887407613105 [Eh]
	 SCS Total Energy          =    -498.6281505153322087 [Eh]
	-----------------------------------------------------------

  Dipole Moment: [D]
     X:    -0.5691      Y:     0.0692      Z:     0.5650     Total:     0.8049

*** Psi4 exiting successfully. Buy a developer a beer!
