                               Psi4 1.4a3.dev225

  ==> Input File <==

--------------------------------------------------------------------------
#psi4
#
memory 32 gb

molecule  {
0 1
  O        2.1706472    -1.1276750    -0.0505839
  O        2.2381840     1.1587830    -0.1175780
  C       -1.4506090    -0.7058110    -0.0005310
  C       -1.4506100     0.7058110    -0.0005190
  C        0.9370840    -0.6945160    -0.0405820
  C        0.9370830     0.6945180    -0.0405590
  C       -0.2384000    -1.4209720    -0.0261700
  C       -0.2384020     1.4209720    -0.0261890
  C        3.0186620    -0.0000010     0.2058680
  C       -2.7532520    -1.4635880     0.0322900
  C       -2.7532530     1.4635870     0.0322790
  H       -0.2243070    -2.5079120    -0.0340590
  H       -0.2243080     2.5079120    -0.0340480
  H        3.2379270    -0.0000100     1.2832160
  H        3.9284370     0.0000040    -0.3938210
  H       -2.5724980    -2.5416060     0.0194510
  H       -3.3330080    -1.2312860     0.9325220
  H       -3.3837460    -1.2187210    -0.8295640
  H       -3.3329960     1.2313300     0.9325330
  H       -2.5725010     2.5416050     0.0193840
  H       -3.3837580     1.2186740    -0.8295530
units angstrom
no_reorient  #important for SAPT in psi4, default
symmetry c1  #important for SAPT in psi4, default
}

set PROPERTIES_ORIGIN ["COM"]
properties('MP2/aug-cc-pvtz', properties = ['dipole'])
--------------------------------------------------------------------------

    Molecular point group: c1
  Charge       = 0
  Multiplicity = 1
  Basis Set: AUG-CC-PVTZ
    Blend: AUG-CC-PVTZ
  Basis Set: (AUG-CC-PVTZ AUX)
    Blend: AUG-CC-PVTZ-JKFIT

    Orbital Energies [Eh]
    ---------------------

    Doubly Occupied:

       1A    -20.597967     2A    -20.596235     3A    -11.358659
       4A    -11.288728     5A    -11.284945     6A    -11.239284
       7A    -11.236100     8A    -11.234694     9A    -11.231727
      10A    -11.222992    11A    -11.221829    12A     -1.487278
      13A     -1.377546    14A     -1.154774    15A     -1.052632
      16A     -1.034796    17A     -0.951356    18A     -0.947813
      19A     -0.882313    20A     -0.836523    21A     -0.801509
      22A     -0.721801    23A     -0.717309    24A     -0.682565
      25A     -0.651621    26A     -0.614617    27A     -0.611554
      28A     -0.592786    29A     -0.579015    30A     -0.565757
      31A     -0.548927    32A     -0.545688    33A     -0.537549
      34A     -0.534520    35A     -0.527880    36A     -0.497578
      37A     -0.487283    38A     -0.439275    39A     -0.330434
      40A     -0.285002

  @DF-RHF Final Energy:  -496.51248076437628

   => Energetics <=

    Nuclear Repulsion Energy =            603.7414886140310273
    One-Electron Energy =               -1873.4862217772119948
    Two-Electron Energy =                 773.2322523988048033
    Total Energy =                       -496.5124807643762779
  Basis Set: (AUG-CC-PVTZ AUX)
    Blend: AUG-CC-PVTZ-RI
    Molecular point group: c1

    Geometry (in Angstrom), charge = 0, multiplicity = 1:

       Center              X                  Y                   Z               Mass
    ------------   -----------------  -----------------  -----------------  -----------------
         O            2.099579816226    -1.130990560026    -0.050685931884    15.994914619570
         O            2.167116616226     1.155467439974    -0.117680031884    15.994914619570
         C           -1.521676383774    -0.709126560026    -0.000633031884    12.000000000000
         C           -1.521677383774     0.702495439974    -0.000621031884    12.000000000000
         C            0.866016616226    -0.697831560026    -0.040684031884    12.000000000000
         C            0.866015616226     0.691202439974    -0.040661031884    12.000000000000
         C           -0.309467383774    -1.424287560026    -0.026272031884    12.000000000000
         C           -0.309469383774     1.417656439974    -0.026291031884    12.000000000000
         C            2.947594616226    -0.003316560026     0.205765968116    12.000000000000
         C           -2.824319383774    -1.466903560026     0.032187968116    12.000000000000
         C           -2.824320383774     1.460271439974     0.032176968116    12.000000000000
         H           -0.295374383774    -2.511227560026    -0.034161031884     1.007825032230
         H           -0.295375383774     2.504596439974    -0.034150031884     1.007825032230
         H            3.166859616226    -0.003325560026     1.283113968116     1.007825032230
         H            3.857369616226    -0.003311560026    -0.393923031884     1.007825032230
         H           -2.643565383774    -2.544921560026     0.019348968116     1.007825032230
         H           -3.404075383774    -1.234601560026     0.932419968116     1.007825032230
         H           -3.454813383774    -1.222036560026    -0.829666031884     1.007825032230
         H           -3.404063383774     1.228014439974     0.932430968116     1.007825032230
         H           -2.643568383774     2.538289439974     0.019281968116     1.007825032230
         H           -3.454825383774     1.215358439974    -0.829655031884     1.007825032230

  Basis Set: AUG-CC-PVTZ
    Blend: AUG-CC-PVTZ
  Basis Set: (AUG-CC-PVTZ AUX)
    Blend: AUG-CC-PVTZ-JKFIT
	 Reference Energy          =    -496.5124807643762779 [Eh]
	 Singles Energy            =      -0.0000000000000000 [Eh]
	 Same-Spin Energy          =      -0.5237788353825785 [Eh]
	 Opposite-Spin Energy      =      -1.6304089027118498 [Eh]
	 Correlation Energy        =      -2.1541877380944285 [Eh]
	 Total Energy              =    -498.6666685024707135 [Eh]

	 ================> DF-SCS-MP2 Energies <==================
	-----------------------------------------------------------
	 SCS Same-Spin Scale       =       0.3333333333333333 [-]
	 SCS Opposite-Spin Scale   =       1.2000000000000000 [-]
	 SCS Same-Spin Energy      =      -0.1745929451275262 [Eh]
	 SCS Opposite-Spin Energy  =      -1.9564906832542197 [Eh]
	 SCS Correlation Energy    =      -2.1310836283817460 [Eh]
	 SCS Total Energy          =    -498.6435643927580372 [Eh]
	-----------------------------------------------------------

  Dipole Moment: [D]
     X:    -0.0010      Y:    -0.1338      Z:     0.4943     Total:     0.5121

*** Psi4 exiting successfully. Buy a developer a beer!
