                               Psi4 1.4a3.dev225

  ==> Input File <==

--------------------------------------------------------------------------
#psi4
#
memory 32 gb

molecule  {
0 1
  O        2.2381840    -1.1587810    -0.1175950
  O        2.2381840     1.1587830    -0.1175780
  C       -1.4506090    -0.7058110    -0.0005310
  C       -1.4506100     0.7058110    -0.0005190
  C        0.9370840    -0.6945160    -0.0405820
  C        0.9370830     0.6945180    -0.0405590
  C       -0.2384000    -1.4209720    -0.0261700
  C       -0.2384020     1.4209720    -0.0261890
  C        3.0186620    -0.0000010     0.2058680
  C       -2.7532520    -1.4635880     0.0322900
  C       -2.7532530     1.4635870     0.0322790
  H       -0.2243070    -2.5079120    -0.0340590
  H       -0.2243080     2.5079120    -0.0340480
  H        3.2379270    -0.0000100     1.2832160
  H        3.9284370     0.0000040    -0.3938210
  H       -2.5724980    -2.5416060     0.0194510
  H       -3.4174720    -1.1982916     0.8623072
  H       -3.3837460    -1.2187210    -0.8295640
  H       -3.3329960     1.2313300     0.9325330
  H       -2.5725010     2.5416050     0.0193840
  H       -3.3837580     1.2186740    -0.8295530
units angstrom
no_reorient  #important for SAPT in psi4, default
symmetry c1  #important for SAPT in psi4, default
}

set PROPERTIES_ORIGIN ["COM"]
properties('MP2/aug-cc-pvtz', properties = ['dipole'])
--------------------------------------------------------------------------

    Molecular point group: c1
  Charge       = 0
  Multiplicity = 1
  Basis Set: AUG-CC-PVTZ
    Blend: AUG-CC-PVTZ
  Basis Set: (AUG-CC-PVTZ AUX)
    Blend: AUG-CC-PVTZ-JKFIT

    Orbital Energies [Eh]
    ---------------------

    Doubly Occupied:

       1A    -20.596272     2A    -20.596250     3A    -11.352457
       4A    -11.292379     5A    -11.291107     6A    -11.242954
       7A    -11.241719     8A    -11.238743     9A    -11.238453
      10A    -11.225608    11A    -11.225326    12A     -1.467357
      13A     -1.364839    14A     -1.158695    15A     -1.053349
      16A     -1.038411    17A     -0.952486    18A     -0.943333
      19A     -0.882965    20A     -0.837329    21A     -0.796305
      22A     -0.716611    23A     -0.713049    24A     -0.675996
      25A     -0.648422    26A     -0.615401    27A     -0.612723
      28A     -0.591475    29A     -0.574281    30A     -0.567919
      31A     -0.545490    32A     -0.542244    33A     -0.536307
      34A     -0.534509    35A     -0.529989    36A     -0.503338
      37A     -0.491554    38A     -0.441288    39A     -0.334472
      40A     -0.293210

  @DF-RHF Final Energy:  -496.51305903802506

   => Energetics <=

    Nuclear Repulsion Energy =            601.2184624326328048
    One-Electron Energy =               -1868.4538141459988765
    Two-Electron Energy =                 770.7222926753410093
    Total Energy =                       -496.5130590380250624
  Basis Set: (AUG-CC-PVTZ AUX)
    Blend: AUG-CC-PVTZ-RI
    Molecular point group: c1

    Geometry (in Angstrom), charge = 0, multiplicity = 1:

       Center              X                  Y                   Z               Mass
    ------------   -----------------  -----------------  -----------------  -----------------
         O            2.160485489746    -1.159002729324    -0.110083147176    15.994914619570
         O            2.160485489746     1.158561270676    -0.110066147176    15.994914619570
         C           -1.528307510254    -0.706032729324     0.006980852824    12.000000000000
         C           -1.528308510254     0.705589270676     0.006992852824    12.000000000000
         C            0.859385489746    -0.694737729324    -0.033070147176    12.000000000000
         C            0.859384489746     0.694296270676    -0.033047147176    12.000000000000
         C           -0.316098510254    -1.421193729324    -0.018658147176    12.000000000000
         C           -0.316100510254     1.420750270676    -0.018677147176    12.000000000000
         C            2.940963489746    -0.000222729324     0.213379852824    12.000000000000
         C           -2.830950510254    -1.463809729324     0.039801852824    12.000000000000
         C           -2.830951510254     1.463365270676     0.039790852824    12.000000000000
         H           -0.302005510254    -2.508133729324    -0.026547147176     1.007825032230
         H           -0.302006510254     2.507690270676    -0.026536147176     1.007825032230
         H            3.160228489746    -0.000231729324     1.290727852824     1.007825032230
         H            3.850738489746    -0.000217729324    -0.386309147176     1.007825032230
         H           -2.650196510254    -2.541827729324     0.026962852824     1.007825032230
         H           -3.495170510254    -1.198513329324     0.869819052824     1.007825032230
         H           -3.461444510254    -1.218942729324    -0.822052147176     1.007825032230
         H           -3.410694510254     1.231108270676     0.940044852824     1.007825032230
         H           -2.650199510254     2.541383270676     0.026895852824     1.007825032230
         H           -3.461456510254     1.218452270676    -0.822041147176     1.007825032230

  Basis Set: AUG-CC-PVTZ
    Blend: AUG-CC-PVTZ
  Basis Set: (AUG-CC-PVTZ AUX)
    Blend: AUG-CC-PVTZ-JKFIT
	 Reference Energy          =    -496.5130590380250624 [Eh]
	 Singles Energy            =      -0.0000000000000000 [Eh]
	 Same-Spin Energy          =      -0.5241357578202810 [Eh]
	 Opposite-Spin Energy      =      -1.6322683519501173 [Eh]
	 Correlation Energy        =      -2.1564041097703983 [Eh]
	 Total Energy              =    -498.6694631477954545 [Eh]

	 ================> DF-SCS-MP2 Energies <==================
	-----------------------------------------------------------
	 SCS Same-Spin Scale       =       0.3333333333333333 [-]
	 SCS Opposite-Spin Scale   =       1.2000000000000000 [-]
	 SCS Same-Spin Energy      =      -0.1747119192734270 [Eh]
	 SCS Opposite-Spin Energy  =      -1.9587220223401407 [Eh]
	 SCS Correlation Energy    =      -2.1334339416135677 [Eh]
	 SCS Total Energy          =    -498.6464929796386514 [Eh]
	-----------------------------------------------------------

  Dipole Moment: [D]
     X:    -0.5838      Y:     0.0263      Z:     0.5453     Total:     0.7992

*** Psi4 exiting successfully. Buy a developer a beer!
