                               Psi4 1.4a3.dev225

  ==> Input File <==

--------------------------------------------------------------------------
#psi4
#
memory 32 gb

molecule  {
0 1
  O        2.2381840    -1.1587810    -0.1175950
  O        2.2381840     1.1587830    -0.1175780
  C       -1.4506090    -0.7058110    -0.0005310
  C       -1.4506100     0.7058110    -0.0005190
  C        0.9370840    -0.6945160    -0.0405820
  C        0.9370830     0.6945180    -0.0405590
  C       -0.2384000    -1.4209720    -0.0261700
  C       -0.2384020     1.4209720    -0.0261890
  C        3.0186620    -0.0000010     0.2058680
  C       -2.7532520    -1.4635880     0.0322900
  C       -2.7532530     1.4635870     0.0322790
  H       -0.2243070    -2.5079120    -0.0340590
  H       -0.2243080     2.5079120    -0.0340480
  H        3.2578704    -0.0000108     1.3812071
  H        3.9284370     0.0000040    -0.3938210
  H       -2.5724980    -2.5416060     0.0194510
  H       -3.3330080    -1.2312860     0.9325220
  H       -3.3837460    -1.2187210    -0.8295640
  H       -3.3329960     1.2313300     0.9325330
  H       -2.5725010     2.5416050     0.0193840
  H       -3.3837580     1.2186740    -0.8295530
units angstrom
no_reorient  #important for SAPT in psi4, default
symmetry c1  #important for SAPT in psi4, default
}

set PROPERTIES_ORIGIN ["COM"]
properties('MP2/aug-cc-pvtz', properties = ['dipole'])
--------------------------------------------------------------------------

    Molecular point group: c1
  Charge       = 0
  Multiplicity = 1
  Basis Set: AUG-CC-PVTZ
    Blend: AUG-CC-PVTZ
  Basis Set: (AUG-CC-PVTZ AUX)
    Blend: AUG-CC-PVTZ-JKFIT

    Orbital Energies [Eh]
    ---------------------

    Doubly Occupied:

       1A    -20.598334     2A    -20.598313     3A    -11.363600
       4A    -11.292877     5A    -11.291605     6A    -11.242890
       7A    -11.241793     8A    -11.238923     9A    -11.238903
      10A    -11.225698    11A    -11.225691    12A     -1.468288
      13A     -1.366201    14A     -1.158971    15A     -1.053080
      16A     -1.038889    17A     -0.952884    18A     -0.939108
      19A     -0.878799    20A     -0.837519    21A     -0.796531
      22A     -0.716169    23A     -0.703039    24A     -0.675938
      25A     -0.648601    26A     -0.615658    27A     -0.609605
      28A     -0.595519    29A     -0.574917    30A     -0.565457
      31A     -0.551909    32A     -0.541554    33A     -0.536451
      34A     -0.532988    35A     -0.524055    36A     -0.501384
      37A     -0.491913    38A     -0.439095    39A     -0.334923
      40A     -0.293854

  @DF-RHF Final Energy:  -496.50734284466546

   => Energetics <=

    Nuclear Repulsion Energy =            600.7895045418999871
    One-Electron Energy =               -1867.5898413171935317
    Two-Electron Energy =                 770.2929939306280858
    Total Energy =                       -496.5073428446654589
  Basis Set: (AUG-CC-PVTZ AUX)
    Blend: AUG-CC-PVTZ-RI
    Molecular point group: c1

    Geometry (in Angstrom), charge = 0, multiplicity = 1:

       Center              X                  Y                   Z               Mass
    ------------   -----------------  -----------------  -----------------  -----------------
         O            2.159784312043    -1.158781140638    -0.111212781920    15.994914619570
         O            2.159784312043     1.158782859362    -0.111195781920    15.994914619570
         C           -1.529008687957    -0.705811140638     0.005851218080    12.000000000000
         C           -1.529009687957     0.705810859362     0.005863218080    12.000000000000
         C            0.858684312043    -0.694516140638    -0.034199781920    12.000000000000
         C            0.858683312043     0.694517859362    -0.034176781920    12.000000000000
         C           -0.316799687957    -1.420972140638    -0.019787781920    12.000000000000
         C           -0.316801687957     1.420971859362    -0.019806781920    12.000000000000
         C            2.940262312043    -0.000001140638     0.212250218080    12.000000000000
         C           -2.831651687957    -1.463588140638     0.038672218080    12.000000000000
         C           -2.831652687957     1.463586859362     0.038661218080    12.000000000000
         H           -0.302706687957    -2.507912140638    -0.027676781920     1.007825032230
         H           -0.302707687957     2.507911859362    -0.027665781920     1.007825032230
         H            3.179470712043    -0.000010940638     1.387589318080     1.007825032230
         H            3.850037312043     0.000003859362    -0.387438781920     1.007825032230
         H           -2.650897687957    -2.541606140638     0.025833218080     1.007825032230
         H           -3.411407687957    -1.231286140638     0.938904218080     1.007825032230
         H           -3.462145687957    -1.218721140638    -0.823181781920     1.007825032230
         H           -3.411395687957     1.231329859362     0.938915218080     1.007825032230
         H           -2.650900687957     2.541604859362     0.025766218080     1.007825032230
         H           -3.462157687957     1.218673859362    -0.823170781920     1.007825032230

  Basis Set: AUG-CC-PVTZ
    Blend: AUG-CC-PVTZ
  Basis Set: (AUG-CC-PVTZ AUX)
    Blend: AUG-CC-PVTZ-JKFIT
	 Reference Energy          =    -496.5073428446654589 [Eh]
	 Singles Energy            =      -0.0000000000000000 [Eh]
	 Same-Spin Energy          =      -0.5243617325374866 [Eh]
	 Opposite-Spin Energy      =      -1.6332919550103533 [Eh]
	 Correlation Energy        =      -2.1576536875478398 [Eh]
	 Total Energy              =    -498.6649965322133085 [Eh]

	 ================> DF-SCS-MP2 Energies <==================
	-----------------------------------------------------------
	 SCS Same-Spin Scale       =       0.3333333333333333 [-]
	 SCS Opposite-Spin Scale   =       1.2000000000000000 [-]
	 SCS Same-Spin Energy      =      -0.1747872441791622 [Eh]
	 SCS Opposite-Spin Energy  =      -1.9599503460124239 [Eh]
	 SCS Correlation Energy    =      -2.1347375901915862 [Eh]
	 SCS Total Energy          =    -498.6420804348570641 [Eh]
	-----------------------------------------------------------

  Dipole Moment: [D]
     X:    -0.6703      Y:    -0.0000      Z:     0.4712     Total:     0.8194

*** Psi4 exiting successfully. Buy a developer a beer!
