                               Psi4 1.4a3.dev225

  ==> Input File <==

--------------------------------------------------------------------------
#psi4
#
memory 32 gb

molecule  {
0 1
  O        2.2381840    -1.1587810    -0.1175950
  O        2.2381840     1.1587830    -0.1175780
  C       -1.4506090    -0.7058110    -0.0005310
  C       -1.4659780     0.6831644    -0.0454551
  C        0.9370840    -0.6945160    -0.0405820
  C        0.9370830     0.6945180    -0.0405590
  C       -0.2384000    -1.4209720    -0.0261700
  C       -0.2384020     1.4209720    -0.0261890
  C        3.0186620    -0.0000010     0.2058680
  C       -2.7532520    -1.4635880     0.0322900
  C       -2.7532530     1.4635870     0.0322790
  H       -0.2243070    -2.5079120    -0.0340590
  H       -0.2243080     2.5079120    -0.0340480
  H        3.2379270    -0.0000100     1.2832160
  H        3.9284370     0.0000040    -0.3938210
  H       -2.5724980    -2.5416060     0.0194510
  H       -3.3330080    -1.2312860     0.9325220
  H       -3.3837460    -1.2187210    -0.8295640
  H       -3.3329960     1.2313300     0.9325330
  H       -2.5725010     2.5416050     0.0193840
  H       -3.3837580     1.2186740    -0.8295530
units angstrom
no_reorient  #important for SAPT in psi4, default
symmetry c1  #important for SAPT in psi4, default
}

set PROPERTIES_ORIGIN ["COM"]
properties('MP2/aug-cc-pvtz', properties = ['dipole'])
--------------------------------------------------------------------------

    Molecular point group: c1
  Charge       = 0
  Multiplicity = 1
  Basis Set: AUG-CC-PVTZ
    Blend: AUG-CC-PVTZ
  Basis Set: (AUG-CC-PVTZ AUX)
    Blend: AUG-CC-PVTZ-JKFIT

    Orbital Energies [Eh]
    ---------------------

    Doubly Occupied:

       1A    -20.596762     2A    -20.596582     3A    -11.352662
       4A    -11.292900     5A    -11.291582     6A    -11.241715
       7A    -11.240057     8A    -11.239287     9A    -11.238014
      10A    -11.225155    11A    -11.224661    12A     -1.467797
      13A     -1.365214    14A     -1.158652    15A     -1.054959
      16A     -1.035632    17A     -0.951844    18A     -0.942623
      19A     -0.883330    20A     -0.840308    21A     -0.793558
      22A     -0.716058    23A     -0.712761    24A     -0.674585
      25A     -0.648608    26A     -0.614730    27A     -0.611337
      28A     -0.595426    29A     -0.574501    30A     -0.567149
      31A     -0.550974    32A     -0.541221    33A     -0.535471
      34A     -0.533575    35A     -0.529525    36A     -0.497758
      37A     -0.493080    38A     -0.441610    39A     -0.331834
      40A     -0.295968

  @DF-RHF Final Energy:  -496.51288676227307

   => Energetics <=

    Nuclear Repulsion Energy =            601.2892433990466543
    One-Electron Energy =               -1868.6053324430893099
    Two-Electron Energy =                 770.8032022817695861
    Total Energy =                       -496.5128867622730695
  Basis Set: (AUG-CC-PVTZ AUX)
    Blend: AUG-CC-PVTZ-RI
    Molecular point group: c1

    Geometry (in Angstrom), charge = 0, multiplicity = 1:

       Center              X                  Y                   Z               Mass
    ------------   -----------------  -----------------  -----------------  -----------------
         O            2.161147129895    -1.156970239916    -0.106961437561    15.994914619570
         O            2.161147129895     1.160593760084    -0.106944437561    15.994914619570
         C           -1.527645870105    -0.704000239916     0.010102562439    12.000000000000
         C           -1.543014870105     0.684975160084    -0.034821537561    12.000000000000
         C            0.860047129895    -0.692705239916    -0.029948437561    12.000000000000
         C            0.860046129895     0.696328760084    -0.029925437561    12.000000000000
         C           -0.315436870105    -1.419161239916    -0.015536437561    12.000000000000
         C           -0.315438870105     1.422782760084    -0.015555437561    12.000000000000
         C            2.941625129895     0.001809760084     0.216501562439    12.000000000000
         C           -2.830288870105    -1.461777239916     0.042923562439    12.000000000000
         C           -2.830289870105     1.465397760084     0.042912562439    12.000000000000
         H           -0.301343870105    -2.506101239916    -0.023425437561     1.007825032230
         H           -0.301344870105     2.509722760084    -0.023414437561     1.007825032230
         H            3.160890129895     0.001800760084     1.293849562439     1.007825032230
         H            3.851400129895     0.001814760084    -0.383187437561     1.007825032230
         H           -2.649534870105    -2.539795239916     0.030084562439     1.007825032230
         H           -3.410044870105    -1.229475239916     0.943155562439     1.007825032230
         H           -3.460782870105    -1.216910239916    -0.818930437561     1.007825032230
         H           -3.410032870105     1.233140760084     0.943166562439     1.007825032230
         H           -2.649537870105     2.543415760084     0.030017562439     1.007825032230
         H           -3.460794870105     1.220484760084    -0.818919437561     1.007825032230

  Basis Set: AUG-CC-PVTZ
    Blend: AUG-CC-PVTZ
  Basis Set: (AUG-CC-PVTZ AUX)
    Blend: AUG-CC-PVTZ-JKFIT
	 Reference Energy          =    -496.5128867622730695 [Eh]
	 Singles Energy            =      -0.0000000000000000 [Eh]
	 Same-Spin Energy          =      -0.5239716801860576 [Eh]
	 Opposite-Spin Energy      =      -1.6323286203708869 [Eh]
	 Correlation Energy        =      -2.1563003005569445 [Eh]
	 Total Energy              =    -498.6691870628300194 [Eh]

	 ================> DF-SCS-MP2 Energies <==================
	-----------------------------------------------------------
	 SCS Same-Spin Scale       =       0.3333333333333333 [-]
	 SCS Opposite-Spin Scale   =       1.2000000000000000 [-]
	 SCS Same-Spin Energy      =      -0.1746572267286858 [Eh]
	 SCS Opposite-Spin Energy  =      -1.9587943444450642 [Eh]
	 SCS Correlation Energy    =      -2.1334515711737501 [Eh]
	 SCS Total Energy          =    -498.6463383334468062 [Eh]
	-----------------------------------------------------------

  Dipole Moment: [D]
     X:    -0.5425      Y:     0.0011      Z:     0.5857     Total:     0.7983

*** Psi4 exiting successfully. Buy a developer a beer!
