                               Psi4 1.4a3.dev225

  ==> Input File <==

--------------------------------------------------------------------------
#psi4
#
memory 32 gb

molecule  {
0 1
  O        2.2381840    -1.1587810    -0.1175950
  O        2.2381840     1.1587830    -0.1175780
  C       -1.4506090    -0.7058110    -0.0005310
  C       -1.4506100     0.7058110    -0.0005190
  C        0.9370840    -0.6945160    -0.0405820
  C        0.9370830     0.6945180    -0.0405590
  C       -0.2384000    -1.4209720    -0.0261700
  C       -0.2384020     1.4209720    -0.0261890
  C        3.0186620    -0.0000010     0.2058680
  C       -2.7532520    -1.4635880     0.0322900
  C       -2.7532530     1.4635870     0.0322790
  H       -0.2256034    -2.4079230    -0.0333333
  H       -0.2243080     2.5079120    -0.0340480
  H        3.2379270    -0.0000100     1.2832160
  H        3.9284370     0.0000040    -0.3938210
  H       -2.5724980    -2.5416060     0.0194510
  H       -3.3330080    -1.2312860     0.9325220
  H       -3.3837460    -1.2187210    -0.8295640
  H       -3.3329960     1.2313300     0.9325330
  H       -2.5725010     2.5416050     0.0193840
  H       -3.3837580     1.2186740    -0.8295530
units angstrom
no_reorient  #important for SAPT in psi4, default
symmetry c1  #important for SAPT in psi4, default
}

set PROPERTIES_ORIGIN ["COM"]
properties('MP2/aug-cc-pvtz', properties = ['dipole'])
--------------------------------------------------------------------------

    Molecular point group: c1
  Charge       = 0
  Multiplicity = 1
  Basis Set: AUG-CC-PVTZ
    Blend: AUG-CC-PVTZ
  Basis Set: (AUG-CC-PVTZ AUX)
    Blend: AUG-CC-PVTZ-JKFIT

    Orbital Energies [Eh]
    ---------------------

    Doubly Occupied:

       1A    -20.596027     2A    -20.595783     3A    -11.352214
       4A    -11.291474     5A    -11.290197     6A    -11.241644
       7A    -11.240524     8A    -11.238074     9A    -11.226674
      10A    -11.225474    11A    -11.225017    12A     -1.467001
      13A     -1.364523    14A     -1.158777    15A     -1.052968
      16A     -1.041079    17A     -0.953640    18A     -0.943086
      19A     -0.882649    20A     -0.843036    21A     -0.795681
      22A     -0.719086    23A     -0.713251    24A     -0.676985
      25A     -0.652715    26A     -0.625548    27A     -0.611300
      28A     -0.595214    29A     -0.574105    30A     -0.565712
      31A     -0.551454    32A     -0.541703    33A     -0.535292
      34A     -0.533525    35A     -0.530285    36A     -0.500385
      37A     -0.493802    38A     -0.441394    39A     -0.334160
      40A     -0.292773

  @DF-RHF Final Energy:  -496.50855956127043

   => Energetics <=

    Nuclear Repulsion Energy =            601.8663443756322522
    One-Electron Energy =               -1869.7213424188762474
    Two-Electron Energy =                 771.3464384819735642
    Total Energy =                       -496.5085595612704310
  Basis Set: (AUG-CC-PVTZ AUX)
    Blend: AUG-CC-PVTZ-RI
    Molecular point group: c1

    Geometry (in Angstrom), charge = 0, multiplicity = 1:

       Center              X                  Y                   Z               Mass
    ------------   -----------------  -----------------  -----------------  -----------------
         O            2.159926953984    -1.159452650687    -0.110559568357    15.994914619570
         O            2.159926953984     1.158111349313    -0.110542568357    15.994914619570
         C           -1.528866046016    -0.706482650687     0.006504431643    12.000000000000
         C           -1.528867046016     0.705139349313     0.006516431643    12.000000000000
         C            0.858826953984    -0.695187650687    -0.033546568357    12.000000000000
         C            0.858825953984     0.693846349313    -0.033523568357    12.000000000000
         C           -0.316657046016    -1.421643650687    -0.019134568357    12.000000000000
         C           -0.316659046016     1.420300349313    -0.019153568357    12.000000000000
         C            2.940404953984    -0.000672650687     0.212903431643    12.000000000000
         C           -2.831509046016    -1.464259650687     0.039325431643    12.000000000000
         C           -2.831510046016     1.462915349313     0.039314431643    12.000000000000
         H           -0.303860446016    -2.408594650687    -0.026297868357     1.007825032230
         H           -0.302565046016     2.507240349313    -0.027012568357     1.007825032230
         H            3.159669953984    -0.000681650687     1.290251431643     1.007825032230
         H            3.850179953984    -0.000667650687    -0.386785568357     1.007825032230
         H           -2.650755046016    -2.542277650687     0.026486431643     1.007825032230
         H           -3.411265046016    -1.231957650687     0.939557431643     1.007825032230
         H           -3.462003046016    -1.219392650687    -0.822528568357     1.007825032230
         H           -3.411253046016     1.230658349313     0.939568431643     1.007825032230
         H           -2.650758046016     2.540933349313     0.026419431643     1.007825032230
         H           -3.462015046016     1.218002349313    -0.822517568357     1.007825032230

  Basis Set: AUG-CC-PVTZ
    Blend: AUG-CC-PVTZ
  Basis Set: (AUG-CC-PVTZ AUX)
    Blend: AUG-CC-PVTZ-JKFIT
	 Reference Energy          =    -496.5085595612704310 [Eh]
	 Singles Energy            =      -0.0000000000000000 [Eh]
	 Same-Spin Energy          =      -0.5238322756677843 [Eh]
	 Opposite-Spin Energy      =      -1.6316944241866889 [Eh]
	 Correlation Energy        =      -2.1555266998544731 [Eh]
	 Total Energy              =    -498.6640862611249077 [Eh]

	 ================> DF-SCS-MP2 Energies <==================
	-----------------------------------------------------------
	 SCS Same-Spin Scale       =       0.3333333333333333 [-]
	 SCS Opposite-Spin Scale   =       1.2000000000000000 [-]
	 SCS Same-Spin Energy      =      -0.1746107585559281 [Eh]
	 SCS Opposite-Spin Energy  =      -1.9580333090240265 [Eh]
	 SCS Correlation Energy    =      -2.1326440675799545 [Eh]
	 SCS Total Energy          =    -498.6412036288504055 [Eh]
	-----------------------------------------------------------

  Dipole Moment: [D]
     X:    -0.5707      Y:    -0.0149      Z:     0.5638     Total:     0.8024

*** Psi4 exiting successfully. Buy a developer a beer!
