                               Psi4 1.4a3.dev225

  ==> Input File <==

--------------------------------------------------------------------------
#psi4
#
memory 32 gb

molecule  {
0 1
  O        2.2381840    -1.1587810    -0.1175950
  O        2.2381840     1.1587830    -0.1175780
  C       -1.4506090    -0.7058110    -0.0005310
  C       -1.4506100     0.7058110    -0.0005190
  C        0.7490087    -0.6274060    -0.0294497
  C        0.9370830     0.6945180    -0.0405590
  C       -0.2384000    -1.4209720    -0.0261700
  C       -0.2384020     1.4209720    -0.0261890
  C        3.0186620    -0.0000010     0.2058680
  C       -2.7532520    -1.4635880     0.0322900
  C       -2.7532530     1.4635870     0.0322790
  H       -0.2243070    -2.5079120    -0.0340590
  H       -0.2243080     2.5079120    -0.0340480
  H        3.2379270    -0.0000100     1.2832160
  H        3.9284370     0.0000040    -0.3938210
  H       -2.5724980    -2.5416060     0.0194510
  H       -3.3330080    -1.2312860     0.9325220
  H       -3.3837460    -1.2187210    -0.8295640
  H       -3.3329960     1.2313300     0.9325330
  H       -2.5725010     2.5416050     0.0193840
  H       -3.3837580     1.2186740    -0.8295530
units angstrom
no_reorient  #important for SAPT in psi4, default
symmetry c1  #important for SAPT in psi4, default
}

set PROPERTIES_ORIGIN ["COM"]
properties('MP2/aug-cc-pvtz', properties = ['dipole'])
--------------------------------------------------------------------------

    Molecular point group: c1
  Charge       = 0
  Multiplicity = 1
  Basis Set: AUG-CC-PVTZ
    Blend: AUG-CC-PVTZ
  Basis Set: (AUG-CC-PVTZ AUX)
    Blend: AUG-CC-PVTZ-JKFIT

    Orbital Energies [Eh]
    ---------------------

    Doubly Occupied:

       1A    -20.597863     2A    -20.565908     3A    -11.337460
       4A    -11.296091     5A    -11.285177     6A    -11.248862
       7A    -11.247517     8A    -11.243393     9A    -11.236091
      10A    -11.230020    11A    -11.229922    12A     -1.440784
      13A     -1.315352    14A     -1.187295    15A     -1.064833
      16A     -1.056675    17A     -0.967329    18A     -0.933698
      19A     -0.880107    20A     -0.845513    21A     -0.786712
      22A     -0.714750    23A     -0.699982    24A     -0.664717
      25A     -0.646168    26A     -0.637319    27A     -0.607438
      28A     -0.601908    29A     -0.557708    30A     -0.555218
      31A     -0.553290    32A     -0.545978    33A     -0.542485
      34A     -0.527898    35A     -0.509907    36A     -0.505659
      37A     -0.480429    38A     -0.439531    39A     -0.352284
      40A     -0.307683

  @DF-RHF Final Energy:  -496.46965056953377

   => Energetics <=

    Nuclear Repulsion Energy =            602.1784126196282614
    One-Electron Energy =               -1870.4022167809498569
    Two-Electron Energy =                 771.7541535917878264
    Total Energy =                       -496.4696505695337692
  Basis Set: (AUG-CC-PVTZ AUX)
    Blend: AUG-CC-PVTZ-RI
    Molecular point group: c1

    Geometry (in Angstrom), charge = 0, multiplicity = 1:

       Center              X                  Y                   Z               Mass
    ------------   -----------------  -----------------  -----------------  -----------------
         O            2.174957445893    -1.164147510413    -0.111444874691    15.994914619570
         O            2.174957445893     1.153416489587    -0.111427874691    15.994914619570
         C           -1.513835554107    -0.711177510413     0.005619125309    12.000000000000
         C           -1.513836554107     0.700444489587     0.005631125309    12.000000000000
         C            0.685782145893    -0.632772510413    -0.023299574691    12.000000000000
         C            0.873856445893     0.689151489587    -0.034408874691    12.000000000000
         C           -0.301626554107    -1.426338510413    -0.020019874691    12.000000000000
         C           -0.301628554107     1.415605489587    -0.020038874691    12.000000000000
         C            2.955435445893    -0.005367510413     0.212018125309    12.000000000000
         C           -2.816478554107    -1.468954510413     0.038440125309    12.000000000000
         C           -2.816479554107     1.458220489587     0.038429125309    12.000000000000
         H           -0.287533554107    -2.513278510413    -0.027908874691     1.007825032230
         H           -0.287534554107     2.502545489587    -0.027897874691     1.007825032230
         H            3.174700445893    -0.005376510413     1.289366125309     1.007825032230
         H            3.865210445893    -0.005362510413    -0.387670874691     1.007825032230
         H           -2.635724554107    -2.546972510413     0.025601125309     1.007825032230
         H           -3.396234554107    -1.236652510413     0.938672125309     1.007825032230
         H           -3.446972554107    -1.224087510413    -0.823413874691     1.007825032230
         H           -3.396222554107     1.225963489587     0.938683125309     1.007825032230
         H           -2.635727554107     2.536238489587     0.025534125309     1.007825032230
         H           -3.446984554107     1.213307489587    -0.823402874691     1.007825032230

  Basis Set: AUG-CC-PVTZ
    Blend: AUG-CC-PVTZ
  Basis Set: (AUG-CC-PVTZ AUX)
    Blend: AUG-CC-PVTZ-JKFIT
	 Reference Energy          =    -496.4696505695337692 [Eh]
	 Singles Energy            =      -0.0000000000000000 [Eh]
	 Same-Spin Energy          =      -0.5255659551491486 [Eh]
	 Opposite-Spin Energy      =      -1.6362888324689000 [Eh]
	 Correlation Energy        =      -2.1618547876180485 [Eh]
	 Total Energy              =    -498.6315053571518092 [Eh]

	 ================> DF-SCS-MP2 Energies <==================
	-----------------------------------------------------------
	 SCS Same-Spin Scale       =       0.3333333333333333 [-]
	 SCS Opposite-Spin Scale   =       1.2000000000000000 [-]
	 SCS Same-Spin Energy      =      -0.1751886517163829 [Eh]
	 SCS Opposite-Spin Energy  =      -1.9635465989626799 [Eh]
	 SCS Correlation Energy    =      -2.1387352506790629 [Eh]
	 SCS Total Energy          =    -498.6083858202128454 [Eh]
	-----------------------------------------------------------

  Dipole Moment: [D]
     X:    -1.6380      Y:     0.1452      Z:     0.6009     Total:     1.7508

*** Psi4 exiting successfully. Buy a developer a beer!
