                               Psi4 1.4a3.dev225

  ==> Input File <==

--------------------------------------------------------------------------
#psi4
#
memory 32 gb

molecule  {
0 1
  O        2.2209301    -1.1515283    -0.1009773
  O        2.2381840     1.1587830    -0.1175780
  C       -1.4506090    -0.7058110    -0.0005310
  C       -1.4506100     0.7058110    -0.0005190
  C        0.9370840    -0.6945160    -0.0405820
  C        0.9370830     0.6945180    -0.0405590
  C       -0.2384000    -1.4209720    -0.0261700
  C       -0.2384020     1.4209720    -0.0261890
  C        3.0186620    -0.0000010     0.2058680
  C       -2.7532520    -1.4635880     0.0322900
  C       -2.7532530     1.4635870     0.0322790
  H       -0.2243070    -2.5079120    -0.0340590
  H       -0.2243080     2.5079120    -0.0340480
  H        3.2379270    -0.0000100     1.2832160
  H        3.9284370     0.0000040    -0.3938210
  H       -2.5724980    -2.5416060     0.0194510
  H       -3.3330080    -1.2312860     0.9325220
  H       -3.3837460    -1.2187210    -0.8295640
  H       -3.3329960     1.2313300     0.9325330
  H       -2.5725010     2.5416050     0.0193840
  H       -3.3837580     1.2186740    -0.8295530
units angstrom
no_reorient  #important for SAPT in psi4, default
symmetry c1  #important for SAPT in psi4, default
}

set PROPERTIES_ORIGIN ["COM"]
properties('MP2/aug-cc-pvtz', properties = ['dipole'])
--------------------------------------------------------------------------

    Molecular point group: c1
  Charge       = 0
  Multiplicity = 1
  Basis Set: AUG-CC-PVTZ
    Blend: AUG-CC-PVTZ
  Basis Set: (AUG-CC-PVTZ AUX)
    Blend: AUG-CC-PVTZ-JKFIT

    Orbital Energies [Eh]
    ---------------------

    Doubly Occupied:

       1A    -20.596467     2A    -20.596102     3A    -11.353825
       4A    -11.291062     5A    -11.289569     6A    -11.241380
       7A    -11.239960     8A    -11.237607     9A    -11.236706
      10A    -11.224746    11A    -11.224474    12A     -1.471532
      13A     -1.368065    14A     -1.157579    15A     -1.053028
      16A     -1.037452    17A     -0.951737    18A     -0.944390
      19A     -0.882440    20A     -0.836808    21A     -0.796961
      22A     -0.717249    23A     -0.713958    24A     -0.676612
      25A     -0.649074    26A     -0.614350    27A     -0.612224
      28A     -0.594709    29A     -0.575095    30A     -0.566059
      31A     -0.550838    32A     -0.540815    33A     -0.536663
      34A     -0.533304    35A     -0.530828    36A     -0.500091
      37A     -0.490382    38A     -0.441113    39A     -0.333371
      40A     -0.291248

  @DF-RHF Final Energy:  -496.51500379010315

   => Energetics <=

    Nuclear Repulsion Energy =            601.8924829772527119
    One-Electron Energy =               -1869.8152245481926457
    Two-Electron Energy =                 771.4077377808367828
    Total Energy =                       -496.5150037901031510
  Basis Set: (AUG-CC-PVTZ AUX)
    Blend: AUG-CC-PVTZ-RI
    Molecular point group: c1

    Geometry (in Angstrom), charge = 0, multiplicity = 1:

       Center              X                  Y                   Z               Mass
    ------------   -----------------  -----------------  -----------------  -----------------
         O            2.144503344035    -1.152301470611    -0.095708182118    15.994914619570
         O            2.161757244035     1.158009829389    -0.112308882118    15.994914619570
         C           -1.527035755965    -0.706584170611     0.004738117882    12.000000000000
         C           -1.527036755965     0.705037829389     0.004750117882    12.000000000000
         C            0.860657244035    -0.695289170611    -0.035312882118    12.000000000000
         C            0.860656244035     0.693744829389    -0.035289882118    12.000000000000
         C           -0.314826755965    -1.421745170611    -0.020900882118    12.000000000000
         C           -0.314828755965     1.420198829389    -0.020919882118    12.000000000000
         C            2.942235244035    -0.000774170611     0.211137117882    12.000000000000
         C           -2.829678755965    -1.464361170611     0.037559117882    12.000000000000
         C           -2.829679755965     1.462813829389     0.037548117882    12.000000000000
         H           -0.300733755965    -2.508685170611    -0.028789882118     1.007825032230
         H           -0.300734755965     2.507138829389    -0.028778882118     1.007825032230
         H            3.161500244035    -0.000783170611     1.288485117882     1.007825032230
         H            3.852010244035    -0.000769170611    -0.388551882118     1.007825032230
         H           -2.648924755965    -2.542379170611     0.024720117882     1.007825032230
         H           -3.409434755965    -1.232059170611     0.937791117882     1.007825032230
         H           -3.460172755965    -1.219494170611    -0.824294882118     1.007825032230
         H           -3.409422755965     1.230556829389     0.937802117882     1.007825032230
         H           -2.648927755965     2.540831829389     0.024653117882     1.007825032230
         H           -3.460184755965     1.217900829389    -0.824283882118     1.007825032230

  Basis Set: AUG-CC-PVTZ
    Blend: AUG-CC-PVTZ
  Basis Set: (AUG-CC-PVTZ AUX)
    Blend: AUG-CC-PVTZ-JKFIT
	 Reference Energy          =    -496.5150037901031510 [Eh]
	 Singles Energy            =      -0.0000000000000000 [Eh]
	 Same-Spin Energy          =      -0.5239469250342076 [Eh]
	 Opposite-Spin Energy      =      -1.6317136099745855 [Eh]
	 Correlation Energy        =      -2.1556605350087930 [Eh]
	 Total Energy              =    -498.6706643251119431 [Eh]

	 ================> DF-SCS-MP2 Energies <==================
	-----------------------------------------------------------
	 SCS Same-Spin Scale       =       0.3333333333333333 [-]
	 SCS Opposite-Spin Scale   =       1.2000000000000000 [-]
	 SCS Same-Spin Energy      =      -0.1746489750114025 [Eh]
	 SCS Opposite-Spin Energy  =      -1.9580563319695026 [Eh]
	 SCS Correlation Energy    =      -2.1327053069809052 [Eh]
	 SCS Total Energy          =    -498.6477090970840322 [Eh]
	-----------------------------------------------------------

  Dipole Moment: [D]
     X:    -0.4321      Y:    -0.0319      Z:     0.5455     Total:     0.6966

*** Psi4 exiting successfully. Buy a developer a beer!
