                               Psi4 1.4a3.dev225

  ==> Input File <==

--------------------------------------------------------------------------
#psi4
#
memory 32 gb

molecule  {
0 1
  O        2.2381840    -1.1587810    -0.1175950
  O        2.2381840     1.1587830    -0.1175780
  C       -1.4506090    -0.7058110    -0.0005310
  C       -1.4506100     0.7058110    -0.0005190
  C        0.9370840    -0.6945160    -0.0405820
  C        0.9370830     0.6945180    -0.0405590
  C       -0.2384000    -1.4209720    -0.0261700
  C       -0.2384020     1.4209720    -0.0261890
  C        3.0186620    -0.0000010     0.2058680
  C       -2.8396699    -1.5138593     0.0344674
  C       -2.7532530     1.4635870     0.0322790
  H       -0.2243070    -2.5079120    -0.0340590
  H       -0.2243080     2.5079120    -0.0340480
  H        3.2379270    -0.0000100     1.2832160
  H        3.9284370     0.0000040    -0.3938210
  H       -2.5724980    -2.5416060     0.0194510
  H       -3.3330080    -1.2312860     0.9325220
  H       -3.3837460    -1.2187210    -0.8295640
  H       -3.3329960     1.2313300     0.9325330
  H       -2.5725010     2.5416050     0.0193840
  H       -3.3837580     1.2186740    -0.8295530
units angstrom
no_reorient  #important for SAPT in psi4, default
symmetry c1  #important for SAPT in psi4, default
}

set PROPERTIES_ORIGIN ["COM"]
properties('MP2/aug-cc-pvtz', properties = ['dipole'])
--------------------------------------------------------------------------

    Molecular point group: c1
  Charge       = 0
  Multiplicity = 1
  Basis Set: AUG-CC-PVTZ
    Blend: AUG-CC-PVTZ
  Basis Set: (AUG-CC-PVTZ AUX)
    Blend: AUG-CC-PVTZ-JKFIT

    Orbital Energies [Eh]
    ---------------------

    Doubly Occupied:

       1A    -20.595763     2A    -20.595719     3A    -11.352055
       4A    -11.291745     5A    -11.290463     6A    -11.245543
       7A    -11.241401     8A    -11.238299     9A    -11.237894
      10A    -11.225228    11A    -11.223573    12A     -1.466848
      13A     -1.364336    14A     -1.155404    15A     -1.049221
      16A     -1.033291    17A     -0.952254    18A     -0.943628
      19A     -0.883783    20A     -0.836834    21A     -0.795786
      22A     -0.715481    23A     -0.711600    24A     -0.671782
      25A     -0.645402    26A     -0.615041    27A     -0.611475
      28A     -0.600151    29A     -0.573875    30A     -0.562586
      31A     -0.559478    32A     -0.550881    33A     -0.535657
      34A     -0.534078    35A     -0.530110    36A     -0.496441
      37A     -0.476849    38A     -0.443147    39A     -0.334494
      40A     -0.293697

  @DF-RHF Final Energy:  -496.50734895176345

   => Energetics <=

    Nuclear Repulsion Energy =            599.4919829492613417
    One-Electron Energy =               -1865.0360758967383390
    Two-Electron Energy =                 769.0367439957136639
    Total Energy =                       -496.5073489517634471
  Basis Set: (AUG-CC-PVTZ AUX)
    Blend: AUG-CC-PVTZ-RI
    Molecular point group: c1

    Geometry (in Angstrom), charge = 0, multiplicity = 1:

       Center              X                  Y                   Z               Mass
    ------------   -----------------  -----------------  -----------------  -----------------
         O            2.166828543307    -1.154761266488    -0.110728807688    15.994914619570
         O            2.166828543307     1.162802733512    -0.110711807688    15.994914619570
         C           -1.521964456693    -0.701791266488     0.006335192312    12.000000000000
         C           -1.521965456693     0.709830733512     0.006347192312    12.000000000000
         C            0.865728543307    -0.690496266488    -0.033715807688    12.000000000000
         C            0.865727543307     0.698537733512    -0.033692807688    12.000000000000
         C           -0.309755456693    -1.416952266488    -0.019303807688    12.000000000000
         C           -0.309757456693     1.424991733512    -0.019322807688    12.000000000000
         C            2.947306543307     0.004018733512     0.212734192312    12.000000000000
         C           -2.911025356693    -1.509839566488     0.041333592312    12.000000000000
         C           -2.824608456693     1.467606733512     0.039145192312    12.000000000000
         H           -0.295662456693    -2.503892266488    -0.027192807688     1.007825032230
         H           -0.295663456693     2.511931733512    -0.027181807688     1.007825032230
         H            3.166571543307     0.004009733512     1.290082192312     1.007825032230
         H            3.857081543307     0.004023733512    -0.386954807688     1.007825032230
         H           -2.643853456693    -2.537586266488     0.026317192312     1.007825032230
         H           -3.404363456693    -1.227266266488     0.939388192312     1.007825032230
         H           -3.455101456693    -1.214701266488    -0.822697807688     1.007825032230
         H           -3.404351456693     1.235349733512     0.939399192312     1.007825032230
         H           -2.643856456693     2.545624733512     0.026250192312     1.007825032230
         H           -3.455113456693     1.222693733512    -0.822686807688     1.007825032230

  Basis Set: AUG-CC-PVTZ
    Blend: AUG-CC-PVTZ
  Basis Set: (AUG-CC-PVTZ AUX)
    Blend: AUG-CC-PVTZ-JKFIT
	 Reference Energy          =    -496.5073489517634471 [Eh]
	 Singles Energy            =      -0.0000000000000000 [Eh]
	 Same-Spin Energy          =      -0.5235110333220651 [Eh]
	 Opposite-Spin Energy      =      -1.6320982880742554 [Eh]
	 Correlation Energy        =      -2.1556093213963203 [Eh]
	 Total Energy              =    -498.6629582731597452 [Eh]

	 ================> DF-SCS-MP2 Energies <==================
	-----------------------------------------------------------
	 SCS Same-Spin Scale       =       0.3333333333333333 [-]
	 SCS Opposite-Spin Scale   =       1.2000000000000000 [-]
	 SCS Same-Spin Energy      =      -0.1745036777740217 [Eh]
	 SCS Opposite-Spin Energy  =      -1.9585179456891064 [Eh]
	 SCS Correlation Energy    =      -2.1330216234631281 [Eh]
	 SCS Total Energy          =    -498.6403705752265978 [Eh]
	-----------------------------------------------------------

  Dipole Moment: [D]
     X:    -0.5659      Y:     0.0029      Z:     0.5640     Total:     0.7990

*** Psi4 exiting successfully. Buy a developer a beer!
