                               Psi4 1.4a3.dev225

  ==> Input File <==

--------------------------------------------------------------------------
#psi4
#
memory 32 gb

molecule  {
0 1
  O        2.2039193    -1.1439248    -0.0842662
  O        2.2381840     1.1587830    -0.1175780
  C       -1.4506090    -0.7058110    -0.0005310
  C       -1.4506100     0.7058110    -0.0005190
  C        0.9370840    -0.6945160    -0.0405820
  C        0.9370830     0.6945180    -0.0405590
  C       -0.2384000    -1.4209720    -0.0261700
  C       -0.2384020     1.4209720    -0.0261890
  C        3.0186620    -0.0000010     0.2058680
  C       -2.7532520    -1.4635880     0.0322900
  C       -2.7532530     1.4635870     0.0322790
  H       -0.2243070    -2.5079120    -0.0340590
  H       -0.2243080     2.5079120    -0.0340480
  H        3.2379270    -0.0000100     1.2832160
  H        3.9284370     0.0000040    -0.3938210
  H       -2.5724980    -2.5416060     0.0194510
  H       -3.3330080    -1.2312860     0.9325220
  H       -3.3837460    -1.2187210    -0.8295640
  H       -3.3329960     1.2313300     0.9325330
  H       -2.5725010     2.5416050     0.0193840
  H       -3.3837580     1.2186740    -0.8295530
units angstrom
no_reorient  #important for SAPT in psi4, default
symmetry c1  #important for SAPT in psi4, default
}

set PROPERTIES_ORIGIN ["COM"]
properties('MP2/aug-cc-pvtz', properties = ['dipole'])
--------------------------------------------------------------------------

    Molecular point group: c1
  Charge       = 0
  Multiplicity = 1
  Basis Set: AUG-CC-PVTZ
    Blend: AUG-CC-PVTZ
  Basis Set: (AUG-CC-PVTZ AUX)
    Blend: AUG-CC-PVTZ-JKFIT

    Orbital Energies [Eh]
    ---------------------

    Doubly Occupied:

       1A    -20.596904     2A    -20.596130     3A    -11.355381
       4A    -11.290185     5A    -11.288112     6A    -11.240633
       7A    -11.238521     8A    -11.236887     9A    -11.235088
      10A    -11.224170    11A    -11.223613    12A     -1.476320
      13A     -1.371358    14A     -1.156651    15A     -1.052843
      16A     -1.036573    17A     -0.951213    18A     -0.945836
      19A     -0.882391    20A     -0.836662    21A     -0.798407
      22A     -0.718548    23A     -0.715134    24A     -0.678412
      25A     -0.649956    26A     -0.613916    27A     -0.612717
      28A     -0.594057    29A     -0.576240    30A     -0.566082
      31A     -0.550162    32A     -0.541548    33A     -0.537778
      34A     -0.533720    35A     -0.530152    36A     -0.499310
      37A     -0.489408    38A     -0.440515    39A     -0.332374
      40A     -0.289219

  @DF-RHF Final Energy:  -496.51494155013245

   => Energetics <=

    Nuclear Repulsion Energy =            602.5044970322434210
    One-Electron Energy =               -1871.0326186558838799
    Two-Electron Energy =                 772.0131800735078969
    Total Energy =                       -496.5149415501324484
  Basis Set: (AUG-CC-PVTZ AUX)
    Blend: AUG-CC-PVTZ-RI
    Molecular point group: c1

    Geometry (in Angstrom), charge = 0, multiplicity = 1:

       Center              X                  Y                   Z               Mass
    ------------   -----------------  -----------------  -----------------  -----------------
         O            2.129305629765    -1.145508385016    -0.080778224507    15.994914619570
         O            2.163570329765     1.157199414984    -0.114090024507    15.994914619570
         C           -1.525222670235    -0.707394585016     0.002956975493    12.000000000000
         C           -1.525223670235     0.704227414984     0.002968975493    12.000000000000
         C            0.862470329765    -0.696099585016    -0.037094024507    12.000000000000
         C            0.862469329765     0.692934414984    -0.037071024507    12.000000000000
         C           -0.313013670235    -1.422555585016    -0.022682024507    12.000000000000
         C           -0.313015670235     1.419388414984    -0.022701024507    12.000000000000
         C            2.944048329765    -0.001584585016     0.209355975493    12.000000000000
         C           -2.827865670235    -1.465171585016     0.035777975493    12.000000000000
         C           -2.827866670235     1.462003414984     0.035766975493    12.000000000000
         H           -0.298920670235    -2.509495585016    -0.030571024507     1.007825032230
         H           -0.298921670235     2.506328414984    -0.030560024507     1.007825032230
         H            3.163313329765    -0.001593585016     1.286703975493     1.007825032230
         H            3.853823329765    -0.001579585016    -0.390333024507     1.007825032230
         H           -2.647111670235    -2.543189585016     0.022938975493     1.007825032230
         H           -3.407621670235    -1.232869585016     0.936009975493     1.007825032230
         H           -3.458359670235    -1.220304585016    -0.826076024507     1.007825032230
         H           -3.407609670235     1.229746414984     0.936020975493     1.007825032230
         H           -2.647114670235     2.540021414984     0.022871975493     1.007825032230
         H           -3.458371670235     1.217090414984    -0.826065024507     1.007825032230

  Basis Set: AUG-CC-PVTZ
    Blend: AUG-CC-PVTZ
  Basis Set: (AUG-CC-PVTZ AUX)
    Blend: AUG-CC-PVTZ-JKFIT
	 Reference Energy          =    -496.5149415501324484 [Eh]
	 Singles Energy            =      -0.0000000000000000 [Eh]
	 Same-Spin Energy          =      -0.5238709234988015 [Eh]
	 Opposite-Spin Energy      =      -1.6312347888275942 [Eh]
	 Correlation Energy        =      -2.1551057123263959 [Eh]
	 Total Energy              =    -498.6700472624588656 [Eh]

	 ================> DF-SCS-MP2 Energies <==================
	-----------------------------------------------------------
	 SCS Same-Spin Scale       =       0.3333333333333333 [-]
	 SCS Opposite-Spin Scale   =       1.2000000000000000 [-]
	 SCS Same-Spin Energy      =      -0.1746236411662672 [Eh]
	 SCS Opposite-Spin Energy  =      -1.9574817465931129 [Eh]
	 SCS Correlation Energy    =      -2.1321053877593799 [Eh]
	 SCS Total Energy          =    -498.6470469378918438 [Eh]
	-----------------------------------------------------------

  Dipole Moment: [D]
     X:    -0.2909      Y:    -0.0649      Z:     0.5277     Total:     0.6061

*** Psi4 exiting successfully. Buy a developer a beer!
