                               Psi4 1.4a3.dev225

  ==> Input File <==

--------------------------------------------------------------------------
#psi4
#
memory 32 gb

molecule  {
0 1
  O        2.2381840    -1.1587810    -0.1175950
  O        2.2381840     1.1587830    -0.1175780
  C       -1.4506090    -0.7058110    -0.0005310
  C       -1.4506100     0.7058110    -0.0005190
  C        0.9370840    -0.6945160    -0.0405820
  C        0.8886101     0.6936718    -0.0399642
  C       -0.2384000    -1.4209720    -0.0261700
  C       -0.2384020     1.4209720    -0.0261890
  C        3.0186620    -0.0000010     0.2058680
  C       -2.7532520    -1.4635880     0.0322900
  C       -2.7532530     1.4635870     0.0322790
  H       -0.2243070    -2.5079120    -0.0340590
  H       -0.2243080     2.5079120    -0.0340480
  H        3.2379270    -0.0000100     1.2832160
  H        3.9284370     0.0000040    -0.3938210
  H       -2.5724980    -2.5416060     0.0194510
  H       -3.3330080    -1.2312860     0.9325220
  H       -3.3837460    -1.2187210    -0.8295640
  H       -3.3329960     1.2313300     0.9325330
  H       -2.5725010     2.5416050     0.0193840
  H       -3.3837580     1.2186740    -0.8295530
units angstrom
no_reorient  #important for SAPT in psi4, default
symmetry c1  #important for SAPT in psi4, default
}

set PROPERTIES_ORIGIN ["COM"]
properties('MP2/aug-cc-pvtz', properties = ['dipole'])
--------------------------------------------------------------------------

    Molecular point group: c1
  Charge       = 0
  Multiplicity = 1
  Basis Set: AUG-CC-PVTZ
    Blend: AUG-CC-PVTZ
  Basis Set: (AUG-CC-PVTZ AUX)
    Blend: AUG-CC-PVTZ-JKFIT

    Orbital Energies [Eh]
    ---------------------

    Doubly Occupied:

       1A    -20.597235     2A    -20.589515     3A    -11.349332
       4A    -11.294229     5A    -11.289220     6A    -11.243516
       7A    -11.242219     8A    -11.238793     9A    -11.236229
      10A    -11.226301    11A    -11.226113    12A     -1.457816
      13A     -1.353518    14A     -1.164263    15A     -1.055263
      16A     -1.042788    17A     -0.956526    18A     -0.940317
      19A     -0.880013    20A     -0.838268    21A     -0.793252
      22A     -0.714277    23A     -0.709142    24A     -0.672365
      25A     -0.648017    26A     -0.620189    27A     -0.610826
      28A     -0.596645    29A     -0.568658    30A     -0.562199
      31A     -0.552269    32A     -0.541582    33A     -0.535666
      34A     -0.530458    35A     -0.528442    36A     -0.502018
      37A     -0.491889    38A     -0.442524    39A     -0.339884
      40A     -0.295905

  @DF-RHF Final Energy:  -496.51088873598906

   => Energetics <=

    Nuclear Repulsion Energy =            601.2933043904639590
    One-Electron Energy =               -1868.6530252000541168
    Two-Electron Energy =                 770.8488320736012156
    Total Energy =                       -496.5108887359890559
  Basis Set: (AUG-CC-PVTZ AUX)
    Blend: AUG-CC-PVTZ-RI
    Molecular point group: c1

    Geometry (in Angstrom), charge = 0, multiplicity = 1:

       Center              X                  Y                   Z               Mass
    ------------   -----------------  -----------------  -----------------  -----------------
         O            2.163794320431    -1.158713480722    -0.110602257125    15.994914619570
         O            2.163794320431     1.158850519278    -0.110585257125    15.994914619570
         C           -1.524998679569    -0.705743480722     0.006461742875    12.000000000000
         C           -1.524999679569     0.705878519278     0.006473742875    12.000000000000
         C            0.862694320431    -0.694448480722    -0.033589257125    12.000000000000
         C            0.814220420431     0.693739319278    -0.032971457125    12.000000000000
         C           -0.312789679569    -1.420904480722    -0.019177257125    12.000000000000
         C           -0.312791679569     1.421039519278    -0.019196257125    12.000000000000
         C            2.944272320431     0.000066519278     0.212860742875    12.000000000000
         C           -2.827641679569    -1.463520480722     0.039282742875    12.000000000000
         C           -2.827642679569     1.463654519278     0.039271742875    12.000000000000
         H           -0.298696679569    -2.507844480722    -0.027066257125     1.007825032230
         H           -0.298697679569     2.507979519278    -0.027055257125     1.007825032230
         H            3.163537320431     0.000057519278     1.290208742875     1.007825032230
         H            3.854047320431     0.000071519278    -0.386828257125     1.007825032230
         H           -2.646887679569    -2.541538480722     0.026443742875     1.007825032230
         H           -3.407397679569    -1.231218480722     0.939514742875     1.007825032230
         H           -3.458135679569    -1.218653480722    -0.822571257125     1.007825032230
         H           -3.407385679569     1.231397519278     0.939525742875     1.007825032230
         H           -2.646890679569     2.541672519278     0.026376742875     1.007825032230
         H           -3.458147679569     1.218741519278    -0.822560257125     1.007825032230

  Basis Set: AUG-CC-PVTZ
    Blend: AUG-CC-PVTZ
  Basis Set: (AUG-CC-PVTZ AUX)
    Blend: AUG-CC-PVTZ-JKFIT
	 Reference Energy          =    -496.5108887359890559 [Eh]
	 Singles Energy            =      -0.0000000000000000 [Eh]
	 Same-Spin Energy          =      -0.5240109136362906 [Eh]
	 Opposite-Spin Energy      =      -1.6326893226654020 [Eh]
	 Correlation Energy        =      -2.1567002363016927 [Eh]
	 Total Energy              =    -498.6675889722907300 [Eh]

	 ================> DF-SCS-MP2 Energies <==================
	-----------------------------------------------------------
	 SCS Same-Spin Scale       =       0.3333333333333333 [-]
	 SCS Opposite-Spin Scale   =       1.2000000000000000 [-]
	 SCS Same-Spin Energy      =      -0.1746703045454302 [Eh]
	 SCS Opposite-Spin Energy  =      -1.9592271871984823 [Eh]
	 SCS Correlation Energy    =      -2.1338974917439124 [Eh]
	 SCS Total Energy          =    -498.6447862277329932 [Eh]
	-----------------------------------------------------------

  Dipole Moment: [D]
     X:    -0.8090      Y:    -0.0401      Z:     0.5742     Total:     0.9928

*** Psi4 exiting successfully. Buy a developer a beer!
