                               Psi4 1.4a3.dev225

  ==> Input File <==

--------------------------------------------------------------------------
#psi4
#
memory 32 gb

molecule  {
0 1
  O        2.2381840    -1.1587810    -0.1175950
  O        2.2381840     1.1587830    -0.1175780
  C       -1.4506090    -0.7058110    -0.0005310
  C       -1.4506100     0.7058110    -0.0005190
  C        0.9370840    -0.6945160    -0.0405820
  C        0.9370830     0.6945180    -0.0405590
  C       -0.2384000    -1.4209720    -0.0261700
  C       -0.2384020     1.4209720    -0.0261890
  C        3.0186620    -0.0000010     0.2058680
  C       -2.7532520    -1.4635880     0.0322900
  C       -2.7532530     1.4635870     0.0322790
  H       -0.2243070    -2.5079120    -0.0340590
  H       -0.2243080     2.5079120    -0.0340480
  H        3.2379270    -0.0000100     1.2832160
  H        3.9284370     0.0000040    -0.3938210
  H       -2.5724980    -2.5416060     0.0194510
  H       -3.3330080    -1.2312860     0.9325220
  H       -3.3837460    -1.2187210    -0.8295640
  H       -3.3435784     1.2270905     0.9489659
  H       -2.5725010     2.5416050     0.0193840
  H       -3.3837580     1.2186740    -0.8295530
units angstrom
no_reorient  #important for SAPT in psi4, default
symmetry c1  #important for SAPT in psi4, default
}

set PROPERTIES_ORIGIN ["COM"]
properties('MP2/aug-cc-pvtz', properties = ['dipole'])
--------------------------------------------------------------------------

    Molecular point group: c1
  Charge       = 0
  Multiplicity = 1
  Basis Set: AUG-CC-PVTZ
    Blend: AUG-CC-PVTZ
  Basis Set: (AUG-CC-PVTZ AUX)
    Blend: AUG-CC-PVTZ-JKFIT

    Orbital Energies [Eh]
    ---------------------

    Doubly Occupied:

       1A    -20.596169     2A    -20.596145     3A    -11.352384
       4A    -11.292214     5A    -11.290942     6A    -11.242441
       7A    -11.241339     8A    -11.238414     9A    -11.238335
      10A    -11.227715    11A    -11.225279    12A     -1.467257
      13A     -1.364739    14A     -1.158547    15A     -1.053085
      16A     -1.038248    17A     -0.951749    18A     -0.942580
      19A     -0.882268    20A     -0.836950    21A     -0.795375
      22A     -0.716189    23A     -0.712769    24A     -0.674897
      25A     -0.648240    26A     -0.615136    27A     -0.611126
      28A     -0.594539    29A     -0.574161    30A     -0.565636
      31A     -0.549923    32A     -0.540930    33A     -0.534947
      34A     -0.533093    35A     -0.530510    36A     -0.500583
      37A     -0.491403    38A     -0.441611    39A     -0.334430
      40A     -0.293243

  @DF-RHF Final Energy:  -496.51381966721789

   => Energetics <=

    Nuclear Repulsion Energy =            601.1980606473625812
    One-Electron Energy =               -1868.4326752869308166
    Two-Electron Energy =                 770.7207949723504044
    Total Energy =                       -496.5138196672178310
  Basis Set: (AUG-CC-PVTZ AUX)
    Blend: AUG-CC-PVTZ-RI
    Molecular point group: c1

    Geometry (in Angstrom), charge = 0, multiplicity = 1:

       Center              X                  Y                   Z               Mass
    ------------   -----------------  -----------------  -----------------  -----------------
         O            2.159989316768    -1.158752674438    -0.110665054543    15.994914619570
         O            2.159989316768     1.158811325562    -0.110648054543    15.994914619570
         C           -1.528803683232    -0.705782674438     0.006398945457    12.000000000000
         C           -1.528804683232     0.705839325562     0.006410945457    12.000000000000
         C            0.858889316768    -0.694487674438    -0.033652054543    12.000000000000
         C            0.858888316768     0.694546325562    -0.033629054543    12.000000000000
         C           -0.316594683232    -1.420943674438    -0.019240054543    12.000000000000
         C           -0.316596683232     1.421000325562    -0.019259054543    12.000000000000
         C            2.940467316768     0.000027325562     0.212797945457    12.000000000000
         C           -2.831446683232    -1.463559674438     0.039219945457    12.000000000000
         C           -2.831447683232     1.463615325562     0.039208945457    12.000000000000
         H           -0.302501683232    -2.507883674438    -0.027129054543     1.007825032230
         H           -0.302502683232     2.507940325562    -0.027118054543     1.007825032230
         H            3.159732316768     0.000018325562     1.290145945457     1.007825032230
         H            3.850242316768     0.000032325562    -0.386891054543     1.007825032230
         H           -2.650692683232    -2.541577674438     0.026380945457     1.007825032230
         H           -3.411202683232    -1.231257674438     0.939451945457     1.007825032230
         H           -3.461940683232    -1.218692674438    -0.822634054543     1.007825032230
         H           -3.421773083232     1.227118825562     0.955895845457     1.007825032230
         H           -2.650695683232     2.541633325562     0.026313945457     1.007825032230
         H           -3.461952683232     1.218702325562    -0.822623054543     1.007825032230

  Basis Set: AUG-CC-PVTZ
    Blend: AUG-CC-PVTZ
  Basis Set: (AUG-CC-PVTZ AUX)
    Blend: AUG-CC-PVTZ-JKFIT
	 Reference Energy          =    -496.5138196672178879 [Eh]
	 Singles Energy            =      -0.0000000000000000 [Eh]
	 Same-Spin Energy          =      -0.5240539915269063 [Eh]
	 Opposite-Spin Energy      =      -1.6323708855117045 [Eh]
	 Correlation Energy        =      -2.1564248770386110 [Eh]
	 Total Energy              =    -498.6702445442564908 [Eh]

	 ================> DF-SCS-MP2 Energies <==================
	-----------------------------------------------------------
	 SCS Same-Spin Scale       =       0.3333333333333333 [-]
	 SCS Opposite-Spin Scale   =       1.2000000000000000 [-]
	 SCS Same-Spin Energy      =      -0.1746846638423021 [Eh]
	 SCS Opposite-Spin Energy  =      -1.9588450626140452 [Eh]
	 SCS Correlation Energy    =      -2.1335297264563473 [Eh]
	 SCS Total Energy          =    -498.6473493936742329 [Eh]
	-----------------------------------------------------------

  Dipole Moment: [D]
     X:    -0.5591      Y:    -0.0015      Z:     0.5566     Total:     0.7889

*** Psi4 exiting successfully. Buy a developer a beer!
