                               Psi4 1.4a3.dev225

  ==> Input File <==

--------------------------------------------------------------------------
#psi4
#
memory 32 gb

molecule  {
0 1
  O        2.2733996    -1.1722254    -0.1505297
  O        2.2381840     1.1587830    -0.1175780
  C       -1.4506090    -0.7058110    -0.0005310
  C       -1.4506100     0.7058110    -0.0005190
  C        0.9370840    -0.6945160    -0.0405820
  C        0.9370830     0.6945180    -0.0405590
  C       -0.2384000    -1.4209720    -0.0261700
  C       -0.2384020     1.4209720    -0.0261890
  C        3.0186620    -0.0000010     0.2058680
  C       -2.7532520    -1.4635880     0.0322900
  C       -2.7532530     1.4635870     0.0322790
  H       -0.2243070    -2.5079120    -0.0340590
  H       -0.2243080     2.5079120    -0.0340480
  H        3.2379270    -0.0000100     1.2832160
  H        3.9284370     0.0000040    -0.3938210
  H       -2.5724980    -2.5416060     0.0194510
  H       -3.3330080    -1.2312860     0.9325220
  H       -3.3837460    -1.2187210    -0.8295640
  H       -3.3329960     1.2313300     0.9325330
  H       -2.5725010     2.5416050     0.0193840
  H       -3.3837580     1.2186740    -0.8295530
units angstrom
no_reorient  #important for SAPT in psi4, default
symmetry c1  #important for SAPT in psi4, default
}

set PROPERTIES_ORIGIN ["COM"]
properties('MP2/aug-cc-pvtz', properties = ['dipole'])
--------------------------------------------------------------------------

    Molecular point group: c1
  Charge       = 0
  Multiplicity = 1
  Basis Set: AUG-CC-PVTZ
    Blend: AUG-CC-PVTZ
  Basis Set: (AUG-CC-PVTZ AUX)
    Blend: AUG-CC-PVTZ-JKFIT

    Orbital Energies [Eh]
    ---------------------

    Doubly Occupied:

       1A    -20.596102     2A    -20.595492     3A    -11.349514
       4A    -11.294759     5A    -11.292914     6A    -11.244905
       7A    -11.242937     8A    -11.241226     9A    -11.239555
      10A    -11.226917    11A    -11.226413    12A     -1.459748
      13A     -1.357688    14A     -1.160298    15A     -1.053827
      16A     -1.040031    17A     -0.953689    18A     -0.940266
      19A     -0.882588    20A     -0.837496    21A     -0.793064
      22A     -0.714516    23A     -0.710195    24A     -0.672455
      25A     -0.646565    26A     -0.616567    27A     -0.608747
      28A     -0.596585    29A     -0.572446    30A     -0.565139
      31A     -0.552820    32A     -0.541984    33A     -0.535336
      34A     -0.532063    35A     -0.526672    36A     -0.501966
      37A     -0.492905    38A     -0.442800    39A     -0.336440
      40A     -0.296955

  @DF-RHF Final Energy:  -496.51102644920974

   => Energetics <=

    Nuclear Repulsion Energy =            600.0881226718561265
    One-Electron Energy =               -1866.2131329359935989
    Two-Electron Energy =                 769.6139838149276784
    Total Energy =                       -496.5110264492097940
  Basis Set: (AUG-CC-PVTZ AUX)
    Blend: AUG-CC-PVTZ-RI
    Molecular point group: c1

    Geometry (in Angstrom), charge = 0, multiplicity = 1:

       Center              X                  Y                   Z               Mass
    ------------   -----------------  -----------------  -----------------  -----------------
         O            2.191380414418    -1.170792582847    -0.139979069824    15.994914619570
         O            2.156164814418     1.160215817153    -0.107027369824    15.994914619570
         C           -1.532628185582    -0.704378182847     0.010019630176    12.000000000000
         C           -1.532629185582     0.707243817153     0.010031630176    12.000000000000
         C            0.855064814418    -0.693083182847    -0.030031369824    12.000000000000
         C            0.855063814418     0.695950817153    -0.030008369824    12.000000000000
         C           -0.320419185582    -1.419539182847    -0.015619369824    12.000000000000
         C           -0.320421185582     1.422404817153    -0.015638369824    12.000000000000
         C            2.936642814418     0.001431817153     0.216418630176    12.000000000000
         C           -2.835271185582    -1.462155182847     0.042840630176    12.000000000000
         C           -2.835272185582     1.465019817153     0.042829630176    12.000000000000
         H           -0.306326185582    -2.506479182847    -0.023508369824     1.007825032230
         H           -0.306327185582     2.509344817153    -0.023497369824     1.007825032230
         H            3.155907814418     0.001422817153     1.293766630176     1.007825032230
         H            3.846417814418     0.001436817153    -0.383270369824     1.007825032230
         H           -2.654517185582    -2.540173182847     0.030001630176     1.007825032230
         H           -3.415027185582    -1.229853182847     0.943072630176     1.007825032230
         H           -3.465765185582    -1.217288182847    -0.819013369824     1.007825032230
         H           -3.415015185582     1.232762817153     0.943083630176     1.007825032230
         H           -2.654520185582     2.543037817153     0.029934630176     1.007825032230
         H           -3.465777185582     1.220106817153    -0.819002369824     1.007825032230

  Basis Set: AUG-CC-PVTZ
    Blend: AUG-CC-PVTZ
  Basis Set: (AUG-CC-PVTZ AUX)
    Blend: AUG-CC-PVTZ-JKFIT
	 Reference Energy          =    -496.5110264492097372 [Eh]
	 Singles Energy            =      -0.0000000000000000 [Eh]
	 Same-Spin Energy          =      -0.5243050827611784 [Eh]
	 Opposite-Spin Energy      =      -1.6334298526384801 [Eh]
	 Correlation Energy        =      -2.1577349353996587 [Eh]
	 Total Energy              =    -498.6687613846094109 [Eh]

	 ================> DF-SCS-MP2 Energies <==================
	-----------------------------------------------------------
	 SCS Same-Spin Scale       =       0.3333333333333333 [-]
	 SCS Opposite-Spin Scale   =       1.2000000000000000 [-]
	 SCS Same-Spin Energy      =      -0.1747683609203928 [Eh]
	 SCS Opposite-Spin Energy  =      -1.9601158231661759 [Eh]
	 SCS Correlation Energy    =      -2.1348841840865687 [Eh]
	 SCS Total Energy          =    -498.6459106332962961 [Eh]
	-----------------------------------------------------------

  Dipole Moment: [D]
     X:    -0.8367      Y:     0.0604      Z:     0.6024     Total:     1.0327

*** Psi4 exiting successfully. Buy a developer a beer!
