                               Psi4 1.4a3.dev225

  ==> Input File <==

--------------------------------------------------------------------------
#psi4
#
memory 32 gb

molecule  {
0 1
  O        2.2381840    -1.1587810    -0.1175950
  O        2.2460742     1.1359652    -0.1180455
  C       -1.4506090    -0.7058110    -0.0005310
  C       -1.4506100     0.7058110    -0.0005190
  C        0.9370840    -0.6945160    -0.0405820
  C        0.9370830     0.6945180    -0.0405590
  C       -0.2384000    -1.4209720    -0.0261700
  C       -0.2384020     1.4209720    -0.0261890
  C        3.0186620    -0.0000010     0.2058680
  C       -2.7532520    -1.4635880     0.0322900
  C       -2.7532530     1.4635870     0.0322790
  H       -0.2243070    -2.5079120    -0.0340590
  H       -0.2243080     2.5079120    -0.0340480
  H        3.2379270    -0.0000100     1.2832160
  H        3.9284370     0.0000040    -0.3938210
  H       -2.5724980    -2.5416060     0.0194510
  H       -3.3330080    -1.2312860     0.9325220
  H       -3.3837460    -1.2187210    -0.8295640
  H       -3.3329960     1.2313300     0.9325330
  H       -2.5725010     2.5416050     0.0193840
  H       -3.3837580     1.2186740    -0.8295530
units angstrom
no_reorient  #important for SAPT in psi4, default
symmetry c1  #important for SAPT in psi4, default
}

set PROPERTIES_ORIGIN ["COM"]
properties('MP2/aug-cc-pvtz', properties = ['dipole'])
--------------------------------------------------------------------------

    Molecular point group: c1
  Charge       = 0
  Multiplicity = 1
  Basis Set: AUG-CC-PVTZ
    Blend: AUG-CC-PVTZ
  Basis Set: (AUG-CC-PVTZ AUX)
    Blend: AUG-CC-PVTZ-JKFIT

    Orbital Energies [Eh]
    ---------------------

    Doubly Occupied:

       1A    -20.595475     2A    -20.594562     3A    -11.350149
       4A    -11.292515     5A    -11.290948     6A    -11.242604
       7A    -11.241512     8A    -11.239304     9A    -11.238131
      10A    -11.225558    11A    -11.225464    12A     -1.471722
      13A     -1.365450    14A     -1.159100    15A     -1.054379
      16A     -1.038675    17A     -0.952760    18A     -0.943898
      19A     -0.881106    20A     -0.837388    21A     -0.797113
      22A     -0.717873    23A     -0.714496    24A     -0.677159
      25A     -0.647900    26A     -0.615728    27A     -0.613373
      28A     -0.595567    29A     -0.573937    30A     -0.565514
      31A     -0.551676    32A     -0.541042    33A     -0.534445
      34A     -0.533104    35A     -0.529850    36A     -0.501289
      37A     -0.491178    38A     -0.441191    39A     -0.334795
      40A     -0.293231

  @DF-RHF Final Energy:  -496.51512575620495

   => Energetics <=

    Nuclear Repulsion Energy =            601.7780004629294126
    One-Electron Energy =               -1869.5639289569382981
    Two-Electron Energy =                 771.2708027378039333
    Total Energy =                       -496.5151257562049523
  Basis Set: (AUG-CC-PVTZ AUX)
    Blend: AUG-CC-PVTZ-RI
    Molecular point group: c1

    Geometry (in Angstrom), charge = 0, multiplicity = 1:

       Center              X                  Y                   Z               Mass
    ------------   -----------------  -----------------  -----------------  -----------------
         O            2.159077275491    -1.156349124732    -0.110504866510    15.994914619570
         O            2.166967475491     1.138397075268    -0.110955366510    15.994914619570
         C           -1.529715724509    -0.703379124732     0.006559133490    12.000000000000
         C           -1.529716724509     0.708242875268     0.006571133490    12.000000000000
         C            0.857977275491    -0.692084124732    -0.033491866510    12.000000000000
         C            0.857976275491     0.696949875268    -0.033468866510    12.000000000000
         C           -0.317506724509    -1.418540124732    -0.019079866510    12.000000000000
         C           -0.317508724509     1.423403875268    -0.019098866510    12.000000000000
         C            2.939555275491     0.002430875268     0.212958133490    12.000000000000
         C           -2.832358724509    -1.461156124732     0.039380133490    12.000000000000
         C           -2.832359724509     1.466018875268     0.039369133490    12.000000000000
         H           -0.303413724509    -2.505480124732    -0.026968866510     1.007825032230
         H           -0.303414724509     2.510343875268    -0.026957866510     1.007825032230
         H            3.158820275491     0.002421875268     1.290306133490     1.007825032230
         H            3.849330275491     0.002435875268    -0.386730866510     1.007825032230
         H           -2.651604724509    -2.539174124732     0.026541133490     1.007825032230
         H           -3.412114724509    -1.228854124732     0.939612133490     1.007825032230
         H           -3.462852724509    -1.216289124732    -0.822473866510     1.007825032230
         H           -3.412102724509     1.233761875268     0.939623133490     1.007825032230
         H           -2.651607724509     2.544036875268     0.026474133490     1.007825032230
         H           -3.462864724509     1.221105875268    -0.822462866510     1.007825032230

  Basis Set: AUG-CC-PVTZ
    Blend: AUG-CC-PVTZ
  Basis Set: (AUG-CC-PVTZ AUX)
    Blend: AUG-CC-PVTZ-JKFIT
	 Reference Energy          =    -496.5151257562049523 [Eh]
	 Singles Energy            =      -0.0000000000000000 [Eh]
	 Same-Spin Energy          =      -0.5238957581183014 [Eh]
	 Opposite-Spin Energy      =      -1.6315641035049833 [Eh]
	 Correlation Energy        =      -2.1554598616232847 [Eh]
	 Total Energy              =    -498.6705856178282374 [Eh]

	 ================> DF-SCS-MP2 Energies <==================
	-----------------------------------------------------------
	 SCS Same-Spin Scale       =       0.3333333333333333 [-]
	 SCS Opposite-Spin Scale   =       1.2000000000000000 [-]
	 SCS Same-Spin Energy      =      -0.1746319193727671 [Eh]
	 SCS Opposite-Spin Energy  =      -1.9578769242059799 [Eh]
	 SCS Correlation Energy    =      -2.1325088435787469 [Eh]
	 SCS Total Energy          =    -498.6476345997837143 [Eh]
	-----------------------------------------------------------

  Dipole Moment: [D]
     X:    -0.6161      Y:     0.0552      Z:     0.5518     Total:     0.8289

*** Psi4 exiting successfully. Buy a developer a beer!
