                               Psi4 1.4a3.dev225

  ==> Input File <==

--------------------------------------------------------------------------
#psi4
#
memory 32 gb

molecule  {
0 1
  O        2.2381840    -1.1587810    -0.1175950
  O        2.2381840     1.1587830    -0.1175780
  C       -1.4506090    -0.7058110    -0.0005310
  C       -1.4506100     0.7058110    -0.0005190
  C        0.9370840    -0.6945160    -0.0405820
  C        0.9370830     0.6945180    -0.0405590
  C       -0.2384000    -1.4209720    -0.0261700
  C       -0.2384020     1.4209720    -0.0261890
  C        3.0186620    -0.0000010     0.2058680
  C       -2.7532520    -1.4635880     0.0322900
  C       -2.7532530     1.4635870     0.0322790
  H       -0.2243070    -2.5079120    -0.0340590
  H       -0.2243080     2.5079120    -0.0340480
  H        3.2379270    -0.0000100     1.2832160
  H        3.9284370     0.0000040    -0.3938210
  H       -2.5917841    -2.5445550     0.0522416
  H       -3.3330080    -1.2312860     0.9325220
  H       -3.3837460    -1.2187210    -0.8295640
  H       -3.3329960     1.2313300     0.9325330
  H       -2.5725010     2.5416050     0.0193840
  H       -3.3837580     1.2186740    -0.8295530
units angstrom
no_reorient  #important for SAPT in psi4, default
symmetry c1  #important for SAPT in psi4, default
}

set PROPERTIES_ORIGIN ["COM"]
properties('MP2/aug-cc-pvtz', properties = ['dipole'])
--------------------------------------------------------------------------

    Molecular point group: c1
  Charge       = 0
  Multiplicity = 1
  Basis Set: AUG-CC-PVTZ
    Blend: AUG-CC-PVTZ
  Basis Set: (AUG-CC-PVTZ AUX)
    Blend: AUG-CC-PVTZ-JKFIT

    Orbital Energies [Eh]
    ---------------------

    Doubly Occupied:

       1A    -20.596106     2A    -20.596076     3A    -11.352328
       4A    -11.292128     5A    -11.290855     6A    -11.242485
       7A    -11.241380     8A    -11.238316     9A    -11.238265
      10A    -11.225276    11A    -11.225265    12A     -1.467192
      13A     -1.364673    14A     -1.158497    15A     -1.053225
      16A     -1.038215    17A     -0.952351    18A     -0.942988
      19A     -0.882572    20A     -0.837034    21A     -0.795712
      22A     -0.716129    23A     -0.712640    24A     -0.675184
      25A     -0.648431    26A     -0.614975    27A     -0.610893
      28A     -0.595417    29A     -0.574096    30A     -0.566068
      31A     -0.551665    32A     -0.540957    33A     -0.534856
      34A     -0.532796    35A     -0.530500    36A     -0.500603
      37A     -0.491563    38A     -0.441699    39A     -0.334377
      40A     -0.293258

  @DF-RHF Final Energy:  -496.51422947312994

   => Energetics <=

    Nuclear Repulsion Energy =            601.2491538232437733
    One-Electron Energy =               -1868.5326807657872905
    Two-Electron Energy =                 770.7692974694136865
    Total Energy =                       -496.5142294731299444
  Basis Set: (AUG-CC-PVTZ AUX)
    Blend: AUG-CC-PVTZ-RI
    Molecular point group: c1

    Geometry (in Angstrom), charge = 0, multiplicity = 1:

       Center              X                  Y                   Z               Mass
    ------------   -----------------  -----------------  -----------------  -----------------
         O            2.160047768950    -1.158761341159    -0.110774909348    15.994914619570
         O            2.160047768950     1.158802658841    -0.110757909348    15.994914619570
         C           -1.528745231050    -0.705791341159     0.006289090652    12.000000000000
         C           -1.528746231050     0.705830658841     0.006301090652    12.000000000000
         C            0.858947768950    -0.694496341159    -0.033761909348    12.000000000000
         C            0.858946768950     0.694537658841    -0.033738909348    12.000000000000
         C           -0.316536231050    -1.420952341159    -0.019349909348    12.000000000000
         C           -0.316538231050     1.420991658841    -0.019368909348    12.000000000000
         C            2.940525768950     0.000018658841     0.212688090652    12.000000000000
         C           -2.831388231050    -1.463568341159     0.039110090652    12.000000000000
         C           -2.831389231050     1.463606658841     0.039099090652    12.000000000000
         H           -0.302443231050    -2.507892341159    -0.027238909348     1.007825032230
         H           -0.302444231050     2.507931658841    -0.027227909348     1.007825032230
         H            3.159790768950     0.000009658841     1.290036090652     1.007825032230
         H            3.850300768950     0.000023658841    -0.387000909348     1.007825032230
         H           -2.669920331050    -2.544535341159     0.059061690652     1.007825032230
         H           -3.411144231050    -1.231266341159     0.939342090652     1.007825032230
         H           -3.461882231050    -1.218701341159    -0.822743909348     1.007825032230
         H           -3.411132231050     1.231349658841     0.939353090652     1.007825032230
         H           -2.650637231050     2.541624658841     0.026204090652     1.007825032230
         H           -3.461894231050     1.218693658841    -0.822732909348     1.007825032230

  Basis Set: AUG-CC-PVTZ
    Blend: AUG-CC-PVTZ
  Basis Set: (AUG-CC-PVTZ AUX)
    Blend: AUG-CC-PVTZ-JKFIT
	 Reference Energy          =    -496.5142294731299444 [Eh]
	 Singles Energy            =      -0.0000000000000000 [Eh]
	 Same-Spin Energy          =      -0.5240358065382351 [Eh]
	 Opposite-Spin Energy      =      -1.6322252921967966 [Eh]
	 Correlation Energy        =      -2.1562610987350315 [Eh]
	 Total Energy              =    -498.6704905718650025 [Eh]

	 ================> DF-SCS-MP2 Energies <==================
	-----------------------------------------------------------
	 SCS Same-Spin Scale       =       0.3333333333333333 [-]
	 SCS Opposite-Spin Scale   =       1.2000000000000000 [-]
	 SCS Same-Spin Energy      =      -0.1746786021794117 [Eh]
	 SCS Opposite-Spin Energy  =      -1.9586703506361558 [Eh]
	 SCS Correlation Energy    =      -2.1333489528155676 [Eh]
	 SCS Total Energy          =    -498.6475784259455395 [Eh]
	-----------------------------------------------------------

  Dipole Moment: [D]
     X:    -0.5733      Y:    -0.0055      Z:     0.5756     Total:     0.8124

*** Psi4 exiting successfully. Buy a developer a beer!
