                               Psi4 1.4a3.dev225

  ==> Input File <==

--------------------------------------------------------------------------
#psi4
#
memory 32 gb

molecule  {
0 1
  O        2.2381840    -1.1587810    -0.1175950
  O        2.2381840     1.1587830    -0.1175780
  C       -1.4506090    -0.7058110    -0.0005310
  C       -1.4506100     0.7058110    -0.0005190
  C        0.9370840    -0.6945160    -0.0405820
  C        0.9370830     0.6945180    -0.0405590
  C       -0.2384000    -1.4209720    -0.0261700
  C       -0.2384020     1.4209720    -0.0261890
  C        3.0186620    -0.0000010     0.2058680
  C       -2.7359684    -1.4535337     0.0318545
  C       -2.7532530     1.4635870     0.0322790
  H       -0.2243070    -2.5079120    -0.0340590
  H       -0.2243080     2.5079120    -0.0340480
  H        3.2379270    -0.0000100     1.2832160
  H        3.9284370     0.0000040    -0.3938210
  H       -2.5724980    -2.5416060     0.0194510
  H       -3.3330080    -1.2312860     0.9325220
  H       -3.3837460    -1.2187210    -0.8295640
  H       -3.3329960     1.2313300     0.9325330
  H       -2.5725010     2.5416050     0.0193840
  H       -3.3837580     1.2186740    -0.8295530
units angstrom
no_reorient  #important for SAPT in psi4, default
symmetry c1  #important for SAPT in psi4, default
}

set PROPERTIES_ORIGIN ["COM"]
properties('MP2/aug-cc-pvtz', properties = ['dipole'])
--------------------------------------------------------------------------

    Molecular point group: c1
  Charge       = 0
  Multiplicity = 1
  Basis Set: AUG-CC-PVTZ
    Blend: AUG-CC-PVTZ
  Basis Set: (AUG-CC-PVTZ AUX)
    Blend: AUG-CC-PVTZ-JKFIT

    Orbital Energies [Eh]
    ---------------------

    Doubly Occupied:

       1A    -20.596185     2A    -20.596158     3A    -11.352392
       4A    -11.292217     5A    -11.290945     6A    -11.242094
       7A    -11.240627     8A    -11.238368     9A    -11.238263
      10A    -11.226011    11A    -11.225332    12A     -1.467271
      13A     -1.364752    14A     -1.159299    15A     -1.054520
      16A     -1.039242    17A     -0.952514    18A     -0.942832
      19A     -0.882190    20A     -0.837006    21A     -0.795499
      22A     -0.716353    23A     -0.712970    24A     -0.675874
      25A     -0.648864    26A     -0.615159    27A     -0.611318
      28A     -0.594795    29A     -0.574171    30A     -0.567717
      31A     -0.549724    32A     -0.540559    33A     -0.534922
      34A     -0.532197    35A     -0.529507    36A     -0.502826
      37A     -0.491525    38A     -0.441264    39A     -0.334336
      40A     -0.293059

  @DF-RHF Final Energy:  -496.51363281231170

   => Energetics <=

    Nuclear Repulsion Energy =            601.6571598368008154
    One-Electron Energy =               -1869.3398735514867894
    Two-Electron Energy =                 771.1690809023743896
    Total Energy =                       -496.5136328123116982
  Basis Set: (AUG-CC-PVTZ AUX)
    Blend: AUG-CC-PVTZ-RI
    Molecular point group: c1

    Geometry (in Angstrom), charge = 0, multiplicity = 1:

       Center              X                  Y                   Z               Mass
    ------------   -----------------  -----------------  -----------------  -----------------
         O            2.158536186907    -1.159585125114    -0.110519870517    15.994914619570
         O            2.158536186907     1.157978874886    -0.110502870517    15.994914619570
         C           -1.530256813093    -0.706615125114     0.006544129483    12.000000000000
         C           -1.530257813093     0.705006874886     0.006556129483    12.000000000000
         C            0.857436186907    -0.695320125114    -0.033506870517    12.000000000000
         C            0.857435186907     0.693713874886    -0.033483870517    12.000000000000
         C           -0.318047813093    -1.421776125114    -0.019094870517    12.000000000000
         C           -0.318049813093     1.420167874886    -0.019113870517    12.000000000000
         C            2.939014186907    -0.000805125114     0.212943129483    12.000000000000
         C           -2.815616213093    -1.454337825114     0.038929629483    12.000000000000
         C           -2.832900813093     1.462782874886     0.039354129483    12.000000000000
         H           -0.303954813093    -2.508716125114    -0.026983870517     1.007825032230
         H           -0.303955813093     2.507107874886    -0.026972870517     1.007825032230
         H            3.158279186907    -0.000814125114     1.290291129483     1.007825032230
         H            3.848789186907    -0.000800125114    -0.386745870517     1.007825032230
         H           -2.652145813093    -2.542410125114     0.026526129483     1.007825032230
         H           -3.412655813093    -1.232090125114     0.939597129483     1.007825032230
         H           -3.463393813093    -1.219525125114    -0.822488870517     1.007825032230
         H           -3.412643813093     1.230525874886     0.939608129483     1.007825032230
         H           -2.652148813093     2.540800874886     0.026459129483     1.007825032230
         H           -3.463405813093     1.217869874886    -0.822477870517     1.007825032230

  Basis Set: AUG-CC-PVTZ
    Blend: AUG-CC-PVTZ
  Basis Set: (AUG-CC-PVTZ AUX)
    Blend: AUG-CC-PVTZ-JKFIT
	 Reference Energy          =    -496.5136328123116982 [Eh]
	 Singles Energy            =      -0.0000000000000000 [Eh]
	 Same-Spin Energy          =      -0.5242501246651972 [Eh]
	 Opposite-Spin Energy      =      -1.6324318212561237 [Eh]
	 Correlation Energy        =      -2.1566819459213207 [Eh]
	 Total Energy              =    -498.6703147582330189 [Eh]

	 ================> DF-SCS-MP2 Energies <==================
	-----------------------------------------------------------
	 SCS Same-Spin Scale       =       0.3333333333333333 [-]
	 SCS Opposite-Spin Scale   =       1.2000000000000000 [-]
	 SCS Same-Spin Energy      =      -0.1747500415550657 [Eh]
	 SCS Opposite-Spin Energy  =      -1.9589181855073483 [Eh]
	 SCS Correlation Energy    =      -2.1336682270624139 [Eh]
	 SCS Total Energy          =    -498.6473010393740992 [Eh]
	-----------------------------------------------------------

  Dipole Moment: [D]
     X:    -0.5677      Y:     0.0014      Z:     0.5639     Total:     0.8002

*** Psi4 exiting successfully. Buy a developer a beer!
