                               Psi4 1.4a3.dev225

  ==> Input File <==

--------------------------------------------------------------------------
#psi4
#
memory 32 gb

molecule  {
0 1
  O        2.2381840    -1.1587810    -0.1175950
  O        2.2381840     1.1587830    -0.1175780
  C       -1.4506090    -0.7058110    -0.0005310
  C       -1.5013985     0.6407500    -0.1349886
  C        0.9370840    -0.6945160    -0.0405820
  C        0.9370830     0.6945180    -0.0405590
  C       -0.2384000    -1.4209720    -0.0261700
  C       -0.2384020     1.4209720    -0.0261890
  C        3.0186620    -0.0000010     0.2058680
  C       -2.7532520    -1.4635880     0.0322900
  C       -2.7532530     1.4635870     0.0322790
  H       -0.2243070    -2.5079120    -0.0340590
  H       -0.2243080     2.5079120    -0.0340480
  H        3.2379270    -0.0000100     1.2832160
  H        3.9284370     0.0000040    -0.3938210
  H       -2.5724980    -2.5416060     0.0194510
  H       -3.3330080    -1.2312860     0.9325220
  H       -3.3837460    -1.2187210    -0.8295640
  H       -3.3329960     1.2313300     0.9325330
  H       -2.5725010     2.5416050     0.0193840
  H       -3.3837580     1.2186740    -0.8295530
units angstrom
no_reorient  #important for SAPT in psi4, default
symmetry c1  #important for SAPT in psi4, default
}

set PROPERTIES_ORIGIN ["COM"]
properties('MP2/aug-cc-pvtz', properties = ['dipole'])
--------------------------------------------------------------------------

    Molecular point group: c1
  Charge       = 0
  Multiplicity = 1
  Basis Set: AUG-CC-PVTZ
    Blend: AUG-CC-PVTZ
  Basis Set: (AUG-CC-PVTZ AUX)
    Blend: AUG-CC-PVTZ-JKFIT

    Orbital Energies [Eh]
    ---------------------

    Doubly Occupied:

       1A    -20.598594     2A    -20.597502     3A    -11.353462
       4A    -11.295300     5A    -11.292709     6A    -11.244043
       7A    -11.241490     8A    -11.238203     9A    -11.235447
      10A    -11.224942    11A    -11.223491    12A     -1.469190
      13A     -1.366478    14A     -1.158726    15A     -1.058500
      16A     -1.030262    17A     -0.951162    18A     -0.941752
      19A     -0.885242    20A     -0.845612    21A     -0.789656
      22A     -0.716470    23A     -0.711843    24A     -0.673624
      25A     -0.649029    26A     -0.614253    27A     -0.611236
      28A     -0.595584    29A     -0.575572    30A     -0.570176
      31A     -0.550234    32A     -0.541896    33A     -0.536421
      34A     -0.533496    35A     -0.528432    36A     -0.502468
      37A     -0.480546    38A     -0.440823    39A     -0.327187
      40A     -0.301304

  @DF-RHF Final Energy:  -496.50051615391209

   => Energetics <=

    Nuclear Repulsion Energy =            601.0992533162562950
    One-Electron Energy =               -1868.1948267345480872
    Two-Electron Energy =                 770.5950572643795340
    Total Energy =                       -496.5005161539121445
  Basis Set: (AUG-CC-PVTZ AUX)
    Blend: AUG-CC-PVTZ-RI
    Molecular point group: c1

    Geometry (in Angstrom), charge = 0, multiplicity = 1:

       Center              X                  Y                   Z               Mass
    ------------   -----------------  -----------------  -----------------  -----------------
         O            2.163979484392    -1.153578627246    -0.099802006967    15.994914619570
         O            2.163979484392     1.163985372754    -0.099785006967    15.994914619570
         C           -1.524813515608    -0.700608627246     0.017261993033    12.000000000000
         C           -1.575603015608     0.645952372754    -0.117195606967    12.000000000000
         C            0.862879484392    -0.689313627246    -0.022789006967    12.000000000000
         C            0.862878484392     0.699720372754    -0.022766006967    12.000000000000
         C           -0.312604515608    -1.415769627246    -0.008377006967    12.000000000000
         C           -0.312606515608     1.426174372754    -0.008396006967    12.000000000000
         C            2.944457484392     0.005201372754     0.223660993033    12.000000000000
         C           -2.827456515608    -1.458385627246     0.050082993033    12.000000000000
         C           -2.827457515608     1.468789372754     0.050071993033    12.000000000000
         H           -0.298511515608    -2.502709627246    -0.016266006967     1.007825032230
         H           -0.298512515608     2.513114372754    -0.016255006967     1.007825032230
         H            3.163722484392     0.005192372754     1.301008993033     1.007825032230
         H            3.854232484392     0.005206372754    -0.376028006967     1.007825032230
         H           -2.646702515608    -2.536403627246     0.037243993033     1.007825032230
         H           -3.407212515608    -1.226083627246     0.950314993033     1.007825032230
         H           -3.457950515608    -1.213518627246    -0.811771006967     1.007825032230
         H           -3.407200515608     1.236532372754     0.950325993033     1.007825032230
         H           -2.646705515608     2.546807372754     0.037176993033     1.007825032230
         H           -3.457962515608     1.223876372754    -0.811760006967     1.007825032230

  Basis Set: AUG-CC-PVTZ
    Blend: AUG-CC-PVTZ
  Basis Set: (AUG-CC-PVTZ AUX)
    Blend: AUG-CC-PVTZ-JKFIT
	 Reference Energy          =    -496.5005161539120877 [Eh]
	 Singles Energy            =      -0.0000000000000000 [Eh]
	 Same-Spin Energy          =      -0.5239604339725509 [Eh]
	 Opposite-Spin Energy      =      -1.6333247014450216 [Eh]
	 Correlation Energy        =      -2.1572851354175726 [Eh]
	 Total Energy              =    -498.6578012893296545 [Eh]

	 ================> DF-SCS-MP2 Energies <==================
	-----------------------------------------------------------
	 SCS Same-Spin Scale       =       0.3333333333333333 [-]
	 SCS Opposite-Spin Scale   =       1.2000000000000000 [-]
	 SCS Same-Spin Energy      =      -0.1746534779908503 [Eh]
	 SCS Opposite-Spin Energy  =      -1.9599896417340259 [Eh]
	 SCS Correlation Energy    =      -2.1346431197248763 [Eh]
	 SCS Total Energy          =    -498.6351592736369867 [Eh]
	-----------------------------------------------------------

  Dipole Moment: [D]
     X:    -0.4692      Y:    -0.0167      Z:     0.6298     Total:     0.7855

*** Psi4 exiting successfully. Buy a developer a beer!
