                               Psi4 1.4a3.dev225

  ==> Input File <==

--------------------------------------------------------------------------
#psi4
#
memory 32 gb

molecule  {
0 1
  O        2.2381840    -1.1587810    -0.1175950
  O        2.2381840     1.1587830    -0.1175780
  C       -1.4506090    -0.7058110    -0.0005310
  C       -1.4506100     0.7058110    -0.0005190
  C        0.9370840    -0.6945160    -0.0405820
  C        0.9370830     0.6945180    -0.0405590
  C       -0.2384000    -1.4209720    -0.0261700
  C       -0.2384020     1.4209720    -0.0261890
  C        3.0186620    -0.0000010     0.2058680
  C       -2.7532520    -1.4635880     0.0322900
  C       -2.7532530     1.4635870     0.0322790
  H       -0.2243070    -2.5079120    -0.0340590
  H       -0.2243080     2.5079120    -0.0340480
  H        3.2379270    -0.0000100     1.2832160
  H        3.9284370     0.0000040    -0.3938210
  H       -2.5724980    -2.5416060     0.0194510
  H       -3.3330080    -1.2312860     0.9325220
  H       -3.3837460    -1.2187210    -0.8295640
  H       -3.3859080     1.2101324     1.0146974
  H       -2.5725010     2.5416050     0.0193840
  H       -3.3837580     1.2186740    -0.8295530
units angstrom
no_reorient  #important for SAPT in psi4, default
symmetry c1  #important for SAPT in psi4, default
}

set PROPERTIES_ORIGIN ["COM"]
properties('MP2/aug-cc-pvtz', properties = ['dipole'])
--------------------------------------------------------------------------

    Molecular point group: c1
  Charge       = 0
  Multiplicity = 1
  Basis Set: AUG-CC-PVTZ
    Blend: AUG-CC-PVTZ
  Basis Set: (AUG-CC-PVTZ AUX)
    Blend: AUG-CC-PVTZ-JKFIT

    Orbital Energies [Eh]
    ---------------------

    Doubly Occupied:

       1A    -20.596535     2A    -20.596441     3A    -11.352653
       4A    -11.292658     5A    -11.291375     6A    -11.243055
       7A    -11.241908     8A    -11.239056     9A    -11.238624
      10A    -11.237014    11A    -11.225154    12A     -1.467586
      13A     -1.365066    14A     -1.158847    15A     -1.052664
      16A     -1.038133    17A     -0.950217    18A     -0.941040
      19A     -0.881552    20A     -0.836886    21A     -0.794712
      22A     -0.716362    23A     -0.713020    24A     -0.674628
      25A     -0.648525    26A     -0.615516    27A     -0.610956
      28A     -0.592034    29A     -0.574483    30A     -0.565178
      31A     -0.545690    32A     -0.540060    33A     -0.534737
      34A     -0.530905    35A     -0.529489    36A     -0.499139
      37A     -0.491906    38A     -0.441180    39A     -0.334664
      40A     -0.293401

  @DF-RHF Final Energy:  -496.50786776837890

   => Energetics <=

    Nuclear Repulsion Energy =            600.8669478697272552
    One-Electron Energy =               -1867.7635333585658373
    Two-Electron Energy =                 770.3887177204596810
    Total Energy =                       -496.5078677683789010
  Basis Set: (AUG-CC-PVTZ AUX)
    Blend: AUG-CC-PVTZ-RI
    Molecular point group: c1

    Geometry (in Angstrom), charge = 0, multiplicity = 1:

       Center              X                  Y                   Z               Mass
    ------------   -----------------  -----------------  -----------------  -----------------
         O            2.160273593282    -1.158638787476    -0.111106493198    15.994914619570
         O            2.160273593282     1.158925212524    -0.111089493198    15.994914619570
         C           -1.528519406718    -0.705668787476     0.005957506802    12.000000000000
         C           -1.528520406718     0.705953212524     0.005969506802    12.000000000000
         C            0.859173593282    -0.694373787476    -0.034093493198    12.000000000000
         C            0.859172593282     0.694660212524    -0.034070493198    12.000000000000
         C           -0.316310406718    -1.420829787476    -0.019681493198    12.000000000000
         C           -0.316312406718     1.421114212524    -0.019700493198    12.000000000000
         C            2.940751593282     0.000141212524     0.212356506802    12.000000000000
         C           -2.831162406718    -1.463445787476     0.038778506802    12.000000000000
         C           -2.831163406718     1.463729212524     0.038767506802    12.000000000000
         H           -0.302217406718    -2.507769787476    -0.027570493198     1.007825032230
         H           -0.302218406718     2.508054212524    -0.027559493198     1.007825032230
         H            3.160016593282     0.000132212524     1.289704506802     1.007825032230
         H            3.850526593282     0.000146212524    -0.387332493198     1.007825032230
         H           -2.650408406718    -2.541463787476     0.025939506802     1.007825032230
         H           -3.410918406718    -1.231143787476     0.939010506802     1.007825032230
         H           -3.461656406718    -1.218578787476    -0.823075493198     1.007825032230
         H           -3.463818406718     1.210274612524     1.021185906802     1.007825032230
         H           -2.650411406718     2.541747212524     0.025872506802     1.007825032230
         H           -3.461668406718     1.218816212524    -0.823064493198     1.007825032230

  Basis Set: AUG-CC-PVTZ
    Blend: AUG-CC-PVTZ
  Basis Set: (AUG-CC-PVTZ AUX)
    Blend: AUG-CC-PVTZ-JKFIT
	 Reference Energy          =    -496.5078677683789010 [Eh]
	 Singles Energy            =      -0.0000000000000000 [Eh]
	 Same-Spin Energy          =      -0.5240994548758034 [Eh]
	 Opposite-Spin Energy      =      -1.6329736273108688 [Eh]
	 Correlation Energy        =      -2.1570730821866722 [Eh]
	 Total Energy              =    -498.6649408505655856 [Eh]

	 ================> DF-SCS-MP2 Energies <==================
	-----------------------------------------------------------
	 SCS Same-Spin Scale       =       0.3333333333333333 [-]
	 SCS Opposite-Spin Scale   =       1.2000000000000000 [-]
	 SCS Same-Spin Energy      =      -0.1746998182919345 [Eh]
	 SCS Opposite-Spin Energy  =      -1.9595683527730425 [Eh]
	 SCS Correlation Energy    =      -2.1342681710649769 [Eh]
	 SCS Total Energy          =    -498.6421359394439037 [Eh]
	-----------------------------------------------------------

  Dipole Moment: [D]
     X:    -0.5070      Y:    -0.0092      Z:     0.5221     Total:     0.7278

*** Psi4 exiting successfully. Buy a developer a beer!
