                               Psi4 1.4a3.dev225

  ==> Input File <==

--------------------------------------------------------------------------
#psi4
#
memory 32 gb

molecule  {
0 1
  O        2.2381840    -1.1587810    -0.1175950
  O        2.2381840     1.1587830    -0.1175780
  C       -1.4506090    -0.7058110    -0.0005310
  C       -1.4506100     0.7058110    -0.0005190
  C        0.9370840    -0.6945160    -0.0405820
  C        1.0822657     0.6869089    -0.0423406
  C       -0.2384000    -1.4209720    -0.0261700
  C       -0.2384020     1.4209720    -0.0261890
  C        3.0186620    -0.0000010     0.2058680
  C       -2.7532520    -1.4635880     0.0322900
  C       -2.7532530     1.4635870     0.0322790
  H       -0.2243070    -2.5079120    -0.0340590
  H       -0.2243080     2.5079120    -0.0340480
  H        3.2379270    -0.0000100     1.2832160
  H        3.9284370     0.0000040    -0.3938210
  H       -2.5724980    -2.5416060     0.0194510
  H       -3.3330080    -1.2312860     0.9325220
  H       -3.3837460    -1.2187210    -0.8295640
  H       -3.3329960     1.2313300     0.9325330
  H       -2.5725010     2.5416050     0.0193840
  H       -3.3837580     1.2186740    -0.8295530
units angstrom
no_reorient  #important for SAPT in psi4, default
symmetry c1  #important for SAPT in psi4, default
}

set PROPERTIES_ORIGIN ["COM"]
properties('MP2/aug-cc-pvtz', properties = ['dipole'])
--------------------------------------------------------------------------

    Molecular point group: c1
  Charge       = 0
  Multiplicity = 1
  Basis Set: AUG-CC-PVTZ
    Blend: AUG-CC-PVTZ
  Basis Set: (AUG-CC-PVTZ AUX)
    Blend: AUG-CC-PVTZ-JKFIT

    Orbital Energies [Eh]
    ---------------------

    Doubly Occupied:

       1A    -20.617411     2A    -20.592363     3A    -11.362408
       4A    -11.301347     5A    -11.282700     6A    -11.241974
       7A    -11.239301     8A    -11.237290     9A    -11.235119
      10A    -11.222693    11A    -11.221514    12A     -1.516519
      13A     -1.391895    14A     -1.144288    15A     -1.049231
      16A     -1.025832    17A     -0.954989    18A     -0.936875
      19A     -0.892516    20A     -0.833797    21A     -0.806066
      22A     -0.733881    23A     -0.721161    24A     -0.687300
      25A     -0.647299    26A     -0.611939    27A     -0.604300
      28A     -0.598480    29A     -0.591176    30A     -0.571872
      31A     -0.552747    32A     -0.548114    33A     -0.536581
      34A     -0.535532    35A     -0.520145    36A     -0.497890
      37A     -0.475409    38A     -0.437608    39A     -0.322462
      40A     -0.279964

  @DF-RHF Final Energy:  -496.48424742647762

   => Energetics <=

    Nuclear Repulsion Energy =            601.7230332330196916
    One-Electron Energy =               -1869.2545880632210356
    Two-Electron Energy =                 771.0473074037238348
    Total Energy =                       -496.4842474264776229
  Basis Set: (AUG-CC-PVTZ AUX)
    Blend: AUG-CC-PVTZ-RI
    Molecular point group: c1

    Geometry (in Angstrom), charge = 0, multiplicity = 1:

       Center              X                  Y                   Z               Mass
    ------------   -----------------  -----------------  -----------------  -----------------
         O            2.148308900701    -1.158172694165    -0.110412231371    15.994914619570
         O            2.148308900701     1.159391305835    -0.110395231371    15.994914619570
         C           -1.540484099299    -0.705202694165     0.006651768629    12.000000000000
         C           -1.540485099299     0.706419305835     0.006663768629    12.000000000000
         C            0.847208900701    -0.693907694165    -0.033399231371    12.000000000000
         C            0.992390600701     0.687517205835    -0.035157831371    12.000000000000
         C           -0.328275099299    -1.420363694165    -0.018987231371    12.000000000000
         C           -0.328277099299     1.421580305835    -0.019006231371    12.000000000000
         C            2.928786900701     0.000607305835     0.213050768629    12.000000000000
         C           -2.843127099299    -1.462979694165     0.039472768629    12.000000000000
         C           -2.843128099299     1.464195305835     0.039461768629    12.000000000000
         H           -0.314182099299    -2.507303694165    -0.026876231371     1.007825032230
         H           -0.314183099299     2.508520305835    -0.026865231371     1.007825032230
         H            3.148051900701     0.000598305835     1.290398768629     1.007825032230
         H            3.838561900701     0.000612305835    -0.386638231371     1.007825032230
         H           -2.662373099299    -2.540997694165     0.026633768629     1.007825032230
         H           -3.422883099299    -1.230677694165     0.939704768629     1.007825032230
         H           -3.473621099299    -1.218112694165    -0.822381231371     1.007825032230
         H           -3.422871099299     1.231938305835     0.939715768629     1.007825032230
         H           -2.662376099299     2.542213305835     0.026566768629     1.007825032230
         H           -3.473633099299     1.219282305835    -0.822370231371     1.007825032230

  Basis Set: AUG-CC-PVTZ
    Blend: AUG-CC-PVTZ
  Basis Set: (AUG-CC-PVTZ AUX)
    Blend: AUG-CC-PVTZ-JKFIT
	 Reference Energy          =    -496.4842474264776229 [Eh]
	 Singles Energy            =      -0.0000000000000000 [Eh]
	 Same-Spin Energy          =      -0.5250463391408706 [Eh]
	 Opposite-Spin Energy      =      -1.6330030483738598 [Eh]
	 Correlation Energy        =      -2.1580493875147306 [Eh]
	 Total Energy              =    -498.6422968139923455 [Eh]

	 ================> DF-SCS-MP2 Energies <==================
	-----------------------------------------------------------
	 SCS Same-Spin Scale       =       0.3333333333333333 [-]
	 SCS Opposite-Spin Scale   =       1.2000000000000000 [-]
	 SCS Same-Spin Energy      =      -0.1750154463802902 [Eh]
	 SCS Opposite-Spin Energy  =      -1.9596036580486316 [Eh]
	 SCS Correlation Energy    =      -2.1346191044289218 [Eh]
	 SCS Total Energy          =    -498.6188665309065300 [Eh]
	-----------------------------------------------------------

  Dipole Moment: [D]
     X:     0.2177      Y:     0.1689      Z:     0.5272     Total:     0.5949

*** Psi4 exiting successfully. Buy a developer a beer!
