                               Psi4 1.4a3.dev225

  ==> Input File <==

--------------------------------------------------------------------------
#psi4
#
memory 32 gb

molecule  {
0 1
  O        2.2381840    -1.1587810    -0.1175950
  O        2.2381840     1.1587830    -0.1175780
  C       -1.4506090    -0.7058110    -0.0005310
  C       -1.4506100     0.7058110    -0.0005190
  C        0.8900652    -0.6777385    -0.0377989
  C        0.9370830     0.6945180    -0.0405590
  C       -0.2384000    -1.4209720    -0.0261700
  C       -0.2384020     1.4209720    -0.0261890
  C        3.0186620    -0.0000010     0.2058680
  C       -2.7532520    -1.4635880     0.0322900
  C       -2.7532530     1.4635870     0.0322790
  H       -0.2243070    -2.5079120    -0.0340590
  H       -0.2243080     2.5079120    -0.0340480
  H        3.2379270    -0.0000100     1.2832160
  H        3.9284370     0.0000040    -0.3938210
  H       -2.5724980    -2.5416060     0.0194510
  H       -3.3330080    -1.2312860     0.9325220
  H       -3.3837460    -1.2187210    -0.8295640
  H       -3.3329960     1.2313300     0.9325330
  H       -2.5725010     2.5416050     0.0193840
  H       -3.3837580     1.2186740    -0.8295530
units angstrom
no_reorient  #important for SAPT in psi4, default
symmetry c1  #important for SAPT in psi4, default
}

set PROPERTIES_ORIGIN ["COM"]
properties('MP2/aug-cc-pvtz', properties = ['dipole'])
--------------------------------------------------------------------------

    Molecular point group: c1
  Charge       = 0
  Multiplicity = 1
  Basis Set: AUG-CC-PVTZ
    Blend: AUG-CC-PVTZ
  Basis Set: (AUG-CC-PVTZ AUX)
    Blend: AUG-CC-PVTZ-JKFIT

    Orbital Energies [Eh]
    ---------------------

    Doubly Occupied:

       1A    -20.596489     2A    -20.588867     3A    -11.348504
       4A    -11.292478     5A    -11.288189     6A    -11.244003
       7A    -11.242756     8A    -11.239374     9A    -11.237718
      10A    -11.226588    11A    -11.226390    12A     -1.457489
      13A     -1.352138    14A     -1.164863    15A     -1.056254
      16A     -1.042381    17A     -0.955839    18A     -0.940083
      19A     -0.881940    20A     -0.839102    21A     -0.792361
      22A     -0.714404    23A     -0.708823    24A     -0.670631
      25A     -0.647904    26A     -0.619978    27A     -0.610355
      28A     -0.596940    29A     -0.567865    30A     -0.563011
      31A     -0.552577    32A     -0.541893    33A     -0.536432
      34A     -0.530584    35A     -0.527577    36A     -0.501723
      37A     -0.493545    38A     -0.442389    39A     -0.338568
      40A     -0.297848

  @DF-RHF Final Energy:  -496.51111964960899

   => Energetics <=

    Nuclear Repulsion Energy =            601.4455016065501241
    One-Electron Energy =               -1868.9595371102368517
    Two-Electron Energy =                 771.0029158540777416
    Total Energy =                       -496.5111196496089860
  Basis Set: (AUG-CC-PVTZ AUX)
    Blend: AUG-CC-PVTZ-RI
    Molecular point group: c1

    Geometry (in Angstrom), charge = 0, multiplicity = 1:

       Center              X                  Y                   Z               Mass
    ------------   -----------------  -----------------  -----------------  -----------------
         O            2.163678045204    -1.160122737111    -0.110777241706    15.994914619570
         O            2.163678045204     1.157441262889    -0.110760241706    15.994914619570
         C           -1.525114954796    -0.707152737111     0.006286758294    12.000000000000
         C           -1.525115954796     0.704469262889     0.006298758294    12.000000000000
         C            0.815559245204    -0.679080237111    -0.030981141706    12.000000000000
         C            0.862577045204     0.693176262889    -0.033741241706    12.000000000000
         C           -0.312905954796    -1.422313737111    -0.019352241706    12.000000000000
         C           -0.312907954796     1.419630262889    -0.019371241706    12.000000000000
         C            2.944156045204    -0.001342737111     0.212685758294    12.000000000000
         C           -2.827757954796    -1.464929737111     0.039107758294    12.000000000000
         C           -2.827758954796     1.462245262889     0.039096758294    12.000000000000
         H           -0.298812954796    -2.509253737111    -0.027241241706     1.007825032230
         H           -0.298813954796     2.506570262889    -0.027230241706     1.007825032230
         H            3.163421045204    -0.001351737111     1.290033758294     1.007825032230
         H            3.853931045204    -0.001337737111    -0.387003241706     1.007825032230
         H           -2.647003954796    -2.542947737111     0.026268758294     1.007825032230
         H           -3.407513954796    -1.232627737111     0.939339758294     1.007825032230
         H           -3.458251954796    -1.220062737111    -0.822746241706     1.007825032230
         H           -3.407501954796     1.229988262889     0.939350758294     1.007825032230
         H           -2.647006954796     2.540263262889     0.026201758294     1.007825032230
         H           -3.458263954796     1.217332262889    -0.822735241706     1.007825032230

  Basis Set: AUG-CC-PVTZ
    Blend: AUG-CC-PVTZ
  Basis Set: (AUG-CC-PVTZ AUX)
    Blend: AUG-CC-PVTZ-JKFIT
	 Reference Energy          =    -496.5111196496089860 [Eh]
	 Singles Energy            =      -0.0000000000000000 [Eh]
	 Same-Spin Energy          =      -0.5240538765185324 [Eh]
	 Opposite-Spin Energy      =      -1.6326574212793177 [Eh]
	 Correlation Energy        =      -2.1567112977978500 [Eh]
	 Total Energy              =    -498.6678309474068556 [Eh]

	 ================> DF-SCS-MP2 Energies <==================
	-----------------------------------------------------------
	 SCS Same-Spin Scale       =       0.3333333333333333 [-]
	 SCS Opposite-Spin Scale   =       1.2000000000000000 [-]
	 SCS Same-Spin Energy      =      -0.1746846255061775 [Eh]
	 SCS Opposite-Spin Energy  =      -1.9591889055351812 [Eh]
	 SCS Correlation Energy    =      -2.1338735310413588 [Eh]
	 SCS Total Energy          =    -498.6449931806503173 [Eh]
	-----------------------------------------------------------

  Dipole Moment: [D]
     X:    -0.8565      Y:     0.0461      Z:     0.5747     Total:     1.0325

*** Psi4 exiting successfully. Buy a developer a beer!
