                               Psi4 1.4a3.dev225

  ==> Input File <==

--------------------------------------------------------------------------
#psi4
#
memory 32 gb

molecule  {
0 1
  O        2.2381840    -1.1587810    -0.1175950
  O        2.2381840     1.1587830    -0.1175780
  C       -1.4506090    -0.7058110    -0.0005310
  C       -1.4506100     0.7058110    -0.0005190
  C        1.0311217    -0.7280710    -0.0461482
  C        0.9370830     0.6945180    -0.0405590
  C       -0.2384000    -1.4209720    -0.0261700
  C       -0.2384020     1.4209720    -0.0261890
  C        3.0186620    -0.0000010     0.2058680
  C       -2.7532520    -1.4635880     0.0322900
  C       -2.7532530     1.4635870     0.0322790
  H       -0.2243070    -2.5079120    -0.0340590
  H       -0.2243080     2.5079120    -0.0340480
  H        3.2379270    -0.0000100     1.2832160
  H        3.9284370     0.0000040    -0.3938210
  H       -2.5724980    -2.5416060     0.0194510
  H       -3.3330080    -1.2312860     0.9325220
  H       -3.3837460    -1.2187210    -0.8295640
  H       -3.3329960     1.2313300     0.9325330
  H       -2.5725010     2.5416050     0.0193840
  H       -3.3837580     1.2186740    -0.8295530
units angstrom
no_reorient  #important for SAPT in psi4, default
symmetry c1  #important for SAPT in psi4, default
}

set PROPERTIES_ORIGIN ["COM"]
properties('MP2/aug-cc-pvtz', properties = ['dipole'])
--------------------------------------------------------------------------

    Molecular point group: c1
  Charge       = 0
  Multiplicity = 1
  Basis Set: AUG-CC-PVTZ
    Blend: AUG-CC-PVTZ
  Basis Set: (AUG-CC-PVTZ AUX)
    Blend: AUG-CC-PVTZ-JKFIT

    Orbital Energies [Eh]
    ---------------------

    Doubly Occupied:

       1A    -20.611968     2A    -20.595679     3A    -11.361030
       4A    -11.301003     5A    -11.289451     6A    -11.239579
       7A    -11.238316     8A    -11.236776     9A    -11.235629
      10A    -11.222985    11A    -11.222060    12A     -1.499176
      13A     -1.387190    14A     -1.146993    15A     -1.047770
      16A     -1.030505    17A     -0.953066    18A     -0.943021
      19A     -0.883657    20A     -0.833347    21A     -0.804695
      22A     -0.727800    23A     -0.718114    24A     -0.686829
      25A     -0.648013    26A     -0.612638    27A     -0.607801
      28A     -0.592418    29A     -0.591640    30A     -0.567774
      31A     -0.551398    32A     -0.548039    33A     -0.536858
      34A     -0.533993    35A     -0.522691    36A     -0.499171
      37A     -0.479441    38A     -0.438944    39A     -0.327061
      40A     -0.281121

  @DF-RHF Final Energy:  -496.50075516616943

   => Energetics <=

    Nuclear Repulsion Energy =            601.1335621332278834
    One-Electron Energy =               -1868.1573480355234551
    Two-Electron Energy =                 770.5230307361259747
    Total Energy =                       -496.5007551661694833
  Basis Set: (AUG-CC-PVTZ AUX)
    Blend: AUG-CC-PVTZ-RI
    Molecular point group: c1

    Geometry (in Angstrom), charge = 0, multiplicity = 1:

       Center              X                  Y                   Z               Mass
    ------------   -----------------  -----------------  -----------------  -----------------
         O            2.152398644515    -1.156097963810    -0.110109600724    15.994914619570
         O            2.152398644515     1.161466036190    -0.110092600724    15.994914619570
         C           -1.536394355485    -0.703127963810     0.006954399276    12.000000000000
         C           -1.536395355485     0.708494036190     0.006966399276    12.000000000000
         C            0.945336344515    -0.725387963810    -0.038662800724    12.000000000000
         C            0.851297644515     0.697201036190    -0.033073600724    12.000000000000
         C           -0.324185355485    -1.418288963810    -0.018684600724    12.000000000000
         C           -0.324187355485     1.423655036190    -0.018703600724    12.000000000000
         C            2.932876644515     0.002682036190     0.213353399276    12.000000000000
         C           -2.839037355485    -1.460904963810     0.039775399276    12.000000000000
         C           -2.839038355485     1.466270036190     0.039764399276    12.000000000000
         H           -0.310092355485    -2.505228963810    -0.026573600724     1.007825032230
         H           -0.310093355485     2.510595036190    -0.026562600724     1.007825032230
         H            3.152141644515     0.002673036190     1.290701399276     1.007825032230
         H            3.842651644515     0.002687036190    -0.386335600724     1.007825032230
         H           -2.658283355485    -2.538922963810     0.026936399276     1.007825032230
         H           -3.418793355485    -1.228602963810     0.940007399276     1.007825032230
         H           -3.469531355485    -1.216037963810    -0.822078600724     1.007825032230
         H           -3.418781355485     1.234013036190     0.940018399276     1.007825032230
         H           -2.658286355485     2.544288036190     0.026869399276     1.007825032230
         H           -3.469543355485     1.221357036190    -0.822067600724     1.007825032230

  Basis Set: AUG-CC-PVTZ
    Blend: AUG-CC-PVTZ
  Basis Set: (AUG-CC-PVTZ AUX)
    Blend: AUG-CC-PVTZ-JKFIT
	 Reference Energy          =    -496.5007551661694265 [Eh]
	 Singles Energy            =      -0.0000000000000000 [Eh]
	 Same-Spin Energy          =      -0.5247395628300996 [Eh]
	 Opposite-Spin Energy      =      -1.6326116041751311 [Eh]
	 Correlation Energy        =      -2.1573511670052308 [Eh]
	 Total Energy              =    -498.6581063331746577 [Eh]

	 ================> DF-SCS-MP2 Energies <==================
	-----------------------------------------------------------
	 SCS Same-Spin Scale       =       0.3333333333333333 [-]
	 SCS Opposite-Spin Scale   =       1.2000000000000000 [-]
	 SCS Same-Spin Energy      =      -0.1749131876100332 [Eh]
	 SCS Opposite-Spin Energy  =      -1.9591339250101572 [Eh]
	 SCS Correlation Energy    =      -2.1340471126201903 [Eh]
	 SCS Total Energy          =    -498.6348022787896070 [Eh]
	-----------------------------------------------------------

  Dipole Moment: [D]
     X:     0.0777      Y:    -0.1196      Z:     0.5387     Total:     0.5572

*** Psi4 exiting successfully. Buy a developer a beer!
