                               Psi4 1.4a3.dev225

  ==> Input File <==

--------------------------------------------------------------------------
#psi4
#
memory 32 gb

molecule  {
0 1
  O        2.2381840    -1.1587810    -0.1175950
  O        2.2381840     1.1587830    -0.1175780
  C       -1.4506090    -0.7058110    -0.0005310
  C       -1.4506100     0.7058110    -0.0005190
  C        0.9370840    -0.6945160    -0.0405820
  C        0.9370830     0.6945180    -0.0405590
  C       -0.2384000    -1.4209720    -0.0261700
  C       -0.2384020     1.4209720    -0.0261890
  C        3.0186620    -0.0000010     0.2058680
  C       -2.7532520    -1.4635880     0.0322900
  C       -2.7532530     1.4635870     0.0322790
  H       -0.2243070    -2.5079120    -0.0340590
  H       -0.2240487     2.5279098    -0.0341926
  H        3.2379270    -0.0000100     1.2832160
  H        3.9284370     0.0000040    -0.3938210
  H       -2.5724980    -2.5416060     0.0194510
  H       -3.3330080    -1.2312860     0.9325220
  H       -3.3837460    -1.2187210    -0.8295640
  H       -3.3329960     1.2313300     0.9325330
  H       -2.5725010     2.5416050     0.0193840
  H       -3.3837580     1.2186740    -0.8295530
units angstrom
no_reorient  #important for SAPT in psi4, default
symmetry c1  #important for SAPT in psi4, default
}

set PROPERTIES_ORIGIN ["COM"]
properties('MP2/aug-cc-pvtz', properties = ['dipole'])
--------------------------------------------------------------------------

    Molecular point group: c1
  Charge       = 0
  Multiplicity = 1
  Basis Set: AUG-CC-PVTZ
    Blend: AUG-CC-PVTZ
  Basis Set: (AUG-CC-PVTZ AUX)
    Blend: AUG-CC-PVTZ-JKFIT

    Orbital Energies [Eh]
    ---------------------

    Doubly Occupied:

       1A    -20.596163     2A    -20.596110     3A    -11.352358
       4A    -11.292279     5A    -11.291007     6A    -11.242511
       7A    -11.241480     8A    -11.240371     9A    -11.238334
      10A    -11.225381    11A    -11.225281    12A     -1.467238
      13A     -1.364712    14A     -1.158494    15A     -1.053334
      16A     -1.037912    17A     -0.952184    18A     -0.942935
      19A     -0.882495    20A     -0.836028    21A     -0.795592
      22A     -0.715864    23A     -0.712556    24A     -0.674786
      25A     -0.647583    26A     -0.612977    27A     -0.610799
      28A     -0.595390    29A     -0.574088    30A     -0.565940
      31A     -0.551527    32A     -0.540854    33A     -0.535030
      34A     -0.533324    35A     -0.530450    36A     -0.500902
      37A     -0.490655    38A     -0.441771    39A     -0.334455
      40A     -0.293319

  @DF-RHF Final Energy:  -496.51367671701439

   => Energetics <=

    Nuclear Repulsion Energy =            601.1768464848065605
    One-Electron Energy =               -1868.3921098182659080
    Two-Electron Energy =                 770.7015866164450699
    Total Energy =                       -496.5136767170143912
  Basis Set: (AUG-CC-PVTZ AUX)
    Blend: AUG-CC-PVTZ-RI
    Molecular point group: c1

    Geometry (in Angstrom), charge = 0, multiplicity = 1:

       Center              X                  Y                   Z               Mass
    ------------   -----------------  -----------------  -----------------  -----------------
         O            2.159916506236    -1.158915446946    -0.110553723609    15.994914619570
         O            2.159916506236     1.158648553054    -0.110536723609    15.994914619570
         C           -1.528876493764    -0.705945446946     0.006510276391    12.000000000000
         C           -1.528877493764     0.705676553054     0.006522276391    12.000000000000
         C            0.858816506236    -0.694650446946    -0.033540723609    12.000000000000
         C            0.858815506236     0.694383553054    -0.033517723609    12.000000000000
         C           -0.316667493764    -1.421106446946    -0.019128723609    12.000000000000
         C           -0.316669493764     1.420837553054    -0.019147723609    12.000000000000
         C            2.940394506236    -0.000135446946     0.212909276391    12.000000000000
         C           -2.831519493764    -1.463722446946     0.039331276391    12.000000000000
         C           -2.831520493764     1.463452553054     0.039320276391    12.000000000000
         H           -0.302574493764    -2.508046446946    -0.027017723609     1.007825032230
         H           -0.302316193764     2.527775353054    -0.027151323609     1.007825032230
         H            3.159659506236    -0.000144446946     1.290257276391     1.007825032230
         H            3.850169506236    -0.000130446946    -0.386779723609     1.007825032230
         H           -2.650765493764    -2.541740446946     0.026492276391     1.007825032230
         H           -3.411275493764    -1.231420446946     0.939563276391     1.007825032230
         H           -3.462013493764    -1.218855446946    -0.822522723609     1.007825032230
         H           -3.411263493764     1.231195553054     0.939574276391     1.007825032230
         H           -2.650768493764     2.541470553054     0.026425276391     1.007825032230
         H           -3.462025493764     1.218539553054    -0.822511723609     1.007825032230

  Basis Set: AUG-CC-PVTZ
    Blend: AUG-CC-PVTZ
  Basis Set: (AUG-CC-PVTZ AUX)
    Blend: AUG-CC-PVTZ-JKFIT
	 Reference Energy          =    -496.5136767170143912 [Eh]
	 Singles Energy            =      -0.0000000000000000 [Eh]
	 Same-Spin Energy          =      -0.5240975005281160 [Eh]
	 Opposite-Spin Energy      =      -1.6324004330558715 [Eh]
	 Correlation Energy        =      -2.1564979335839873 [Eh]
	 Total Energy              =    -498.6701746505983692 [Eh]

	 ================> DF-SCS-MP2 Energies <==================
	-----------------------------------------------------------
	 SCS Same-Spin Scale       =       0.3333333333333333 [-]
	 SCS Opposite-Spin Scale   =       1.2000000000000000 [-]
	 SCS Same-Spin Energy      =      -0.1746991668427053 [Eh]
	 SCS Opposite-Spin Energy  =      -1.9588805196670456 [Eh]
	 SCS Correlation Energy    =      -2.1335796865097509 [Eh]
	 SCS Total Energy          =    -498.6472564035241248 [Eh]
	-----------------------------------------------------------

  Dipole Moment: [D]
     X:    -0.5701      Y:    -0.0046      Z:     0.5640     Total:     0.8020

*** Psi4 exiting successfully. Buy a developer a beer!
