                               Psi4 1.4a3.dev225

  ==> Input File <==

--------------------------------------------------------------------------
#psi4
#
memory 32 gb

molecule  {
0 1
  O        2.2381840    -1.1587810    -0.1175950
  O        2.2381840     1.1587830    -0.1175780
  C       -1.4506090    -0.7058110    -0.0005310
  C       -1.4506100     0.7058110    -0.0005190
  C        0.9370840    -0.6945160    -0.0405820
  C        0.9370830     0.6945180    -0.0405590
  C       -0.2384000    -1.4209720    -0.0261700
  C       -0.2384020     1.4209720    -0.0261890
  C        3.0186620    -0.0000010     0.2058680
  C       -2.7532520    -1.4635880     0.0322900
  C       -2.7532530     1.4635870     0.0322790
  H       -0.2243070    -2.5079120    -0.0340590
  H       -0.2243080     2.5079120    -0.0340480
  H        3.1980401    -0.0000084     1.0872338
  H        3.9284370     0.0000040    -0.3938210
  H       -2.5724980    -2.5416060     0.0194510
  H       -3.3330080    -1.2312860     0.9325220
  H       -3.3837460    -1.2187210    -0.8295640
  H       -3.3329960     1.2313300     0.9325330
  H       -2.5725010     2.5416050     0.0193840
  H       -3.3837580     1.2186740    -0.8295530
units angstrom
no_reorient  #important for SAPT in psi4, default
symmetry c1  #important for SAPT in psi4, default
}

set PROPERTIES_ORIGIN ["COM"]
properties('MP2/aug-cc-pvtz', properties = ['dipole'])
--------------------------------------------------------------------------

    Molecular point group: c1
  Charge       = 0
  Multiplicity = 1
  Basis Set: AUG-CC-PVTZ
    Blend: AUG-CC-PVTZ
  Basis Set: (AUG-CC-PVTZ AUX)
    Blend: AUG-CC-PVTZ-JKFIT

    Orbital Energies [Eh]
    ---------------------

    Doubly Occupied:

       1A    -20.593293     2A    -20.593273     3A    -11.328524
       4A    -11.291222     5A    -11.289950     6A    -11.241589
       7A    -11.240488     8A    -11.237484     9A    -11.237467
      10A    -11.224836    11A    -11.224829    12A     -1.466687
      13A     -1.362755    14A     -1.158317    15A     -1.056165
      16A     -1.037619    17A     -0.961571    18A     -0.951698
      19A     -0.892752    20A     -0.836469    21A     -0.794472
      22A     -0.739657    23A     -0.713898    24A     -0.673979
      25A     -0.648044    26A     -0.615568    27A     -0.614353
      28A     -0.595182    29A     -0.573321    30A     -0.568122
      31A     -0.551016    32A     -0.542014    33A     -0.540343
      34A     -0.533152    35A     -0.531152    36A     -0.500070
      37A     -0.490496    38A     -0.445097    39A     -0.333730
      40A     -0.292452

  @DF-RHF Final Energy:  -496.48291969137853

   => Energetics <=

    Nuclear Repulsion Energy =            602.4607096089506513
    One-Electron Energy =               -1870.8410432853488601
    Two-Electron Energy =                 771.8974139850196252
    Total Energy =                       -496.4829196913784699
  Basis Set: (AUG-CC-PVTZ AUX)
    Blend: AUG-CC-PVTZ-RI
    Molecular point group: c1

    Geometry (in Angstrom), charge = 0, multiplicity = 1:

       Center              X                  Y                   Z               Mass
    ------------   -----------------  -----------------  -----------------  -----------------
         O            2.160186119504    -1.158781156756    -0.109238520295    15.994914619570
         O            2.160186119504     1.158782843244    -0.109221520295    15.994914619570
         C           -1.528606880496    -0.705811156756     0.007825479705    12.000000000000
         C           -1.528607880496     0.705810843244     0.007837479705    12.000000000000
         C            0.859086119504    -0.694516156756    -0.032225520295    12.000000000000
         C            0.859085119504     0.694517843244    -0.032202520295    12.000000000000
         C           -0.316397880496    -1.420972156756    -0.017813520295    12.000000000000
         C           -0.316399880496     1.420971843244    -0.017832520295    12.000000000000
         C            2.940664119504    -0.000001156756     0.214224479705    12.000000000000
         C           -2.831249880496    -1.463588156756     0.040646479705    12.000000000000
         C           -2.831250880496     1.463586843244     0.040635479705    12.000000000000
         H           -0.302304880496    -2.507912156756    -0.025702520295     1.007825032230
         H           -0.302305880496     2.507911843244    -0.025691520295     1.007825032230
         H            3.120042219504    -0.000008556756     1.095590279705     1.007825032230
         H            3.850439119504     0.000003843244    -0.385464520295     1.007825032230
         H           -2.650495880496    -2.541606156756     0.027807479705     1.007825032230
         H           -3.411005880496    -1.231286156756     0.940878479705     1.007825032230
         H           -3.461743880496    -1.218721156756    -0.821207520295     1.007825032230
         H           -3.410993880496     1.231329843244     0.940889479705     1.007825032230
         H           -2.650498880496     2.541604843244     0.027740479705     1.007825032230
         H           -3.461755880496     1.218673843244    -0.821196520295     1.007825032230

  Basis Set: AUG-CC-PVTZ
    Blend: AUG-CC-PVTZ
  Basis Set: (AUG-CC-PVTZ AUX)
    Blend: AUG-CC-PVTZ-JKFIT
	 Reference Energy          =    -496.4829196913785267 [Eh]
	 Singles Energy            =      -0.0000000000000000 [Eh]
	 Same-Spin Energy          =      -0.5236972871432174 [Eh]
	 Opposite-Spin Energy      =      -1.6311491810424688 [Eh]
	 Correlation Energy        =      -2.1548464681856863 [Eh]
	 Total Energy              =    -498.6377661595641939 [Eh]

	 ================> DF-SCS-MP2 Energies <==================
	-----------------------------------------------------------
	 SCS Same-Spin Scale       =       0.3333333333333333 [-]
	 SCS Opposite-Spin Scale   =       1.2000000000000000 [-]
	 SCS Same-Spin Energy      =      -0.1745657623810725 [Eh]
	 SCS Opposite-Spin Energy  =      -1.9573790172509624 [Eh]
	 SCS Correlation Energy    =      -2.1319447796320348 [Eh]
	 SCS Total Energy          =    -498.6148644710105486 [Eh]
	-----------------------------------------------------------

  Dipole Moment: [D]
     X:    -0.4439      Y:    -0.0000      Z:     0.6678     Total:     0.8019

*** Psi4 exiting successfully. Buy a developer a beer!
