                               Psi4 1.4a3.dev225

  ==> Input File <==

--------------------------------------------------------------------------
#psi4
#
memory 32 gb

molecule  {
0 1
  O        2.2381840    -1.1587810    -0.1175950
  O        2.2381840     1.1587830    -0.1175780
  C       -1.4506090    -0.7058110    -0.0005310
  C       -1.4140936     0.7791743     0.1343099
  C        0.9370840    -0.6945160    -0.0405820
  C        0.9370830     0.6945180    -0.0405590
  C       -0.2384000    -1.4209720    -0.0261700
  C       -0.2384020     1.4209720    -0.0261890
  C        3.0186620    -0.0000010     0.2058680
  C       -2.7532520    -1.4635880     0.0322900
  C       -2.7532530     1.4635870     0.0322790
  H       -0.2243070    -2.5079120    -0.0340590
  H       -0.2243080     2.5079120    -0.0340480
  H        3.2379270    -0.0000100     1.2832160
  H        3.9284370     0.0000040    -0.3938210
  H       -2.5724980    -2.5416060     0.0194510
  H       -3.3330080    -1.2312860     0.9325220
  H       -3.3837460    -1.2187210    -0.8295640
  H       -3.3329960     1.2313300     0.9325330
  H       -2.5725010     2.5416050     0.0193840
  H       -3.3837580     1.2186740    -0.8295530
units angstrom
no_reorient  #important for SAPT in psi4, default
symmetry c1  #important for SAPT in psi4, default
}

set PROPERTIES_ORIGIN ["COM"]
properties('MP2/aug-cc-pvtz', properties = ['dipole'])
--------------------------------------------------------------------------

    Molecular point group: c1
  Charge       = 0
  Multiplicity = 1
  Basis Set: AUG-CC-PVTZ
    Blend: AUG-CC-PVTZ
  Basis Set: (AUG-CC-PVTZ AUX)
    Blend: AUG-CC-PVTZ-JKFIT

    Orbital Energies [Eh]
    ---------------------

    Doubly Occupied:

       1A    -20.595235     2A    -20.594596     3A    -11.351695
       4A    -11.290894     5A    -11.289020     6A    -11.250864
       7A    -11.243535     8A    -11.238157     9A    -11.234241
      10A    -11.227246    11A    -11.225912    12A     -1.465887
      13A     -1.363558    14A     -1.157480    15A     -1.049618
      16A     -1.044833    17A     -0.954296    18A     -0.943509
      19A     -0.880915    20A     -0.824948    21A     -0.801356
      22A     -0.716820    23A     -0.711416    24A     -0.676237
      25A     -0.646160    26A     -0.616334    27A     -0.610471
      28A     -0.595401    29A     -0.573383    30A     -0.564497
      31A     -0.552636    32A     -0.541334    33A     -0.534312
      34A     -0.533861    35A     -0.531922    36A     -0.510852
      37A     -0.474012    38A     -0.440791    39A     -0.342096
      40A     -0.285590

  @DF-RHF Final Energy:  -496.49971369566362

   => Energetics <=

    Nuclear Repulsion Energy =            600.8770503070918494
    One-Electron Energy =               -1867.7816905400918586
    Two-Electron Energy =                 770.4049265373364506
    Total Energy =                       -496.4997136956635586
  Basis Set: (AUG-CC-PVTZ AUX)
    Blend: AUG-CC-PVTZ-RI
    Molecular point group: c1

    Geometry (in Angstrom), charge = 0, multiplicity = 1:

       Center              X                  Y                   Z               Mass
    ------------   -----------------  -----------------  -----------------  -----------------
         O            2.156998260916    -1.164647547464    -0.121336113417    15.994914619570
         O            2.156998260916     1.152916452536    -0.121319113417    15.994914619570
         C           -1.531794739084    -0.711677547464    -0.004272113417    12.000000000000
         C           -1.495279339084     0.773307752536     0.130568786583    12.000000000000
         C            0.855898260916    -0.700382547464    -0.044323113417    12.000000000000
         C            0.855897260916     0.688651452536    -0.044300113417    12.000000000000
         C           -0.319585739084    -1.426838547464    -0.029911113417    12.000000000000
         C           -0.319587739084     1.415105452536    -0.029930113417    12.000000000000
         C            2.937476260916    -0.005867547464     0.202126886583    12.000000000000
         C           -2.834437739084    -1.469454547464     0.028548886583    12.000000000000
         C           -2.834438739084     1.457720452536     0.028537886583    12.000000000000
         H           -0.305492739084    -2.513778547464    -0.037800113417     1.007825032230
         H           -0.305493739084     2.502045452536    -0.037789113417     1.007825032230
         H            3.156741260916    -0.005876547464     1.279474886583     1.007825032230
         H            3.847251260916    -0.005862547464    -0.397562113417     1.007825032230
         H           -2.653683739084    -2.547472547464     0.015709886583     1.007825032230
         H           -3.414193739084    -1.237152547464     0.928780886583     1.007825032230
         H           -3.464931739084    -1.224587547464    -0.833305113417     1.007825032230
         H           -3.414181739084     1.225463452536     0.928791886583     1.007825032230
         H           -2.653686739084     2.535738452536     0.015642886583     1.007825032230
         H           -3.464943739084     1.212807452536    -0.833294113417     1.007825032230

  Basis Set: AUG-CC-PVTZ
    Blend: AUG-CC-PVTZ
  Basis Set: (AUG-CC-PVTZ AUX)
    Blend: AUG-CC-PVTZ-JKFIT
	 Reference Energy          =    -496.4997136956636155 [Eh]
	 Singles Energy            =      -0.0000000000000000 [Eh]
	 Same-Spin Energy          =      -0.5244666497771957 [Eh]
	 Opposite-Spin Energy      =      -1.6334083716329812 [Eh]
	 Correlation Energy        =      -2.1578750214101770 [Eh]
	 Total Energy              =    -498.6575887170737928 [Eh]

	 ================> DF-SCS-MP2 Energies <==================
	-----------------------------------------------------------
	 SCS Same-Spin Scale       =       0.3333333333333333 [-]
	 SCS Opposite-Spin Scale   =       1.2000000000000000 [-]
	 SCS Same-Spin Energy      =      -0.1748222165923985 [Eh]
	 SCS Opposite-Spin Energy  =      -1.9600900459595774 [Eh]
	 SCS Correlation Energy    =      -2.1349122625519761 [Eh]
	 SCS Total Energy          =    -498.6346259582155653 [Eh]
	-----------------------------------------------------------

  Dipole Moment: [D]
     X:    -0.6044      Y:    -0.0382      Z:     0.4995     Total:     0.7850

*** Psi4 exiting successfully. Buy a developer a beer!
