                               Psi4 1.4a3.dev225

  ==> Input File <==

--------------------------------------------------------------------------
#psi4
#
memory 32 gb

molecule  {
0 1
  O        2.2381840    -1.1587810    -0.1175950
  O        2.2381840     1.1587830    -0.1175780
  C       -1.4506090    -0.7058110    -0.0005310
  C       -1.4506100     0.7058110    -0.0005190
  C        0.9370840    -0.6945160    -0.0405820
  C        0.9370830     0.6945180    -0.0405590
  C       -0.2384000    -1.4209720    -0.0261700
  C       -0.2384020     1.4209720    -0.0261890
  C        3.0730861     0.0808028     0.2284237
  C       -2.7532520    -1.4635880     0.0322900
  C       -2.7532530     1.4635870     0.0322790
  H       -0.2243070    -2.5079120    -0.0340590
  H       -0.2243080     2.5079120    -0.0340480
  H        3.2379270    -0.0000100     1.2832160
  H        3.9284370     0.0000040    -0.3938210
  H       -2.5724980    -2.5416060     0.0194510
  H       -3.3330080    -1.2312860     0.9325220
  H       -3.3837460    -1.2187210    -0.8295640
  H       -3.3329960     1.2313300     0.9325330
  H       -2.5725010     2.5416050     0.0193840
  H       -3.3837580     1.2186740    -0.8295530
units angstrom
no_reorient  #important for SAPT in psi4, default
symmetry c1  #important for SAPT in psi4, default
}

set PROPERTIES_ORIGIN ["COM"]
properties('MP2/aug-cc-pvtz', properties = ['dipole'])
--------------------------------------------------------------------------

    Molecular point group: c1
  Charge       = 0
  Multiplicity = 1
  Basis Set: AUG-CC-PVTZ
    Blend: AUG-CC-PVTZ
  Basis Set: (AUG-CC-PVTZ AUX)
    Blend: AUG-CC-PVTZ-JKFIT

    Orbital Energies [Eh]
    ---------------------

    Doubly Occupied:

       1A    -20.600303     2A    -20.584250     3A    -11.356384
       4A    -11.290569     5A    -11.287727     6A    -11.240800
       7A    -11.239115     8A    -11.237957     9A    -11.234460
      10A    -11.224053    11A    -11.223951    12A     -1.458138
      13A     -1.349915    14A     -1.156196    15A     -1.052156
      16A     -1.035904    17A     -0.951866    18A     -0.945923
      19A     -0.883714    20A     -0.834167    21A     -0.790536
      22A     -0.719699    23A     -0.709096    24A     -0.674321
      25A     -0.648479    26A     -0.615968    27A     -0.608687
      28A     -0.594675    29A     -0.565456    30A     -0.561855
      31A     -0.549927    32A     -0.543201    33A     -0.539243
      34A     -0.532832    35A     -0.518957    36A     -0.497747
      37A     -0.488429    38A     -0.443565    39A     -0.332484
      40A     -0.290834

  @DF-RHF Final Energy:  -496.50621832751443

   => Energetics <=

    Nuclear Repulsion Energy =            599.8595963327360323
    One-Electron Energy =               -1865.9045504954697208
    Two-Electron Energy =                 769.5387358352190859
    Total Energy =                       -496.5062183275144889
  Basis Set: (AUG-CC-PVTZ AUX)
    Blend: AUG-CC-PVTZ-RI
    Molecular point group: c1

    Geometry (in Angstrom), charge = 0, multiplicity = 1:

       Center              X                  Y                   Z               Mass
    ------------   -----------------  -----------------  -----------------  -----------------
         O            2.155566294833    -1.165242517429    -0.112358332106    15.994914619570
         O            2.155566294833     1.152321482571    -0.112341332106    15.994914619570
         C           -1.533226705167    -0.712272517429     0.004705667894    12.000000000000
         C           -1.533227705167     0.699349482571     0.004717667894    12.000000000000
         C            0.854466294833    -0.700977517429    -0.035345332106    12.000000000000
         C            0.854465294833     0.688056482571    -0.035322332106    12.000000000000
         C           -0.321017705167    -1.427433517429    -0.020933332106    12.000000000000
         C           -0.321019705167     1.414510482571    -0.020952332106    12.000000000000
         C            2.990468394833     0.074341282571     0.233660367894    12.000000000000
         C           -2.835869705167    -1.470049517429     0.037526667894    12.000000000000
         C           -2.835870705167     1.457125482571     0.037515667894    12.000000000000
         H           -0.306924705167    -2.514373517429    -0.028822332106     1.007825032230
         H           -0.306925705167     2.501450482571    -0.028811332106     1.007825032230
         H            3.155309294833    -0.006471517429     1.288452667894     1.007825032230
         H            3.845819294833    -0.006457517429    -0.388584332106     1.007825032230
         H           -2.655115705167    -2.548067517429     0.024687667894     1.007825032230
         H           -3.415625705167    -1.237747517429     0.937758667894     1.007825032230
         H           -3.466363705167    -1.225182517429    -0.824327332106     1.007825032230
         H           -3.415613705167     1.224868482571     0.937769667894     1.007825032230
         H           -2.655118705167     2.535143482571     0.024620667894     1.007825032230
         H           -3.466375705167     1.212212482571    -0.824316332106     1.007825032230

  Basis Set: AUG-CC-PVTZ
    Blend: AUG-CC-PVTZ
  Basis Set: (AUG-CC-PVTZ AUX)
    Blend: AUG-CC-PVTZ-JKFIT
	 Reference Energy          =    -496.5062183275144321 [Eh]
	 Singles Energy            =      -0.0000000000000000 [Eh]
	 Same-Spin Energy          =      -0.5242884573706716 [Eh]
	 Opposite-Spin Energy      =      -1.6334266978981402 [Eh]
	 Correlation Energy        =      -2.1577151552688116 [Eh]
	 Total Energy              =    -498.6639334827832499 [Eh]

	 ================> DF-SCS-MP2 Energies <==================
	-----------------------------------------------------------
	 SCS Same-Spin Scale       =       0.3333333333333333 [-]
	 SCS Opposite-Spin Scale   =       1.2000000000000000 [-]
	 SCS Same-Spin Energy      =      -0.1747628191235572 [Eh]
	 SCS Opposite-Spin Energy  =      -1.9601120374777681 [Eh]
	 SCS Correlation Energy    =      -2.1348748566013254 [Eh]
	 SCS Total Energy          =    -498.6410931841157321 [Eh]
	-----------------------------------------------------------

  Dipole Moment: [D]
     X:    -0.2722      Y:     0.2562      Z:     0.6706     Total:     0.7678

*** Psi4 exiting successfully. Buy a developer a beer!
