                               Psi4 1.4a3.dev225

  ==> Input File <==

--------------------------------------------------------------------------
#psi4
#
memory 32 gb

molecule  {
0 1
  O        2.2381840    -1.1587810    -0.1175950
  O        2.2381840     1.1587830    -0.1175780
  C       -1.4506090    -0.7058110    -0.0005310
  C       -1.4506100     0.7058110    -0.0005190
  C        0.9370840    -0.6945160    -0.0405820
  C        0.9370830     0.6945180    -0.0405590
  C       -0.2384000    -1.4209720    -0.0261700
  C       -0.2384020     1.4209720    -0.0261890
  C        3.0186620    -0.0000010     0.2058680
  C       -2.7532520    -1.4635880     0.0322900
  C       -2.7532530     1.4635870     0.0322790
  H       -0.2243070    -2.5079120    -0.0340590
  H       -0.2243080     2.5079120    -0.0340480
  H        3.2379270    -0.0000100     1.2832160
  H        3.9284370     0.0000040    -0.3938210
  H       -2.5724980    -2.5416060     0.0194510
  H       -3.3330080    -1.2312860     0.9325220
  H       -3.3837460    -1.2187210    -0.8295640
  H       -3.3182749     1.2370873     0.9432953
  H       -2.5725010     2.5416050     0.0193840
  H       -3.3837580     1.2186740    -0.8295530
units angstrom
no_reorient  #important for SAPT in psi4, default
symmetry c1  #important for SAPT in psi4, default
}

set PROPERTIES_ORIGIN ["COM"]
properties('MP2/aug-cc-pvtz', properties = ['dipole'])
--------------------------------------------------------------------------

    Molecular point group: c1
  Charge       = 0
  Multiplicity = 1
  Basis Set: AUG-CC-PVTZ
    Blend: AUG-CC-PVTZ
  Basis Set: (AUG-CC-PVTZ AUX)
    Blend: AUG-CC-PVTZ-JKFIT

    Orbital Energies [Eh]
    ---------------------

    Doubly Occupied:

       1A    -20.596066     2A    -20.596045     3A    -11.352303
       4A    -11.292075     5A    -11.290803     6A    -11.242221
       7A    -11.241121     8A    -11.238247     9A    -11.238190
      10A    -11.225322    11A    -11.225261    12A     -1.467156
      13A     -1.364639    14A     -1.158465    15A     -1.053250
      16A     -1.038314    17A     -0.952351    18A     -0.942891
      19A     -0.882415    20A     -0.836946    21A     -0.795473
      22A     -0.716097    23A     -0.712664    24A     -0.674865
      25A     -0.648158    26A     -0.615010    27A     -0.611025
      28A     -0.596127    29A     -0.574064    30A     -0.565596
      31A     -0.552477    32A     -0.540808    33A     -0.534949
      34A     -0.533093    35A     -0.530343    36A     -0.500307
      37A     -0.491250    38A     -0.441731    39A     -0.334359
      40A     -0.293201

  @DF-RHF Final Energy:  -496.51431493089007

   => Energetics <=

    Nuclear Repulsion Energy =            601.2979572637051433
    One-Electron Energy =               -1868.6331830790759341
    Two-Electron Energy =                 770.8209108844807815
    Total Energy =                       -496.5143149308901229
  Basis Set: (AUG-CC-PVTZ AUX)
    Blend: AUG-CC-PVTZ-RI
    Molecular point group: c1

    Geometry (in Angstrom), charge = 0, multiplicity = 1:

       Center              X                  Y                   Z               Mass
    ------------   -----------------  -----------------  -----------------  -----------------
         O            2.159819383890    -1.158819810803    -0.110626972010    15.994914619570
         O            2.159819383890     1.158744189197    -0.110609972010    15.994914619570
         C           -1.528973616110    -0.705849810803     0.006437027990    12.000000000000
         C           -1.528974616110     0.705772189197     0.006449027990    12.000000000000
         C            0.858719383890    -0.694554810803    -0.033613972010    12.000000000000
         C            0.858718383890     0.694479189197    -0.033590972010    12.000000000000
         C           -0.316764616110    -1.421010810803    -0.019201972010    12.000000000000
         C           -0.316766616110     1.420933189197    -0.019220972010    12.000000000000
         C            2.940297383890    -0.000039810803     0.212836027990    12.000000000000
         C           -2.831616616110    -1.463626810803     0.039258027990    12.000000000000
         C           -2.831617616110     1.463548189197     0.039247027990    12.000000000000
         H           -0.302671616110    -2.507950810803    -0.027090972010     1.007825032230
         H           -0.302672616110     2.507873189197    -0.027079972010     1.007825032230
         H            3.159562383890    -0.000048810803     1.290184027990     1.007825032230
         H            3.850072383890    -0.000034810803    -0.386852972010     1.007825032230
         H           -2.650862616110    -2.541644810803     0.026419027990     1.007825032230
         H           -3.411372616110    -1.231324810803     0.939490027990     1.007825032230
         H           -3.462110616110    -1.218759810803    -0.822595972010     1.007825032230
         H           -3.396639516110     1.237048489197     0.950263327990     1.007825032230
         H           -2.650865616110     2.541566189197     0.026352027990     1.007825032230
         H           -3.462122616110     1.218635189197    -0.822584972010     1.007825032230

  Basis Set: AUG-CC-PVTZ
    Blend: AUG-CC-PVTZ
  Basis Set: (AUG-CC-PVTZ AUX)
    Blend: AUG-CC-PVTZ-JKFIT
	 Reference Energy          =    -496.5143149308900661 [Eh]
	 Singles Energy            =      -0.0000000000000000 [Eh]
	 Same-Spin Energy          =      -0.5240411201998681 [Eh]
	 Opposite-Spin Energy      =      -1.6322497104297258 [Eh]
	 Correlation Energy        =      -2.1562908306295938 [Eh]
	 Total Energy              =    -498.6706057615196528 [Eh]

	 ================> DF-SCS-MP2 Energies <==================
	-----------------------------------------------------------
	 SCS Same-Spin Scale       =       0.3333333333333333 [-]
	 SCS Opposite-Spin Scale   =       1.2000000000000000 [-]
	 SCS Same-Spin Energy      =      -0.1746803733999560 [Eh]
	 SCS Opposite-Spin Energy  =      -1.9586996525156708 [Eh]
	 SCS Correlation Energy    =      -2.1333800259156268 [Eh]
	 SCS Total Energy          =    -498.6476949568057080 [Eh]
	-----------------------------------------------------------

  Dipole Moment: [D]
     X:    -0.5686      Y:     0.0047      Z:     0.5665     Total:     0.8026

*** Psi4 exiting successfully. Buy a developer a beer!
