                               Psi4 1.4a3.dev225

  ==> Input File <==

--------------------------------------------------------------------------
#psi4
#
memory 32 gb

molecule  {
0 1
  O        2.2381840    -1.1587810    -0.1175950
  O        2.2675925     1.0668515    -0.1143837
  C       -1.4506090    -0.7058110    -0.0005310
  C       -1.4506100     0.7058110    -0.0005190
  C        0.9370840    -0.6945160    -0.0405820
  C        0.9370830     0.6945180    -0.0405590
  C       -0.2384000    -1.4209720    -0.0261700
  C       -0.2384020     1.4209720    -0.0261890
  C        3.0186620    -0.0000010     0.2058680
  C       -2.7532520    -1.4635880     0.0322900
  C       -2.7532530     1.4635870     0.0322790
  H       -0.2243070    -2.5079120    -0.0340590
  H       -0.2243080     2.5079120    -0.0340480
  H        3.2379270    -0.0000100     1.2832160
  H        3.9284370     0.0000040    -0.3938210
  H       -2.5724980    -2.5416060     0.0194510
  H       -3.3330080    -1.2312860     0.9325220
  H       -3.3837460    -1.2187210    -0.8295640
  H       -3.3329960     1.2313300     0.9325330
  H       -2.5725010     2.5416050     0.0193840
  H       -3.3837580     1.2186740    -0.8295530
units angstrom
no_reorient  #important for SAPT in psi4, default
symmetry c1  #important for SAPT in psi4, default
}

set PROPERTIES_ORIGIN ["COM"]
properties('MP2/aug-cc-pvtz', properties = ['dipole'])
--------------------------------------------------------------------------

    Molecular point group: c1
  Charge       = 0
  Multiplicity = 1
  Basis Set: AUG-CC-PVTZ
    Blend: AUG-CC-PVTZ
  Basis Set: (AUG-CC-PVTZ AUX)
    Blend: AUG-CC-PVTZ-JKFIT

    Orbital Energies [Eh]
    ---------------------

    Doubly Occupied:

       1A    -20.593119     2A    -20.589699     3A    -11.343554
       4A    -11.294756     5A    -11.290603     6A    -11.243637
       7A    -11.242932     8A    -11.241979     9A    -11.237693
      10A    -11.226335    11A    -11.225962    12A     -1.488750
      13A     -1.366888    14A     -1.161125    15A     -1.058487
      16A     -1.039650    17A     -0.954564    18A     -0.947031
      19A     -0.876868    20A     -0.838751    21A     -0.801808
      22A     -0.725229    23A     -0.719882    24A     -0.684368
      25A     -0.647427    26A     -0.622001    27A     -0.615665
      28A     -0.596281    29A     -0.572760    30A     -0.564051
      31A     -0.552182    32A     -0.541380    33A     -0.534485
      34A     -0.529891    35A     -0.526576    36A     -0.502547
      37A     -0.490699    38A     -0.439212    39A     -0.336064
      40A     -0.293225

  @DF-RHF Final Energy:  -496.51208112947478

   => Energetics <=

    Nuclear Repulsion Energy =            603.3718621934556268
    One-Electron Energy =               -1872.6516520058632977
    Two-Electron Energy =                 772.7677086829328346
    Total Energy =                       -496.5120811294748364
  Basis Set: (AUG-CC-PVTZ AUX)
    Blend: AUG-CC-PVTZ-RI
    Molecular point group: c1

    Geometry (in Angstrom), charge = 0, multiplicity = 1:

       Center              X                  Y                   Z               Mass
    ------------   -----------------  -----------------  -----------------  -----------------
         O            2.156783760626    -1.148982683222    -0.110895157227    15.994914619570
         O            2.186192260626     1.076649816778    -0.107683857227    15.994914619570
         C           -1.532009239374    -0.696012683222     0.006168842773    12.000000000000
         C           -1.532010239374     0.715609316778     0.006180842773    12.000000000000
         C            0.855683760626    -0.684717683222    -0.033882157227    12.000000000000
         C            0.855682760626     0.704316316778    -0.033859157227    12.000000000000
         C           -0.319800239374    -1.411173683222    -0.019470157227    12.000000000000
         C           -0.319802239374     1.430770316778    -0.019489157227    12.000000000000
         C            2.937261760626     0.009797316778     0.212567842773    12.000000000000
         C           -2.834652239374    -1.453789683222     0.038989842773    12.000000000000
         C           -2.834653239374     1.473385316778     0.038978842773    12.000000000000
         H           -0.305707239374    -2.498113683222    -0.027359157227     1.007825032230
         H           -0.305708239374     2.517710316778    -0.027348157227     1.007825032230
         H            3.156526760626     0.009788316778     1.289915842773     1.007825032230
         H            3.847036760626     0.009802316778    -0.387121157227     1.007825032230
         H           -2.653898239374    -2.531807683222     0.026150842773     1.007825032230
         H           -3.414408239374    -1.221487683222     0.939221842773     1.007825032230
         H           -3.465146239374    -1.208922683222    -0.822864157227     1.007825032230
         H           -3.414396239374     1.241128316778     0.939232842773     1.007825032230
         H           -2.653901239374     2.551403316778     0.026083842773     1.007825032230
         H           -3.465158239374     1.228472316778    -0.822853157227     1.007825032230

  Basis Set: AUG-CC-PVTZ
    Blend: AUG-CC-PVTZ
  Basis Set: (AUG-CC-PVTZ AUX)
    Blend: AUG-CC-PVTZ-JKFIT
	 Reference Energy          =    -496.5120811294747796 [Eh]
	 Singles Energy            =      -0.0000000000000000 [Eh]
	 Same-Spin Energy          =      -0.5236442671973527 [Eh]
	 Opposite-Spin Energy      =      -1.6298557492391623 [Eh]
	 Correlation Energy        =      -2.1535000164365150 [Eh]
	 Total Energy              =    -498.6655811459112897 [Eh]

	 ================> DF-SCS-MP2 Energies <==================
	-----------------------------------------------------------
	 SCS Same-Spin Scale       =       0.3333333333333333 [-]
	 SCS Opposite-Spin Scale   =       1.2000000000000000 [-]
	 SCS Same-Spin Energy      =      -0.1745480890657842 [Eh]
	 SCS Opposite-Spin Energy  =      -1.9558268990869947 [Eh]
	 SCS Correlation Energy    =      -2.1303749881527789 [Eh]
	 SCS Total Energy          =    -498.6424561176275461 [Eh]
	-----------------------------------------------------------

  Dipole Moment: [D]
     X:    -0.7646      Y:     0.2324      Z:     0.5035     Total:     0.9445

*** Psi4 exiting successfully. Buy a developer a beer!
