                               Psi4 1.4a3.dev225

  ==> Input File <==

--------------------------------------------------------------------------
#psi4
#
memory 32 gb

molecule  {
0 1
  O        2.2381840    -1.1587810    -0.1175950
  O        2.2381840     1.1587830    -0.1175780
  C       -1.4506090    -0.7058110    -0.0005310
  C       -1.4506100     0.7058110    -0.0005190
  C        0.9370840    -0.6945160    -0.0405820
  C        0.9370830     0.6945180    -0.0405590
  C       -0.2384000    -1.4209720    -0.0261700
  C       -0.1953450     1.4463741    -0.0271008
  C        3.0186620    -0.0000010     0.2058680
  C       -2.7532520    -1.4635880     0.0322900
  C       -2.7532530     1.4635870     0.0322790
  H       -0.2243070    -2.5079120    -0.0340590
  H       -0.2243080     2.5079120    -0.0340480
  H        3.2379270    -0.0000100     1.2832160
  H        3.9284370     0.0000040    -0.3938210
  H       -2.5724980    -2.5416060     0.0194510
  H       -3.3330080    -1.2312860     0.9325220
  H       -3.3837460    -1.2187210    -0.8295640
  H       -3.3329960     1.2313300     0.9325330
  H       -2.5725010     2.5416050     0.0193840
  H       -3.3837580     1.2186740    -0.8295530
units angstrom
no_reorient  #important for SAPT in psi4, default
symmetry c1  #important for SAPT in psi4, default
}

set PROPERTIES_ORIGIN ["COM"]
properties('MP2/aug-cc-pvtz', properties = ['dipole'])
--------------------------------------------------------------------------

    Molecular point group: c1
  Charge       = 0
  Multiplicity = 1
  Basis Set: AUG-CC-PVTZ
    Blend: AUG-CC-PVTZ
  Basis Set: (AUG-CC-PVTZ AUX)
    Blend: AUG-CC-PVTZ-JKFIT

    Orbital Energies [Eh]
    ---------------------

    Doubly Occupied:

       1A    -20.596869     2A    -20.594653     3A    -11.351963
       4A    -11.292966     5A    -11.290311     6A    -11.246138
       7A    -11.241165     8A    -11.238451     9A    -11.237845
      10A    -11.225534    11A    -11.225238    12A     -1.467457
      13A     -1.364870    14A     -1.155768    15A     -1.054290
      16A     -1.036006    17A     -0.954433    18A     -0.941534
      19A     -0.881877    20A     -0.839546    21A     -0.793161
      22A     -0.716749    23A     -0.712883    24A     -0.673338
      25A     -0.647527    26A     -0.621841    27A     -0.610335
      28A     -0.594621    29A     -0.574273    30A     -0.564423
      31A     -0.551165    32A     -0.541163    33A     -0.535715
      34A     -0.534151    35A     -0.530823    36A     -0.499962
      37A     -0.490990    38A     -0.439344    39A     -0.333621
      40A     -0.293217

  @DF-RHF Final Energy:  -496.51143601880858

   => Energetics <=

    Nuclear Repulsion Energy =            600.9051385746874985
    One-Electron Energy =               -1867.8407120486119766
    Two-Electron Energy =                 770.4241374551158970
    Total Energy =                       -496.5114360188085811
  Basis Set: (AUG-CC-PVTZ AUX)
    Blend: AUG-CC-PVTZ-RI
    Molecular point group: c1

    Geometry (in Angstrom), charge = 0, multiplicity = 1:

       Center              X                  Y                   Z               Mass
    ------------   -----------------  -----------------  -----------------  -----------------
         O            2.156475250291    -1.160812392102    -0.110481783803    15.994914619570
         O            2.156475250291     1.156751607898    -0.110464783803    15.994914619570
         C           -1.532317749709    -0.707842392102     0.006582216197    12.000000000000
         C           -1.532318749709     0.703779607898     0.006594216197    12.000000000000
         C            0.855375250291    -0.696547392102    -0.033468783803    12.000000000000
         C            0.855374250291     0.692486607898    -0.033445783803    12.000000000000
         C           -0.320108749709    -1.423003392102    -0.019056783803    12.000000000000
         C           -0.277053749709     1.444342707898    -0.019987583803    12.000000000000
         C            2.936953250291    -0.002032392102     0.212981216197    12.000000000000
         C           -2.834960749709    -1.465619392102     0.039403216197    12.000000000000
         C           -2.834961749709     1.461555607898     0.039392216197    12.000000000000
         H           -0.306015749709    -2.509943392102    -0.026945783803     1.007825032230
         H           -0.306016749709     2.505880607898    -0.026934783803     1.007825032230
         H            3.156218250291    -0.002041392102     1.290329216197     1.007825032230
         H            3.846728250291    -0.002027392102    -0.386707783803     1.007825032230
         H           -2.654206749709    -2.543637392102     0.026564216197     1.007825032230
         H           -3.414716749709    -1.233317392102     0.939635216197     1.007825032230
         H           -3.465454749709    -1.220752392102    -0.822450783803     1.007825032230
         H           -3.414704749709     1.229298607898     0.939646216197     1.007825032230
         H           -2.654209749709     2.539573607898     0.026497216197     1.007825032230
         H           -3.465466749709     1.216642607898    -0.822439783803     1.007825032230

  Basis Set: AUG-CC-PVTZ
    Blend: AUG-CC-PVTZ
  Basis Set: (AUG-CC-PVTZ AUX)
    Blend: AUG-CC-PVTZ-JKFIT
	 Reference Energy          =    -496.5114360188085811 [Eh]
	 Singles Energy            =      -0.0000000000000000 [Eh]
	 Same-Spin Energy          =      -0.5238678295334500 [Eh]
	 Opposite-Spin Energy      =      -1.6323714968709637 [Eh]
	 Correlation Energy        =      -2.1562393264044140 [Eh]
	 Total Energy              =    -498.6676753452130129 [Eh]

	 ================> DF-SCS-MP2 Energies <==================
	-----------------------------------------------------------
	 SCS Same-Spin Scale       =       0.3333333333333333 [-]
	 SCS Opposite-Spin Scale   =       1.2000000000000000 [-]
	 SCS Same-Spin Energy      =      -0.1746226098444833 [Eh]
	 SCS Opposite-Spin Energy  =      -1.9588457962451564 [Eh]
	 SCS Correlation Energy    =      -2.1334684060896398 [Eh]
	 SCS Total Energy          =    -498.6449044248982432 [Eh]
	-----------------------------------------------------------

  Dipole Moment: [D]
     X:    -0.5864      Y:    -0.0030      Z:     0.5675     Total:     0.8160

*** Psi4 exiting successfully. Buy a developer a beer!
