                               Psi4 1.4a3.dev225

  ==> Input File <==

--------------------------------------------------------------------------
#psi4
#
memory 32 gb

molecule  {
0 1
  O        2.2381840    -1.1587810    -0.1175950
  O        2.2381840     1.1587830    -0.1175780
  C       -1.4506090    -0.7058110    -0.0005310
  C       -1.4506100     0.7058110    -0.0005190
  C        0.9370840    -0.6945160    -0.0405820
  C        0.9370830     0.6945180    -0.0405590
  C       -0.2384000    -1.4209720    -0.0261700
  C       -0.2912222     1.5038076    -0.0246811
  C        3.0186620    -0.0000010     0.2058680
  C       -2.7532520    -1.4635880     0.0322900
  C       -2.7532530     1.4635870     0.0322790
  H       -0.2243070    -2.5079120    -0.0340590
  H       -0.2243080     2.5079120    -0.0340480
  H        3.2379270    -0.0000100     1.2832160
  H        3.9284370     0.0000040    -0.3938210
  H       -2.5724980    -2.5416060     0.0194510
  H       -3.3330080    -1.2312860     0.9325220
  H       -3.3837460    -1.2187210    -0.8295640
  H       -3.3329960     1.2313300     0.9325330
  H       -2.5725010     2.5416050     0.0193840
  H       -3.3837580     1.2186740    -0.8295530
units angstrom
no_reorient  #important for SAPT in psi4, default
symmetry c1  #important for SAPT in psi4, default
}

set PROPERTIES_ORIGIN ["COM"]
properties('MP2/aug-cc-pvtz', properties = ['dipole'])
--------------------------------------------------------------------------

    Molecular point group: c1
  Charge       = 0
  Multiplicity = 1
  Basis Set: AUG-CC-PVTZ
    Blend: AUG-CC-PVTZ
  Basis Set: (AUG-CC-PVTZ AUX)
    Blend: AUG-CC-PVTZ-JKFIT

    Orbital Energies [Eh]
    ---------------------

    Doubly Occupied:

       1A    -20.595936     2A    -20.594855     3A    -11.351667
       4A    -11.300167     5A    -11.289662     6A    -11.245114
       7A    -11.242469     8A    -11.242141     9A    -11.241218
      10A    -11.226012    11A    -11.223413    12A     -1.466307
      13A     -1.363830    14A     -1.153348    15A     -1.051145
      16A     -1.037198    17A     -0.948176    18A     -0.941232
      19A     -0.881331    20A     -0.842981    21A     -0.792239
      22A     -0.715392    23A     -0.711912    24A     -0.678394
      25A     -0.651422    26A     -0.626569    27A     -0.607987
      28A     -0.594895    29A     -0.573143    30A     -0.564838
      31A     -0.551379    32A     -0.541984    33A     -0.534552
      34A     -0.530779    35A     -0.525937    36A     -0.503659
      37A     -0.488825    38A     -0.439718    39A     -0.331306
      40A     -0.290550

  @DF-RHF Final Energy:  -496.49946706327739

   => Energetics <=

    Nuclear Repulsion Energy =            599.6214514061703085
    One-Electron Energy =               -1865.2544666354667697
    Two-Electron Energy =                 769.1335481660190680
    Total Energy =                       -496.4994670632773932
  Basis Set: (AUG-CC-PVTZ AUX)
    Blend: AUG-CC-PVTZ-RI
    Molecular point group: c1

    Geometry (in Angstrom), charge = 0, multiplicity = 1:

       Center              X                  Y                   Z               Mass
    ------------   -----------------  -----------------  -----------------  -----------------
         O            2.164141946656    -1.165404987689    -0.110675271986    15.994914619570
         O            2.164141946656     1.152159012311    -0.110658271986    15.994914619570
         C           -1.524651053344    -0.712434987689     0.006388728014    12.000000000000
         C           -1.524652053344     0.699187012311     0.006400728014    12.000000000000
         C            0.863041946656    -0.701139987689    -0.033662271986    12.000000000000
         C            0.863040946656     0.687894012311    -0.033639271986    12.000000000000
         C           -0.312442053344    -1.427595987689    -0.019250271986    12.000000000000
         C           -0.365264253344     1.497183612311    -0.017761371986    12.000000000000
         C            2.944619946656    -0.006624987689     0.212787728014    12.000000000000
         C           -2.827294053344    -1.470211987689     0.039209728014    12.000000000000
         C           -2.827295053344     1.456963012311     0.039198728014    12.000000000000
         H           -0.298349053344    -2.514535987689    -0.027139271986     1.007825032230
         H           -0.298350053344     2.501288012311    -0.027128271986     1.007825032230
         H            3.163884946656    -0.006633987689     1.290135728014     1.007825032230
         H            3.854394946656    -0.006619987689    -0.386901271986     1.007825032230
         H           -2.646540053344    -2.548229987689     0.026370728014     1.007825032230
         H           -3.407050053344    -1.237909987689     0.939441728014     1.007825032230
         H           -3.457788053344    -1.225344987689    -0.822644271986     1.007825032230
         H           -3.407038053344     1.224706012311     0.939452728014     1.007825032230
         H           -2.646543053344     2.534981012311     0.026303728014     1.007825032230
         H           -3.457800053344     1.212050012311    -0.822633271986     1.007825032230

  Basis Set: AUG-CC-PVTZ
    Blend: AUG-CC-PVTZ
  Basis Set: (AUG-CC-PVTZ AUX)
    Blend: AUG-CC-PVTZ-JKFIT
	 Reference Energy          =    -496.4994670632773932 [Eh]
	 Singles Energy            =      -0.0000000000000000 [Eh]
	 Same-Spin Energy          =      -0.5243488978548227 [Eh]
	 Opposite-Spin Energy      =      -1.6336993283140142 [Eh]
	 Correlation Energy        =      -2.1580482261688370 [Eh]
	 Total Energy              =    -498.6575152894462235 [Eh]

	 ================> DF-SCS-MP2 Energies <==================
	-----------------------------------------------------------
	 SCS Same-Spin Scale       =       0.3333333333333333 [-]
	 SCS Opposite-Spin Scale   =       1.2000000000000000 [-]
	 SCS Same-Spin Energy      =      -0.1747829659516076 [Eh]
	 SCS Opposite-Spin Energy  =      -1.9604391939768169 [Eh]
	 SCS Correlation Energy    =      -2.1352221599284245 [Eh]
	 SCS Total Energy          =    -498.6346892232058394 [Eh]
	-----------------------------------------------------------

  Dipole Moment: [D]
     X:    -0.5503      Y:     0.0088      Z:     0.5533     Total:     0.7804

*** Psi4 exiting successfully. Buy a developer a beer!
