                               Psi4 1.4a3.dev225

  ==> Input File <==

--------------------------------------------------------------------------
#psi4
#
memory 32 gb

molecule  {
0 1
  O        2.2381840    -1.1587810    -0.1175950
  O        2.2381840     1.1587830    -0.1175780
  C       -1.4506090    -0.7058110    -0.0005310
  C       -1.4506100     0.7058110    -0.0005190
  C        0.9370840    -0.6945160    -0.0405820
  C        0.9370830     0.6945180    -0.0405590
  C       -0.2384000    -1.4209720    -0.0261700
  C       -0.2384020     1.4209720    -0.0261890
  C        3.0186620    -0.0000010     0.2058680
  C       -2.7532520    -1.4635880     0.0322900
  C       -2.7532530     1.4635870     0.0322790
  H       -0.2243070    -2.5079120    -0.0340590
  H       -0.2243080     2.5079120    -0.0340480
  H        3.2379270    -0.0000100     1.2832160
  H        3.9284370     0.0000040    -0.3938210
  H       -2.5724980    -2.5416060     0.0194510
  H       -3.3435906    -1.2270456     0.9489545
  H       -3.3837460    -1.2187210    -0.8295640
  H       -3.3329960     1.2313300     0.9325330
  H       -2.5725010     2.5416050     0.0193840
  H       -3.3837580     1.2186740    -0.8295530
units angstrom
no_reorient  #important for SAPT in psi4, default
symmetry c1  #important for SAPT in psi4, default
}

set PROPERTIES_ORIGIN ["COM"]
properties('MP2/aug-cc-pvtz', properties = ['dipole'])
--------------------------------------------------------------------------

    Molecular point group: c1
  Charge       = 0
  Multiplicity = 1
  Basis Set: AUG-CC-PVTZ
    Blend: AUG-CC-PVTZ
  Basis Set: (AUG-CC-PVTZ AUX)
    Blend: AUG-CC-PVTZ-JKFIT

    Orbital Energies [Eh]
    ---------------------

    Doubly Occupied:

       1A    -20.596169     2A    -20.596145     3A    -11.352384
       4A    -11.292214     5A    -11.290942     6A    -11.242441
       7A    -11.241339     8A    -11.238414     9A    -11.238335
      10A    -11.227714    11A    -11.225279    12A     -1.467257
      13A     -1.364739    14A     -1.158547    15A     -1.053085
      16A     -1.038248    17A     -0.951749    18A     -0.942580
      19A     -0.882268    20A     -0.836950    21A     -0.795375
      22A     -0.716189    23A     -0.712769    24A     -0.674897
      25A     -0.648240    26A     -0.615136    27A     -0.611126
      28A     -0.594539    29A     -0.574161    30A     -0.565636
      31A     -0.549923    32A     -0.540929    33A     -0.534947
      34A     -0.533093    35A     -0.530510    36A     -0.500583
      37A     -0.491403    38A     -0.441611    39A     -0.334430
      40A     -0.293243

  @DF-RHF Final Energy:  -496.51381969205067

   => Energetics <=

    Nuclear Repulsion Energy =            601.1980612395302614
    One-Electron Energy =               -1868.4326767358709276
    Two-Electron Energy =                 770.7207958042899918
    Total Energy =                       -496.5138196920506743
  Basis Set: (AUG-CC-PVTZ AUX)
    Blend: AUG-CC-PVTZ-RI
    Molecular point group: c1

    Geometry (in Angstrom), charge = 0, multiplicity = 1:

       Center              X                  Y                   Z               Mass
    ------------   -----------------  -----------------  -----------------  -----------------
         O            2.159989318111    -1.158809623628    -0.110665051857    15.994914619570
         O            2.159989318111     1.158754376372    -0.110648051857    15.994914619570
         C           -1.528803681889    -0.705839623628     0.006398948143    12.000000000000
         C           -1.528804681889     0.705782376372     0.006410948143    12.000000000000
         C            0.858889318111    -0.694544623628    -0.033652051857    12.000000000000
         C            0.858888318111     0.694489376372    -0.033629051857    12.000000000000
         C           -0.316594681889    -1.421000623628    -0.019240051857    12.000000000000
         C           -0.316596681889     1.420943376372    -0.019259051857    12.000000000000
         C            2.940467318111    -0.000029623628     0.212797948143    12.000000000000
         C           -2.831446681889    -1.463616623628     0.039219948143    12.000000000000
         C           -2.831447681889     1.463558376372     0.039208948143    12.000000000000
         H           -0.302501681889    -2.507940623628    -0.027129051857     1.007825032230
         H           -0.302502681889     2.507883376372    -0.027118051857     1.007825032230
         H            3.159732318111    -0.000038623628     1.290145948143     1.007825032230
         H            3.850242318111    -0.000024623628    -0.386891051857     1.007825032230
         H           -2.650692681889    -2.541634623628     0.026380948143     1.007825032230
         H           -3.421785281889    -1.227074223628     0.955884448143     1.007825032230
         H           -3.461940681889    -1.218749623628    -0.822634051857     1.007825032230
         H           -3.411190681889     1.231301376372     0.939462948143     1.007825032230
         H           -2.650695681889     2.541576376372     0.026313948143     1.007825032230
         H           -3.461952681889     1.218645376372    -0.822623051857     1.007825032230

  Basis Set: AUG-CC-PVTZ
    Blend: AUG-CC-PVTZ
  Basis Set: (AUG-CC-PVTZ AUX)
    Blend: AUG-CC-PVTZ-JKFIT
	 Reference Energy          =    -496.5138196920506743 [Eh]
	 Singles Energy            =      -0.0000000000000000 [Eh]
	 Same-Spin Energy          =      -0.5240539930950537 [Eh]
	 Opposite-Spin Energy      =      -1.6323708875098555 [Eh]
	 Correlation Energy        =      -2.1564248806049093 [Eh]
	 Total Energy              =    -498.6702445726555766 [Eh]

	 ================> DF-SCS-MP2 Energies <==================
	-----------------------------------------------------------
	 SCS Same-Spin Scale       =       0.3333333333333333 [-]
	 SCS Opposite-Spin Scale   =       1.2000000000000000 [-]
	 SCS Same-Spin Energy      =      -0.1746846643650179 [Eh]
	 SCS Opposite-Spin Energy  =      -1.9588450650118265 [Eh]
	 SCS Correlation Energy    =      -2.1335297293768445 [Eh]
	 SCS Total Energy          =    -498.6473494214275206 [Eh]
	-----------------------------------------------------------

  Dipole Moment: [D]
     X:    -0.5591      Y:     0.0015      Z:     0.5566     Total:     0.7889

*** Psi4 exiting successfully. Buy a developer a beer!
