                               Psi4 1.4a3.dev225

  ==> Input File <==

--------------------------------------------------------------------------
#psi4
#
memory 32 gb

molecule  {
0 1
  O        2.2381840    -1.1587810    -0.1175950
  O        2.2381840     1.1587830    -0.1175780
  C       -1.4506090    -0.7058110    -0.0005310
  C       -1.4506100     0.7058110    -0.0005190
  C        0.9370840    -0.6945160    -0.0405820
  C        0.9370830     0.6945180    -0.0405590
  C       -0.2384000    -1.4209720    -0.0261700
  C       -0.2384020     1.4209720    -0.0261890
  C        3.0458741     0.0404009     0.2171458
  C       -2.7532520    -1.4635880     0.0322900
  C       -2.7532530     1.4635870     0.0322790
  H       -0.2243070    -2.5079120    -0.0340590
  H       -0.2243080     2.5079120    -0.0340480
  H        3.2379270    -0.0000100     1.2832160
  H        3.9284370     0.0000040    -0.3938210
  H       -2.5724980    -2.5416060     0.0194510
  H       -3.3330080    -1.2312860     0.9325220
  H       -3.3837460    -1.2187210    -0.8295640
  H       -3.3329960     1.2313300     0.9325330
  H       -2.5725010     2.5416050     0.0193840
  H       -3.3837580     1.2186740    -0.8295530
units angstrom
no_reorient  #important for SAPT in psi4, default
symmetry c1  #important for SAPT in psi4, default
}

set PROPERTIES_ORIGIN ["COM"]
properties('MP2/aug-cc-pvtz', properties = ['dipole'])
--------------------------------------------------------------------------

    Molecular point group: c1
  Charge       = 0
  Multiplicity = 1
  Basis Set: AUG-CC-PVTZ
    Blend: AUG-CC-PVTZ
  Basis Set: (AUG-CC-PVTZ AUX)
    Blend: AUG-CC-PVTZ-JKFIT

    Orbital Energies [Eh]
    ---------------------

    Doubly Occupied:

       1A    -20.598195     2A    -20.590378     3A    -11.353845
       4A    -11.291166     5A    -11.289385     6A    -11.241457
       7A    -11.240134     8A    -11.238183     9A    -11.236347
      10A    -11.224671    11A    -11.224616    12A     -1.461360
      13A     -1.357767    14A     -1.157315    15A     -1.052521
      16A     -1.037151    17A     -0.951538    18A     -0.944802
      19A     -0.883145    20A     -0.835552    21A     -0.792711
      22A     -0.717084    23A     -0.711000    24A     -0.673397
      25A     -0.648896    26A     -0.614979    27A     -0.610479
      28A     -0.594984    29A     -0.569070    30A     -0.564977
      31A     -0.550726    32A     -0.540028    33A     -0.537936
      34A     -0.533086    35A     -0.527098    36A     -0.499516
      37A     -0.489975    38A     -0.442986    39A     -0.333398
      40A     -0.292055

  @DF-RHF Final Energy:  -496.51203931020808

   => Energetics <=

    Nuclear Repulsion Energy =            600.5659266195921191
    One-Electron Energy =               -1867.2481184340783784
    Two-Electron Energy =                 770.1701525042781213
    Total Energy =                       -496.5120393102081380
  Basis Set: (AUG-CC-PVTZ AUX)
    Blend: AUG-CC-PVTZ-RI
    Molecular point group: c1

    Geometry (in Angstrom), charge = 0, multiplicity = 1:

       Center              X                  Y                   Z               Mass
    ------------   -----------------  -----------------  -----------------  -----------------
         O            2.157742267238    -1.162011831720    -0.111456509411    15.994914619570
         O            2.157742267238     1.155552168280    -0.111439509411    15.994914619570
         C           -1.531050732762    -0.709041831720     0.005607490589    12.000000000000
         C           -1.531051732762     0.702580168280     0.005619490589    12.000000000000
         C            0.856642267238    -0.697746831720    -0.034443509411    12.000000000000
         C            0.856641267238     0.691287168280    -0.034420509411    12.000000000000
         C           -0.318841732762    -1.424202831720    -0.020031509411    12.000000000000
         C           -0.318843732762     1.417741168280    -0.020050509411    12.000000000000
         C            2.965432367238     0.037170068280     0.223284290589    12.000000000000
         C           -2.833693732762    -1.466818831720     0.038428490589    12.000000000000
         C           -2.833694732762     1.460356168280     0.038417490589    12.000000000000
         H           -0.304748732762    -2.511142831720    -0.027920509411     1.007825032230
         H           -0.304749732762     2.504681168280    -0.027909509411     1.007825032230
         H            3.157485267238    -0.003240831720     1.289354490589     1.007825032230
         H            3.847995267238    -0.003226831720    -0.387682509411     1.007825032230
         H           -2.652939732762    -2.544836831720     0.025589490589     1.007825032230
         H           -3.413449732762    -1.234516831720     0.938660490589     1.007825032230
         H           -3.464187732762    -1.221951831720    -0.823425509411     1.007825032230
         H           -3.413437732762     1.228099168280     0.938671490589     1.007825032230
         H           -2.652942732762     2.538374168280     0.025522490589     1.007825032230
         H           -3.464199732762     1.215443168280    -0.823414509411     1.007825032230

  Basis Set: AUG-CC-PVTZ
    Blend: AUG-CC-PVTZ
  Basis Set: (AUG-CC-PVTZ AUX)
    Blend: AUG-CC-PVTZ-JKFIT
	 Reference Energy          =    -496.5120393102080811 [Eh]
	 Singles Energy            =      -0.0000000000000000 [Eh]
	 Same-Spin Energy          =      -0.5240773582388976 [Eh]
	 Opposite-Spin Energy      =      -1.6326946326533931 [Eh]
	 Correlation Energy        =      -2.1567719908922909 [Eh]
	 Total Energy              =    -498.6688113011003907 [Eh]

	 ================> DF-SCS-MP2 Energies <==================
	-----------------------------------------------------------
	 SCS Same-Spin Scale       =       0.3333333333333333 [-]
	 SCS Opposite-Spin Scale   =       1.2000000000000000 [-]
	 SCS Same-Spin Energy      =      -0.1746924527462992 [Eh]
	 SCS Opposite-Spin Energy  =      -1.9592335591840717 [Eh]
	 SCS Correlation Energy    =      -2.1339260119303707 [Eh]
	 SCS Total Energy          =    -498.6459653221384656 [Eh]
	-----------------------------------------------------------

  Dipole Moment: [D]
     X:    -0.4129      Y:     0.1291      Z:     0.6195     Total:     0.7556

*** Psi4 exiting successfully. Buy a developer a beer!
