                               Psi4 1.4a3.dev225

  ==> Input File <==

--------------------------------------------------------------------------
#psi4
#
memory 32 gb

molecule  {
0 1
  O        2.2381840    -1.1587810    -0.1175950
  O        2.2381840     1.1587830    -0.1175780
  C       -1.4506090    -0.7058110    -0.0005310
  C       -1.4506100     0.7058110    -0.0005190
  C        0.9370840    -0.6945160    -0.0405820
  C        0.9370830     0.6945180    -0.0405590
  C       -0.2384000    -1.4209720    -0.0261700
  C       -0.2384020     1.4209720    -0.0261890
  C        3.0186620    -0.0000010     0.2058680
  C       -2.7532520    -1.4635880     0.0322900
  C       -2.7532530     1.4635870     0.0322790
  H       -0.2243070    -2.5079120    -0.0340590
  H       -0.2243080     2.5079120    -0.0340480
  H        3.2379270    -0.0000100     1.2832160
  H        4.0119301     0.0000045    -0.4488565
  H       -2.5724980    -2.5416060     0.0194510
  H       -3.3330080    -1.2312860     0.9325220
  H       -3.3837460    -1.2187210    -0.8295640
  H       -3.3329960     1.2313300     0.9325330
  H       -2.5725010     2.5416050     0.0193840
  H       -3.3837580     1.2186740    -0.8295530
units angstrom
no_reorient  #important for SAPT in psi4, default
symmetry c1  #important for SAPT in psi4, default
}

set PROPERTIES_ORIGIN ["COM"]
properties('MP2/aug-cc-pvtz', properties = ['dipole'])
--------------------------------------------------------------------------

    Molecular point group: c1
  Charge       = 0
  Multiplicity = 1
  Basis Set: AUG-CC-PVTZ
    Blend: AUG-CC-PVTZ
  Basis Set: (AUG-CC-PVTZ AUX)
    Blend: AUG-CC-PVTZ-JKFIT

    Orbital Energies [Eh]
    ---------------------

    Doubly Occupied:

       1A    -20.597375     2A    -20.597355     3A    -11.363385
       4A    -11.292776     5A    -11.291504     6A    -11.242769
       7A    -11.241671     8A    -11.238811     9A    -11.238791
      10A    -11.225631    11A    -11.225624    12A     -1.467949
      13A     -1.365708    14A     -1.158787    15A     -1.052546
      16A     -1.038778    17A     -0.952769    18A     -0.937716
      19A     -0.879704    20A     -0.837020    21A     -0.796142
      22A     -0.713527    23A     -0.710909    24A     -0.675585
      25A     -0.643792    26A     -0.615564    27A     -0.607034
      28A     -0.594916    29A     -0.575035    30A     -0.566148
      31A     -0.551835    32A     -0.541375    33A     -0.535770
      34A     -0.533422    35A     -0.523071    36A     -0.501204
      37A     -0.491718    38A     -0.440642    39A     -0.334866
      40A     -0.293693

  @DF-RHF Final Energy:  -496.50715039596923

   => Energetics <=

    Nuclear Repulsion Energy =            600.7602246145617073
    One-Electron Energy =               -1867.5489074882461864
    Two-Electron Energy =                 770.2815324777153592
    Total Energy =                       -496.5071503959692336
  Basis Set: (AUG-CC-PVTZ AUX)
    Blend: AUG-CC-PVTZ-RI
    Molecular point group: c1

    Geometry (in Angstrom), charge = 0, multiplicity = 1:

       Center              X                  Y                   Z               Mass
    ------------   -----------------  -----------------  -----------------  -----------------
         O            2.159357525890    -1.158781149369    -0.110185088099    15.994914619570
         O            2.159357525890     1.158782850631    -0.110168088099    15.994914619570
         C           -1.529435474110    -0.705811149369     0.006878911901    12.000000000000
         C           -1.529436474110     0.705810850631     0.006890911901    12.000000000000
         C            0.858257525890    -0.694516149369    -0.033172088099    12.000000000000
         C            0.858256525890     0.694517850631    -0.033149088099    12.000000000000
         C           -0.317226474110    -1.420972149369    -0.018760088099    12.000000000000
         C           -0.317228474110     1.420971850631    -0.018779088099    12.000000000000
         C            2.939835525890    -0.000001149369     0.213277911901    12.000000000000
         C           -2.832078474110    -1.463588149369     0.039699911901    12.000000000000
         C           -2.832079474110     1.463586850631     0.039688911901    12.000000000000
         H           -0.303133474110    -2.507912149369    -0.026649088099     1.007825032230
         H           -0.303134474110     2.507911850631    -0.026638088099     1.007825032230
         H            3.159100525890    -0.000010149369     1.290625911901     1.007825032230
         H            3.933103625890     0.000004350631    -0.441446588099     1.007825032230
         H           -2.651324474110    -2.541606149369     0.026860911901     1.007825032230
         H           -3.411834474110    -1.231286149369     0.939931911901     1.007825032230
         H           -3.462572474110    -1.218721149369    -0.822154088099     1.007825032230
         H           -3.411822474110     1.231329850631     0.939942911901     1.007825032230
         H           -2.651327474110     2.541604850631     0.026793911901     1.007825032230
         H           -3.462584474110     1.218673850631    -0.822143088099     1.007825032230

  Basis Set: AUG-CC-PVTZ
    Blend: AUG-CC-PVTZ
  Basis Set: (AUG-CC-PVTZ AUX)
    Blend: AUG-CC-PVTZ-JKFIT
	 Reference Energy          =    -496.5071503959692336 [Eh]
	 Singles Energy            =      -0.0000000000000000 [Eh]
	 Same-Spin Energy          =      -0.5242660637447329 [Eh]
	 Opposite-Spin Energy      =      -1.6332106002900975 [Eh]
	 Correlation Energy        =      -2.1574766640348306 [Eh]
	 Total Energy              =    -498.6646270600040793 [Eh]

	 ================> DF-SCS-MP2 Energies <==================
	-----------------------------------------------------------
	 SCS Same-Spin Scale       =       0.3333333333333333 [-]
	 SCS Opposite-Spin Scale   =       1.2000000000000000 [-]
	 SCS Same-Spin Energy      =      -0.1747553545815776 [Eh]
	 SCS Opposite-Spin Energy  =      -1.9598527203481169 [Eh]
	 SCS Correlation Energy    =      -2.1346080749296945 [Eh]
	 SCS Total Energy          =    -498.6417584708989352 [Eh]
	-----------------------------------------------------------

  Dipole Moment: [D]
     X:    -0.6411      Y:    -0.0000      Z:     0.5714     Total:     0.8588

*** Psi4 exiting successfully. Buy a developer a beer!
