                               Psi4 1.4a3.dev225

  ==> Input File <==

--------------------------------------------------------------------------
#psi4
#
memory 32 gb

molecule  {
0 1
  O        2.2381840    -1.1587810    -0.1175950
  O        2.2381840     1.1587830    -0.1175780
  C       -1.4506090    -0.7058110    -0.0005310
  C       -1.4506100     0.7058110    -0.0005190
  C        0.9370840    -0.6945160    -0.0405820
  C        0.9370830     0.6945180    -0.0405590
  C       -0.2384000    -1.4209720    -0.0261700
  C       -0.2384020     1.4209720    -0.0261890
  C        3.0186620    -0.0000010     0.2058680
  C       -2.7532520    -1.4635880     0.0322900
  C       -2.7532530     1.4635870     0.0322790
  H       -0.2243070    -2.5079120    -0.0340590
  H       -0.2269010     2.3079340    -0.0326021
  H        3.2379270    -0.0000100     1.2832160
  H        3.9284370     0.0000040    -0.3938210
  H       -2.5724980    -2.5416060     0.0194510
  H       -3.3330080    -1.2312860     0.9325220
  H       -3.3837460    -1.2187210    -0.8295640
  H       -3.3329960     1.2313300     0.9325330
  H       -2.5725010     2.5416050     0.0193840
  H       -3.3837580     1.2186740    -0.8295530
units angstrom
no_reorient  #important for SAPT in psi4, default
symmetry c1  #important for SAPT in psi4, default
}

set PROPERTIES_ORIGIN ["COM"]
properties('MP2/aug-cc-pvtz', properties = ['dipole'])
--------------------------------------------------------------------------

    Molecular point group: c1
  Charge       = 0
  Multiplicity = 1
  Basis Set: AUG-CC-PVTZ
    Blend: AUG-CC-PVTZ
  Basis Set: (AUG-CC-PVTZ AUX)
    Blend: AUG-CC-PVTZ-JKFIT

    Orbital Energies [Eh]
    ---------------------

    Doubly Occupied:

       1A    -20.596059     2A    -20.595573     3A    -11.352163
       4A    -11.291047     5A    -11.289774     6A    -11.241199
       7A    -11.240092     8A    -11.238021     9A    -11.225642
      10A    -11.224808    11A    -11.214980    12A     -1.466910
      13A     -1.364466    14A     -1.159601    15A     -1.052908
      16A     -1.045302    17A     -0.955867    18A     -0.943332
      19A     -0.883271    20A     -0.851139    21A     -0.795948
      22A     -0.724586    23A     -0.713450    24A     -0.680671
      25A     -0.658343    26A     -0.631483    27A     -0.611209
      28A     -0.595141    29A     -0.574132    30A     -0.565580
      31A     -0.551441    32A     -0.542376    33A     -0.535518
      34A     -0.533579    35A     -0.530188    36A     -0.500102
      37A     -0.495518    38A     -0.441228    39A     -0.334175
      40A     -0.292440

  @DF-RHF Final Energy:  -496.47971314967168

   => Energetics <=

    Nuclear Repulsion Energy =            602.5236614868068727
    One-Electron Energy =               -1870.9282295166219683
    Two-Electron Energy =                 771.9248548801432435
    Total Energy =                       -496.4797131496717384
  Basis Set: (AUG-CC-PVTZ AUX)
    Blend: AUG-CC-PVTZ-RI
    Molecular point group: c1

    Geometry (in Angstrom), charge = 0, multiplicity = 1:

       Center              X                  Y                   Z               Mass
    ------------   -----------------  -----------------  -----------------  -----------------
         O            2.159935661671    -1.157438136659    -0.110564405066    15.994914619570
         O            2.159935661671     1.160125863341    -0.110547405066    15.994914619570
         C           -1.528857338329    -0.704468136659     0.006499594934    12.000000000000
         C           -1.528858338329     0.707153863341     0.006511594934    12.000000000000
         C            0.858835661671    -0.693173136659    -0.033551405066    12.000000000000
         C            0.858834661671     0.695860863341    -0.033528405066    12.000000000000
         C           -0.316648338329    -1.419629136659    -0.019139405066    12.000000000000
         C           -0.316650338329     1.422314863341    -0.019158405066    12.000000000000
         C            2.940413661671     0.001341863341     0.212898594934    12.000000000000
         C           -2.831500338329    -1.462245136659     0.039320594934    12.000000000000
         C           -2.831501338329     1.464929863341     0.039309594934    12.000000000000
         H           -0.302555338329    -2.506569136659    -0.027028405066     1.007825032230
         H           -0.305149338329     2.309276863341    -0.025571505066     1.007825032230
         H            3.159678661671     0.001332863341     1.290246594934     1.007825032230
         H            3.850188661671     0.001346863341    -0.386790405066     1.007825032230
         H           -2.650746338329    -2.540263136659     0.026481594934     1.007825032230
         H           -3.411256338329    -1.229943136659     0.939552594934     1.007825032230
         H           -3.461994338329    -1.217378136659    -0.822533405066     1.007825032230
         H           -3.411244338329     1.232672863341     0.939563594934     1.007825032230
         H           -2.650749338329     2.542947863341     0.026414594934     1.007825032230
         H           -3.462006338329     1.220016863341    -0.822522405066     1.007825032230

  Basis Set: AUG-CC-PVTZ
    Blend: AUG-CC-PVTZ
  Basis Set: (AUG-CC-PVTZ AUX)
    Blend: AUG-CC-PVTZ-JKFIT
	 Reference Energy          =    -496.4797131496716815 [Eh]
	 Singles Energy            =      -0.0000000000000000 [Eh]
	 Same-Spin Energy          =      -0.5237352573133724 [Eh]
	 Opposite-Spin Energy      =      -1.6316231361300568 [Eh]
	 Correlation Energy        =      -2.1553583934434295 [Eh]
	 Total Energy              =    -498.6350715431150888 [Eh]

	 ================> DF-SCS-MP2 Energies <==================
	-----------------------------------------------------------
	 SCS Same-Spin Scale       =       0.3333333333333333 [-]
	 SCS Opposite-Spin Scale   =       1.2000000000000000 [-]
	 SCS Same-Spin Energy      =      -0.1745784191044575 [Eh]
	 SCS Opposite-Spin Energy  =      -1.9579477633560680 [Eh]
	 SCS Correlation Energy    =      -2.1325261824605253 [Eh]
	 SCS Total Energy          =    -498.6122393321322193 [Eh]
	-----------------------------------------------------------

  Dipole Moment: [D]
     X:    -0.5710      Y:     0.0169      Z:     0.5639     Total:     0.8027

*** Psi4 exiting successfully. Buy a developer a beer!
