                               Psi4 1.4a3.dev225

  ==> Input File <==

--------------------------------------------------------------------------
#psi4
#
memory 32 gb

molecule  {
0 1
  O        2.2381840    -1.1587810    -0.1175950
  O        2.2381840     1.1587830    -0.1175780
  C       -1.4506090    -0.7058110    -0.0005310
  C       -1.4506100     0.7058110    -0.0005190
  C        0.9370840    -0.6945160    -0.0405820
  C        0.9370830     0.6945180    -0.0405590
  C       -0.2384000    -1.4209720    -0.0261700
  C       -0.2261103     1.3997026    -0.0265467
  C        3.0186620    -0.0000010     0.2058680
  C       -2.7532520    -1.4635880     0.0322900
  C       -2.7532530     1.4635870     0.0322790
  H       -0.2243070    -2.5079120    -0.0340590
  H       -0.2243080     2.5079120    -0.0340480
  H        3.2379270    -0.0000100     1.2832160
  H        3.9284370     0.0000040    -0.3938210
  H       -2.5724980    -2.5416060     0.0194510
  H       -3.3330080    -1.2312860     0.9325220
  H       -3.3837460    -1.2187210    -0.8295640
  H       -3.3329960     1.2313300     0.9325330
  H       -2.5725010     2.5416050     0.0193840
  H       -3.3837580     1.2186740    -0.8295530
units angstrom
no_reorient  #important for SAPT in psi4, default
symmetry c1  #important for SAPT in psi4, default
}

set PROPERTIES_ORIGIN ["COM"]
properties('MP2/aug-cc-pvtz', properties = ['dipole'])
--------------------------------------------------------------------------

    Molecular point group: c1
  Charge       = 0
  Multiplicity = 1
  Basis Set: AUG-CC-PVTZ
    Blend: AUG-CC-PVTZ
  Basis Set: (AUG-CC-PVTZ AUX)
    Blend: AUG-CC-PVTZ-JKFIT

    Orbital Energies [Eh]
    ---------------------

    Doubly Occupied:

       1A    -20.596419     2A    -20.596161     3A    -11.352497
       4A    -11.292099     5A    -11.288966     6A    -11.242047
       7A    -11.240814     8A    -11.237556     9A    -11.237367
      10A    -11.225834    11A    -11.225171    12A     -1.467425
      13A     -1.364892    14A     -1.160192    15A     -1.054567
      16A     -1.038249    17A     -0.953591    18A     -0.943311
      19A     -0.882880    20A     -0.836141    21A     -0.796252
      22A     -0.716486    23A     -0.712963    24A     -0.675371
      25A     -0.647865    26A     -0.613448    27A     -0.609414
      28A     -0.595540    29A     -0.574331    30A     -0.566259
      31A     -0.551581    32A     -0.540822    33A     -0.535213
      34A     -0.533934    35A     -0.531737    36A     -0.502428
      37A     -0.488113    38A     -0.442316    39A     -0.335616
      40A     -0.293732

  @DF-RHF Final Energy:  -496.51390254693155

   => Energetics <=

    Nuclear Repulsion Energy =            601.7261018214660453
    One-Electron Energy =               -1869.4808145031240656
    Two-Electron Energy =                 771.2408101347264164
    Total Energy =                       -496.5139025469316039
  Basis Set: (AUG-CC-PVTZ AUX)
    Blend: AUG-CC-PVTZ-RI
    Molecular point group: c1

    Geometry (in Angstrom), charge = 0, multiplicity = 1:

       Center              X                  Y                   Z               Mass
    ------------   -----------------  -----------------  -----------------  -----------------
         O            2.158935357738    -1.157080365933    -0.110526091694    15.994914619570
         O            2.158935357738     1.160483634067    -0.110509091694    15.994914619570
         C           -1.529857642262    -0.704110365933     0.006537908306    12.000000000000
         C           -1.529858642262     0.707511634067     0.006549908306    12.000000000000
         C            0.857835357738    -0.692815365933    -0.033513091694    12.000000000000
         C            0.857834357738     0.696218634067    -0.033490091694    12.000000000000
         C           -0.317648642262    -1.419271365933    -0.019101091694    12.000000000000
         C           -0.305358942262     1.401403234067    -0.019477791694    12.000000000000
         C            2.939413357738     0.001699634067     0.212936908306    12.000000000000
         C           -2.832500642262    -1.461887365933     0.039358908306    12.000000000000
         C           -2.832501642262     1.465287634067     0.039347908306    12.000000000000
         H           -0.303555642262    -2.506211365933    -0.026990091694     1.007825032230
         H           -0.303556642262     2.509612634067    -0.026979091694     1.007825032230
         H            3.158678357738     0.001690634067     1.290284908306     1.007825032230
         H            3.849188357738     0.001704634067    -0.386752091694     1.007825032230
         H           -2.651746642262    -2.539905365933     0.026519908306     1.007825032230
         H           -3.412256642262    -1.229585365933     0.939590908306     1.007825032230
         H           -3.462994642262    -1.217020365933    -0.822495091694     1.007825032230
         H           -3.412244642262     1.233030634067     0.939601908306     1.007825032230
         H           -2.651749642262     2.543305634067     0.026452908306     1.007825032230
         H           -3.463006642262     1.220374634067    -0.822484091694     1.007825032230

  Basis Set: AUG-CC-PVTZ
    Blend: AUG-CC-PVTZ
  Basis Set: (AUG-CC-PVTZ AUX)
    Blend: AUG-CC-PVTZ-JKFIT
	 Reference Energy          =    -496.5139025469315470 [Eh]
	 Singles Energy            =      -0.0000000000000000 [Eh]
	 Same-Spin Energy          =      -0.5240093919739183 [Eh]
	 Opposite-Spin Energy      =      -1.6320813278865587 [Eh]
	 Correlation Energy        =      -2.1560907198604768 [Eh]
	 Total Energy              =    -498.6699932667920052 [Eh]

	 ================> DF-SCS-MP2 Energies <==================
	-----------------------------------------------------------
	 SCS Same-Spin Scale       =       0.3333333333333333 [-]
	 SCS Opposite-Spin Scale   =       1.2000000000000000 [-]
	 SCS Same-Spin Energy      =      -0.1746697973246394 [Eh]
	 SCS Opposite-Spin Energy  =      -1.9584975934638704 [Eh]
	 SCS Correlation Energy    =      -2.1331673907885098 [Eh]
	 SCS Total Energy          =    -498.6470699377200617 [Eh]
	-----------------------------------------------------------

  Dipole Moment: [D]
     X:    -0.5790      Y:    -0.0075      Z:     0.5669     Total:     0.8103

*** Psi4 exiting successfully. Buy a developer a beer!
