                               Psi4 1.4a3.dev225

  ==> Input File <==

--------------------------------------------------------------------------
#psi4
#
memory 32 gb

molecule  {
0 1
  O        2.2381840    -1.1587810    -0.1175950
  O        2.2381840     1.1587830    -0.1175780
  C       -1.4506090    -0.7058110    -0.0005310
  C       -1.4506100     0.7058110    -0.0005190
  C        0.9370840    -0.6945160    -0.0405820
  C        0.9370830     0.6945180    -0.0405590
  C       -0.2384000    -1.4209720    -0.0261700
  C       -0.2384020     1.4209720    -0.0261890
  C        2.9098137    -0.1616086     0.1607567
  C       -2.7532520    -1.4635880     0.0322900
  C       -2.7532530     1.4635870     0.0322790
  H       -0.2243070    -2.5079120    -0.0340590
  H       -0.2243080     2.5079120    -0.0340480
  H        3.2379270    -0.0000100     1.2832160
  H        3.9284370     0.0000040    -0.3938210
  H       -2.5724980    -2.5416060     0.0194510
  H       -3.3330080    -1.2312860     0.9325220
  H       -3.3837460    -1.2187210    -0.8295640
  H       -3.3329960     1.2313300     0.9325330
  H       -2.5725010     2.5416050     0.0193840
  H       -3.3837580     1.2186740    -0.8295530
units angstrom
no_reorient  #important for SAPT in psi4, default
symmetry c1  #important for SAPT in psi4, default
}

set PROPERTIES_ORIGIN ["COM"]
properties('MP2/aug-cc-pvtz', properties = ['dipole'])
--------------------------------------------------------------------------

    Molecular point group: c1
  Charge       = 0
  Multiplicity = 1
  Basis Set: AUG-CC-PVTZ
    Blend: AUG-CC-PVTZ
  Basis Set: (AUG-CC-PVTZ AUX)
    Blend: AUG-CC-PVTZ-JKFIT

    Orbital Energies [Eh]
    ---------------------

    Doubly Occupied:

       1A    -20.618044     2A    -20.585795     3A    -11.355589
       4A    -11.300605     5A    -11.295497     6A    -11.248714
       7A    -11.247912     8A    -11.244517     9A    -11.239063
      10A    -11.228816    11A    -11.228519    12A     -1.532605
      13A     -1.375153    14A     -1.164558    15A     -1.061859
      16A     -1.042249    17A     -0.961115    18A     -0.938624
      19A     -0.881460    20A     -0.844825    21A     -0.809384
      22A     -0.730399    23A     -0.727604    24A     -0.694772
      25A     -0.647233    26A     -0.632984    27A     -0.615261
      28A     -0.598970    29A     -0.576939    30A     -0.563585
      31A     -0.554767    32A     -0.550003    33A     -0.543539
      34A     -0.523394    35A     -0.504328    36A     -0.503471
      37A     -0.495890    38A     -0.424397    39A     -0.339679
      40A     -0.297605

  @DF-RHF Final Energy:  -496.47055357082399

   => Energetics <=

    Nuclear Repulsion Energy =            604.4469256558998040
    One-Electron Energy =               -1874.3755173191377708
    Two-Electron Energy =                 773.4580380924139718
    Total Energy =                       -496.4705535708239950
  Basis Set: (AUG-CC-PVTZ AUX)
    Blend: AUG-CC-PVTZ-RI
    Molecular point group: c1

    Geometry (in Angstrom), charge = 0, multiplicity = 1:

       Center              X                  Y                   Z               Mass
    ------------   -----------------  -----------------  -----------------  -----------------
         O            2.168622161249    -1.145858403175    -0.106947427919    15.994914619570
         O            2.168622161249     1.171705596825    -0.106930427919    15.994914619570
         C           -1.520170838751    -0.692888403175     0.010116572081    12.000000000000
         C           -1.520171838751     0.718733596825     0.010128572081    12.000000000000
         C            0.867522161249    -0.681593403175    -0.029934427919    12.000000000000
         C            0.867521161249     0.707440596825    -0.029911427919    12.000000000000
         C           -0.307961838751    -1.408049403175    -0.015522427919    12.000000000000
         C           -0.307963838751     1.433894596825    -0.015541427919    12.000000000000
         C            2.840251861249    -0.148686003175     0.171404272081    12.000000000000
         C           -2.822813838751    -1.450665403175     0.042937572081    12.000000000000
         C           -2.822814838751     1.476509596825     0.042926572081    12.000000000000
         H           -0.293868838751    -2.494989403175    -0.023411427919     1.007825032230
         H           -0.293869838751     2.520834596825    -0.023400427919     1.007825032230
         H            3.168365161249     0.012912596825     1.293863572081     1.007825032230
         H            3.858875161249     0.012926596825    -0.383173427919     1.007825032230
         H           -2.642059838751    -2.528683403175     0.030098572081     1.007825032230
         H           -3.402569838751    -1.218363403175     0.943169572081     1.007825032230
         H           -3.453307838751    -1.205798403175    -0.818916427919     1.007825032230
         H           -3.402557838751     1.244252596825     0.943180572081     1.007825032230
         H           -2.642062838751     2.554527596825     0.030031572081     1.007825032230
         H           -3.453319838751     1.231596596825    -0.818905427919     1.007825032230

  Basis Set: AUG-CC-PVTZ
    Blend: AUG-CC-PVTZ
  Basis Set: (AUG-CC-PVTZ AUX)
    Blend: AUG-CC-PVTZ-JKFIT
	 Reference Energy          =    -496.4705535708239950 [Eh]
	 Singles Energy            =      -0.0000000000000000 [Eh]
	 Same-Spin Energy          =      -0.5259271037520727 [Eh]
	 Opposite-Spin Energy      =      -1.6337963736579084 [Eh]
	 Correlation Energy        =      -2.1597234774099814 [Eh]
	 Total Energy              =    -498.6302770482339497 [Eh]

	 ================> DF-SCS-MP2 Energies <==================
	-----------------------------------------------------------
	 SCS Same-Spin Scale       =       0.3333333333333333 [-]
	 SCS Opposite-Spin Scale   =       1.2000000000000000 [-]
	 SCS Same-Spin Energy      =      -0.1753090345840242 [Eh]
	 SCS Opposite-Spin Energy  =      -1.9605556483894899 [Eh]
	 SCS Correlation Energy    =      -2.1358646829735140 [Eh]
	 SCS Total Energy          =    -498.6064182537975285 [Eh]
	-----------------------------------------------------------

  Dipole Moment: [D]
     X:    -1.4224      Y:    -0.5707      Z:     0.2805     Total:     1.5581

*** Psi4 exiting successfully. Buy a developer a beer!
