                               Psi4 1.4a3.dev225

  ==> Input File <==

--------------------------------------------------------------------------
#psi4
#
memory 32 gb

molecule  {
0 1
  O        2.2381840    -1.1587810    -0.1175950
  O        2.2381840     1.1587830    -0.1175780
  C       -1.4506090    -0.7058110    -0.0005310
  C       -1.4506100     0.7058110    -0.0005190
  C        1.1251593    -0.7616260    -0.0517143
  C        0.9370830     0.6945180    -0.0405590
  C       -0.2384000    -1.4209720    -0.0261700
  C       -0.2384020     1.4209720    -0.0261890
  C        3.0186620    -0.0000010     0.2058680
  C       -2.7532520    -1.4635880     0.0322900
  C       -2.7532530     1.4635870     0.0322790
  H       -0.2243070    -2.5079120    -0.0340590
  H       -0.2243080     2.5079120    -0.0340480
  H        3.2379270    -0.0000100     1.2832160
  H        3.9284370     0.0000040    -0.3938210
  H       -2.5724980    -2.5416060     0.0194510
  H       -3.3330080    -1.2312860     0.9325220
  H       -3.3837460    -1.2187210    -0.8295640
  H       -3.3329960     1.2313300     0.9325330
  H       -2.5725010     2.5416050     0.0193840
  H       -3.3837580     1.2186740    -0.8295530
units angstrom
no_reorient  #important for SAPT in psi4, default
symmetry c1  #important for SAPT in psi4, default
}

set PROPERTIES_ORIGIN ["COM"]
properties('MP2/aug-cc-pvtz', properties = ['dipole'])
--------------------------------------------------------------------------

    Molecular point group: c1
  Charge       = 0
  Multiplicity = 1
  Basis Set: AUG-CC-PVTZ
    Blend: AUG-CC-PVTZ
  Basis Set: (AUG-CC-PVTZ AUX)
    Blend: AUG-CC-PVTZ-JKFIT

    Orbital Energies [Eh]
    ---------------------

    Doubly Occupied:

       1A    -20.632137     2A    -20.596219     3A    -11.371974
       4A    -11.314211     5A    -11.286279     6A    -11.237177
       7A    -11.236036     8A    -11.234203     9A    -11.227505
      10A    -11.220081    11A    -11.217397    12A     -1.554172
      13A     -1.403545    14A     -1.136430    15A     -1.044834
      16A     -1.023171    17A     -0.963935    18A     -0.935068
      19A     -0.885170    20A     -0.831814    21A     -0.817726
      22A     -0.747455    23A     -0.725697    24A     -0.699719
      25A     -0.648076    26A     -0.617236    27A     -0.610289
      28A     -0.602954    29A     -0.587650    30A     -0.574592
      31A     -0.557245    32A     -0.544865    33A     -0.536560
      34A     -0.532732    35A     -0.513155    36A     -0.495666
      37A     -0.458900    38A     -0.434840    39A     -0.321058
      40A     -0.265504

  @DF-RHF Final Energy:  -496.45351362889687

   => Energetics <=

    Nuclear Repulsion Energy =            601.2600450620250285
    One-Electron Energy =               -1868.1405614799036812
    Two-Electron Energy =                 770.4270027889817811
    Total Energy =                       -496.4535136288968715
  Basis Set: (AUG-CC-PVTZ AUX)
    Blend: AUG-CC-PVTZ-RI
    Molecular point group: c1

    Geometry (in Angstrom), charge = 0, multiplicity = 1:

       Center              X                  Y                   Z               Mass
    ------------   -----------------  -----------------  -----------------  -----------------
         O            2.144879049386    -1.153414781609    -0.109664514732    15.994914619570
         O            2.144879049386     1.164149218391    -0.109647514732    15.994914619570
         C           -1.543913950614    -0.700444781609     0.007399485268    12.000000000000
         C           -1.543914950614     0.711177218391     0.007411485268    12.000000000000
         C            1.031854349386    -0.756259781609    -0.043783814732    12.000000000000
         C            0.843778049386     0.699884218391    -0.032628514732    12.000000000000
         C           -0.331704950614    -1.415605781609    -0.018239514732    12.000000000000
         C           -0.331706950614     1.426338218391    -0.018258514732    12.000000000000
         C            2.925357049386     0.005365218391     0.213798485268    12.000000000000
         C           -2.846556950614    -1.458221781609     0.040220485268    12.000000000000
         C           -2.846557950614     1.468953218391     0.040209485268    12.000000000000
         H           -0.317611950614    -2.502545781609    -0.026128514732     1.007825032230
         H           -0.317612950614     2.513278218391    -0.026117514732     1.007825032230
         H            3.144622049386     0.005356218391     1.291146485268     1.007825032230
         H            3.835132049386     0.005370218391    -0.385890514732     1.007825032230
         H           -2.665802950614    -2.536239781609     0.027381485268     1.007825032230
         H           -3.426312950614    -1.225919781609     0.940452485268     1.007825032230
         H           -3.477050950614    -1.213354781609    -0.821633514732     1.007825032230
         H           -3.426300950614     1.236696218391     0.940463485268     1.007825032230
         H           -2.665805950614     2.546971218391     0.027314485268     1.007825032230
         H           -3.477062950614     1.224040218391    -0.821622514732     1.007825032230

  Basis Set: AUG-CC-PVTZ
    Blend: AUG-CC-PVTZ
  Basis Set: (AUG-CC-PVTZ AUX)
    Blend: AUG-CC-PVTZ-JKFIT
	 Reference Energy          =    -496.4535136288968715 [Eh]
	 Singles Energy            =      -0.0000000000000000 [Eh]
	 Same-Spin Energy          =      -0.5260869525016296 [Eh]
	 Opposite-Spin Energy      =      -1.6341779517914672 [Eh]
	 Correlation Energy        =      -2.1602649042930970 [Eh]
	 Total Energy              =    -498.6137785331899863 [Eh]

	 ================> DF-SCS-MP2 Energies <==================
	-----------------------------------------------------------
	 SCS Same-Spin Scale       =       0.3333333333333333 [-]
	 SCS Opposite-Spin Scale   =       1.2000000000000000 [-]
	 SCS Same-Spin Energy      =      -0.1753623175005432 [Eh]
	 SCS Opposite-Spin Energy  =      -1.9610135421497605 [Eh]
	 SCS Correlation Energy    =      -2.1363758596503035 [Eh]
	 SCS Total Energy          =    -498.5898894885471577 [Eh]
	-----------------------------------------------------------

  Dipole Moment: [D]
     X:     0.8464      Y:    -0.2789      Z:     0.5064     Total:     1.0250

*** Psi4 exiting successfully. Buy a developer a beer!
