                               Psi4 1.4a3.dev225

  ==> Input File <==

--------------------------------------------------------------------------
#psi4
#
memory 32 gb

molecule  {
0 1
  O        2.2381840    -1.1587810    -0.1175950
  O        2.2381840     1.1587830    -0.1175780
  C       -1.4506090    -0.7058110    -0.0005310
  C       -1.4368291     0.7293809     0.0444571
  C        0.9370840    -0.6945160    -0.0405820
  C        0.9370830     0.6945180    -0.0405590
  C       -0.2384000    -1.4209720    -0.0261700
  C       -0.2384020     1.4209720    -0.0261890
  C        3.0186620    -0.0000010     0.2058680
  C       -2.7532520    -1.4635880     0.0322900
  C       -2.7532530     1.4635870     0.0322790
  H       -0.2243070    -2.5079120    -0.0340590
  H       -0.2243080     2.5079120    -0.0340480
  H        3.2379270    -0.0000100     1.2832160
  H        3.9284370     0.0000040    -0.3938210
  H       -2.5724980    -2.5416060     0.0194510
  H       -3.3330080    -1.2312860     0.9325220
  H       -3.3837460    -1.2187210    -0.8295640
  H       -3.3329960     1.2313300     0.9325330
  H       -2.5725010     2.5416050     0.0193840
  H       -3.3837580     1.2186740    -0.8295530
units angstrom
no_reorient  #important for SAPT in psi4, default
symmetry c1  #important for SAPT in psi4, default
}

set PROPERTIES_ORIGIN ["COM"]
properties('MP2/aug-cc-pvtz', properties = ['dipole'])
--------------------------------------------------------------------------

    Molecular point group: c1
  Charge       = 0
  Multiplicity = 1
  Basis Set: AUG-CC-PVTZ
    Blend: AUG-CC-PVTZ
  Basis Set: (AUG-CC-PVTZ AUX)
    Blend: AUG-CC-PVTZ-JKFIT

    Orbital Energies [Eh]
    ---------------------

    Doubly Occupied:

       1A    -20.595600     2A    -20.595576     3A    -11.352045
       4A    -11.291475     5A    -11.290198     6A    -11.244655
       7A    -11.242083     8A    -11.238309     9A    -11.236652
      10A    -11.225971    11A    -11.225493    12A     -1.466654
      13A     -1.364201    14A     -1.158254    15A     -1.051667
      16A     -1.040898    17A     -0.952948    18A     -0.943195
      19A     -0.881788    20A     -0.833281    21A     -0.797591
      22A     -0.716392    23A     -0.712415    24A     -0.675425
      25A     -0.647643    26A     -0.615448    27A     -0.611077
      28A     -0.595314    29A     -0.573763    30A     -0.564976
      31A     -0.552014    32A     -0.540929    33A     -0.534706
      34A     -0.533079    35A     -0.531491    36A     -0.504998
      37A     -0.486473    38A     -0.441593    39A     -0.336984
      40A     -0.290520

  @DF-RHF Final Energy:  -496.51257759276712

   => Energetics <=

    Nuclear Repulsion Energy =            601.2155452825663815
    One-Electron Energy =               -1868.4686920662304601
    Two-Electron Energy =                 770.7405691908969629
    Total Energy =                       -496.5125775927671157
  Basis Set: (AUG-CC-PVTZ AUX)
    Blend: AUG-CC-PVTZ-RI
    Molecular point group: c1

    Geometry (in Angstrom), charge = 0, multiplicity = 1:

       Center              X                  Y                   Z               Mass
    ------------   -----------------  -----------------  -----------------  -----------------
         O            2.158816275785    -1.160665882597    -0.114151150411    15.994914619570
         O            2.158816275785     1.156898117403    -0.114134150411    15.994914619570
         C           -1.529976724215    -0.707695882597     0.002912849589    12.000000000000
         C           -1.516196824215     0.727496017403     0.047900949589    12.000000000000
         C            0.857716275785    -0.696400882597    -0.037138150411    12.000000000000
         C            0.857715275785     0.692633117403    -0.037115150411    12.000000000000
         C           -0.317767724215    -1.422856882597    -0.022726150411    12.000000000000
         C           -0.317769724215     1.419087117403    -0.022745150411    12.000000000000
         C            2.939294275785    -0.001885882597     0.209311849589    12.000000000000
         C           -2.832619724215    -1.465472882597     0.035733849589    12.000000000000
         C           -2.832620724215     1.461702117403     0.035722849589    12.000000000000
         H           -0.303674724215    -2.509796882597    -0.030615150411     1.007825032230
         H           -0.303675724215     2.506027117403    -0.030604150411     1.007825032230
         H            3.158559275785    -0.001894882597     1.286659849589     1.007825032230
         H            3.849069275785    -0.001880882597    -0.390377150411     1.007825032230
         H           -2.651865724215    -2.543490882597     0.022894849589     1.007825032230
         H           -3.412375724215    -1.233170882597     0.935965849589     1.007825032230
         H           -3.463113724215    -1.220605882597    -0.826120150411     1.007825032230
         H           -3.412363724215     1.229445117403     0.935976849589     1.007825032230
         H           -2.651868724215     2.539720117403     0.022827849589     1.007825032230
         H           -3.463125724215     1.216789117403    -0.826109150411     1.007825032230

  Basis Set: AUG-CC-PVTZ
    Blend: AUG-CC-PVTZ
  Basis Set: (AUG-CC-PVTZ AUX)
    Blend: AUG-CC-PVTZ-JKFIT
	 Reference Energy          =    -496.5125775927671157 [Eh]
	 Singles Energy            =      -0.0000000000000000 [Eh]
	 Same-Spin Energy          =      -0.5241503820962271 [Eh]
	 Opposite-Spin Energy      =      -1.6323705603267489 [Eh]
	 Correlation Energy        =      -2.1565209424229761 [Eh]
	 Total Energy              =    -498.6690985351900736 [Eh]

	 ================> DF-SCS-MP2 Energies <==================
	-----------------------------------------------------------
	 SCS Same-Spin Scale       =       0.3333333333333333 [-]
	 SCS Opposite-Spin Scale   =       1.2000000000000000 [-]
	 SCS Same-Spin Energy      =      -0.1747167940320757 [Eh]
	 SCS Opposite-Spin Energy  =      -1.9588446723920985 [Eh]
	 SCS Correlation Energy    =      -2.1335614664241742 [Eh]
	 SCS Total Energy          =    -498.6461390591912846 [Eh]
	-----------------------------------------------------------

  Dipole Moment: [D]
     X:    -0.5905      Y:    -0.0072      Z:     0.5424     Total:     0.8018

*** Psi4 exiting successfully. Buy a developer a beer!
