                               Psi4 1.4a3.dev225

  ==> Input File <==

--------------------------------------------------------------------------
#psi4
#
memory 32 gb

molecule  {
0 1
  O        2.2381840    -1.1587810    -0.1175950
  O        2.2795004     1.0199995    -0.1200263
  C       -1.4506090    -0.7058110    -0.0005310
  C       -1.4506100     0.7058110    -0.0005190
  C        0.9370840    -0.6945160    -0.0405820
  C        0.9370830     0.6945180    -0.0405590
  C       -0.2384000    -1.4209720    -0.0261700
  C       -0.2384020     1.4209720    -0.0261890
  C        3.0186620    -0.0000010     0.2058680
  C       -2.7532520    -1.4635880     0.0322900
  C       -2.7532530     1.4635870     0.0322790
  H       -0.2243070    -2.5079120    -0.0340590
  H       -0.2243080     2.5079120    -0.0340480
  H        3.2379270    -0.0000100     1.2832160
  H        3.9284370     0.0000040    -0.3938210
  H       -2.5724980    -2.5416060     0.0194510
  H       -3.3330080    -1.2312860     0.9325220
  H       -3.3837460    -1.2187210    -0.8295640
  H       -3.3329960     1.2313300     0.9325330
  H       -2.5725010     2.5416050     0.0193840
  H       -3.3837580     1.2186740    -0.8295530
units angstrom
no_reorient  #important for SAPT in psi4, default
symmetry c1  #important for SAPT in psi4, default
}

set PROPERTIES_ORIGIN ["COM"]
properties('MP2/aug-cc-pvtz', properties = ['dipole'])
--------------------------------------------------------------------------

    Molecular point group: c1
  Charge       = 0
  Multiplicity = 1
  Basis Set: AUG-CC-PVTZ
    Blend: AUG-CC-PVTZ
  Basis Set: (AUG-CC-PVTZ AUX)
    Blend: AUG-CC-PVTZ-JKFIT

    Orbital Energies [Eh]
    ---------------------

    Doubly Occupied:

       1A    -20.591271     2A    -20.586155     3A    -11.339489
       4A    -11.296372     5A    -11.290269     6A    -11.245234
       7A    -11.244129     8A    -11.242737     9A    -11.237360
      10A    -11.226853    11A    -11.226323    12A     -1.502246
      13A     -1.366713    14A     -1.162569    15A     -1.061664
      16A     -1.040199    17A     -0.956385    18A     -0.948978
      19A     -0.874227    20A     -0.839680    21A     -0.804504
      22A     -0.731570    23A     -0.723670    24A     -0.689349
      25A     -0.647303    26A     -0.626626    27A     -0.616283
      28A     -0.596781    29A     -0.571787    30A     -0.563038
      31A     -0.552520    32A     -0.541697    33A     -0.534781
      34A     -0.525932    35A     -0.523791    36A     -0.503034
      37A     -0.490140    38A     -0.437899    39A     -0.336894
      40A     -0.293308

  @DF-RHF Final Energy:  -496.50488206478457

   => Energetics <=

    Nuclear Repulsion Energy =            604.4876978879289027
    One-Electron Energy =               -1874.8056411744512388
    Two-Electron Energy =                 773.8130612217375983
    Total Energy =                       -496.5048820647846242
  Basis Set: (AUG-CC-PVTZ AUX)
    Blend: AUG-CC-PVTZ-RI
    Molecular point group: c1

    Geometry (in Angstrom), charge = 0, multiplicity = 1:

       Center              X                  Y                   Z               Mass
    ------------   -----------------  -----------------  -----------------  -----------------
         O            2.155514564376    -1.143988991413    -0.110293744151    15.994914619570
         O            2.196830964376     1.034791508587    -0.112725044151    15.994914619570
         C           -1.533278435624    -0.691018991413     0.006770255849    12.000000000000
         C           -1.533279435624     0.720603008587     0.006782255849    12.000000000000
         C            0.854414564376    -0.679723991413    -0.033280744151    12.000000000000
         C            0.854413564376     0.709310008587    -0.033257744151    12.000000000000
         C           -0.321069435624    -1.406179991413    -0.018868744151    12.000000000000
         C           -0.321071435624     1.435764008587    -0.018887744151    12.000000000000
         C            2.935992564376     0.014791008587     0.213169255849    12.000000000000
         C           -2.835921435624    -1.448795991413     0.039591255849    12.000000000000
         C           -2.835922435624     1.478379008587     0.039580255849    12.000000000000
         H           -0.306976435624    -2.493119991413    -0.026757744151     1.007825032230
         H           -0.306977435624     2.522704008587    -0.026746744151     1.007825032230
         H            3.155257564376     0.014782008587     1.290517255849     1.007825032230
         H            3.845767564376     0.014796008587    -0.386519744151     1.007825032230
         H           -2.655167435624    -2.526813991413     0.026752255849     1.007825032230
         H           -3.415677435624    -1.216493991413     0.939823255849     1.007825032230
         H           -3.466415435624    -1.203928991413    -0.822262744151     1.007825032230
         H           -3.415665435624     1.246122008587     0.939834255849     1.007825032230
         H           -2.655170435624     2.556397008587     0.026685255849     1.007825032230
         H           -3.466427435624     1.233466008587    -0.822251744151     1.007825032230

  Basis Set: AUG-CC-PVTZ
    Blend: AUG-CC-PVTZ
  Basis Set: (AUG-CC-PVTZ AUX)
    Blend: AUG-CC-PVTZ-JKFIT
	 Reference Energy          =    -496.5048820647845673 [Eh]
	 Singles Energy            =      -0.0000000000000000 [Eh]
	 Same-Spin Energy          =      -0.5236760805760590 [Eh]
	 Opposite-Spin Energy      =      -1.6290826334256820 [Eh]
	 Correlation Energy        =      -2.1527587140017408 [Eh]
	 Total Energy              =    -498.6576407787862877 [Eh]

	 ================> DF-SCS-MP2 Energies <==================
	-----------------------------------------------------------
	 SCS Same-Spin Scale       =       0.3333333333333333 [-]
	 SCS Opposite-Spin Scale   =       1.2000000000000000 [-]
	 SCS Same-Spin Energy      =      -0.1745586935253530 [Eh]
	 SCS Opposite-Spin Energy  =      -1.9548991601108183 [Eh]
	 SCS Correlation Energy    =      -2.1294578536361715 [Eh]
	 SCS Total Energy          =    -498.6343399184207215 [Eh]
	-----------------------------------------------------------

  Dipole Moment: [D]
     X:    -0.8672      Y:     0.3560      Z:     0.4775     Total:     1.0520

*** Psi4 exiting successfully. Buy a developer a beer!
