                               Psi4 1.4a3.dev225

  ==> Input File <==

--------------------------------------------------------------------------
#psi4
#
memory 32 gb

molecule  {
0 1
  O        2.2397236    -1.1721918    -0.0693937
  O        2.2381840     1.1587830    -0.1175780
  C       -1.4506090    -0.7058110    -0.0005310
  C       -1.4506100     0.7058110    -0.0005190
  C        0.9370840    -0.6945160    -0.0405820
  C        0.9370830     0.6945180    -0.0405590
  C       -0.2384000    -1.4209720    -0.0261700
  C       -0.2384020     1.4209720    -0.0261890
  C        3.0186620    -0.0000010     0.2058680
  C       -2.7532520    -1.4635880     0.0322900
  C       -2.7532530     1.4635870     0.0322790
  H       -0.2243070    -2.5079120    -0.0340590
  H       -0.2243080     2.5079120    -0.0340480
  H        3.2379270    -0.0000100     1.2832160
  H        3.9284370     0.0000040    -0.3938210
  H       -2.5724980    -2.5416060     0.0194510
  H       -3.3330080    -1.2312860     0.9325220
  H       -3.3837460    -1.2187210    -0.8295640
  H       -3.3329960     1.2313300     0.9325330
  H       -2.5725010     2.5416050     0.0193840
  H       -3.3837580     1.2186740    -0.8295530
units angstrom
no_reorient  #important for SAPT in psi4, default
symmetry c1  #important for SAPT in psi4, default
}

set PROPERTIES_ORIGIN ["COM"]
properties('MP2/aug-cc-pvtz', properties = ['dipole'])
--------------------------------------------------------------------------

    Molecular point group: c1
  Charge       = 0
  Multiplicity = 1
  Basis Set: AUG-CC-PVTZ
    Blend: AUG-CC-PVTZ
  Basis Set: (AUG-CC-PVTZ AUX)
    Blend: AUG-CC-PVTZ-JKFIT

    Orbital Energies [Eh]
    ---------------------

    Doubly Occupied:

       1A    -20.596774     2A    -20.596109     3A    -11.351777
       4A    -11.292766     5A    -11.291490     6A    -11.242459
       7A    -11.241360     8A    -11.238599     9A    -11.238281
      10A    -11.225425    11A    -11.225408    12A     -1.465994
      13A     -1.365053    14A     -1.158702    15A     -1.053320
      16A     -1.038528    17A     -0.952571    18A     -0.942461
      19A     -0.882652    20A     -0.837070    21A     -0.795960
      22A     -0.715747    23A     -0.711667    24A     -0.674886
      25A     -0.648952    26A     -0.615264    27A     -0.609999
      28A     -0.595500    29A     -0.573281    30A     -0.565658
      31A     -0.551645    32A     -0.541502    33A     -0.537253
      34A     -0.533188    35A     -0.530826    36A     -0.501111
      37A     -0.491734    38A     -0.440820    39A     -0.334520
      40A     -0.293258

  @DF-RHF Final Energy:  -496.51382510752984

   => Energetics <=

    Nuclear Repulsion Energy =            601.0690430126360297
    One-Electron Energy =               -1868.1665950846675059
    Two-Electron Energy =                 770.5837269645015795
    Total Energy =                       -496.5138251075298967
  Basis Set: (AUG-CC-PVTZ AUX)
    Blend: AUG-CC-PVTZ-RI
    Molecular point group: c1

    Geometry (in Angstrom), charge = 0, multiplicity = 1:

       Center              X                  Y                   Z               Mass
    ------------   -----------------  -----------------  -----------------  -----------------
         O            2.161293750314    -1.170762564082    -0.067490900838    15.994914619570
         O            2.159754150314     1.160212235918    -0.115675200838    15.994914619570
         C           -1.529038849686    -0.704381764082     0.001371799162    12.000000000000
         C           -1.529039849686     0.707240235918     0.001383799162    12.000000000000
         C            0.858654150314    -0.693086764082    -0.038679200838    12.000000000000
         C            0.858653150314     0.695947235918    -0.038656200838    12.000000000000
         C           -0.316829849686    -1.419542764082    -0.024267200838    12.000000000000
         C           -0.316831849686     1.422401235918    -0.024286200838    12.000000000000
         C            2.940232150314     0.001428235918     0.207770799162    12.000000000000
         C           -2.831681849686    -1.462158764082     0.034192799162    12.000000000000
         C           -2.831682849686     1.465016235918     0.034181799162    12.000000000000
         H           -0.302736849686    -2.506482764082    -0.032156200838     1.007825032230
         H           -0.302737849686     2.509341235918    -0.032145200838     1.007825032230
         H            3.159497150314     0.001419235918     1.285118799162     1.007825032230
         H            3.850007150314     0.001433235918    -0.391918200838     1.007825032230
         H           -2.650927849686    -2.540176764082     0.021353799162     1.007825032230
         H           -3.411437849686    -1.229856764082     0.934424799162     1.007825032230
         H           -3.462175849686    -1.217291764082    -0.827661200838     1.007825032230
         H           -3.411425849686     1.232759235918     0.934435799162     1.007825032230
         H           -2.650930849686     2.543034235918     0.021286799162     1.007825032230
         H           -3.462187849686     1.220103235918    -0.827650200838     1.007825032230

  Basis Set: AUG-CC-PVTZ
    Blend: AUG-CC-PVTZ
  Basis Set: (AUG-CC-PVTZ AUX)
    Blend: AUG-CC-PVTZ-JKFIT
	 Reference Energy          =    -496.5138251075298399 [Eh]
	 Singles Energy            =      -0.0000000000000000 [Eh]
	 Same-Spin Energy          =      -0.5240289984616394 [Eh]
	 Opposite-Spin Energy      =      -1.6323439524531786 [Eh]
	 Correlation Energy        =      -2.1563729509148182 [Eh]
	 Total Energy              =    -498.6701980584446687 [Eh]

	 ================> DF-SCS-MP2 Energies <==================
	-----------------------------------------------------------
	 SCS Same-Spin Scale       =       0.3333333333333333 [-]
	 SCS Opposite-Spin Scale   =       1.2000000000000000 [-]
	 SCS Same-Spin Energy      =      -0.1746763328205465 [Eh]
	 SCS Opposite-Spin Energy  =      -1.9588127429438142 [Eh]
	 SCS Correlation Energy    =      -2.1334890757643605 [Eh]
	 SCS Total Energy          =    -498.6473141832942133 [Eh]
	-----------------------------------------------------------

  Dipole Moment: [D]
     X:    -0.5896      Y:     0.0168      Z:     0.5085     Total:     0.7788

*** Psi4 exiting successfully. Buy a developer a beer!
