                               Psi4 1.4a3.dev225

  ==> Input File <==

--------------------------------------------------------------------------
#psi4
#
memory 32 gb

molecule  {
0 1
  O        2.2381840    -1.1587810    -0.1175950
  O        2.2381840     1.1587830    -0.1175780
  C       -1.4506090    -0.7058110    -0.0005310
  C       -1.4506100     0.7058110    -0.0005190
  C        0.9370840    -0.6945160    -0.0405820
  C        0.9370830     0.6945180    -0.0405590
  C       -0.2384000    -1.4209720    -0.0261700
  C       -0.2384020     1.4209720    -0.0261890
  C        3.0186620    -0.0000010     0.2058680
  C       -2.7532520    -1.4635880     0.0322900
  C       -2.7532530     1.4635870     0.0322790
  H       -0.2243070    -2.5079120    -0.0340590
  H       -0.2243080     2.5079120    -0.0340480
  H        3.2379270    -0.0000100     1.2832160
  H        3.9117384     0.0000039    -0.3828139
  H       -2.5724980    -2.5416060     0.0194510
  H       -3.3330080    -1.2312860     0.9325220
  H       -3.3837460    -1.2187210    -0.8295640
  H       -3.3329960     1.2313300     0.9325330
  H       -2.5725010     2.5416050     0.0193840
  H       -3.3837580     1.2186740    -0.8295530
units angstrom
no_reorient  #important for SAPT in psi4, default
symmetry c1  #important for SAPT in psi4, default
}

set PROPERTIES_ORIGIN ["COM"]
properties('MP2/aug-cc-pvtz', properties = ['dipole'])
--------------------------------------------------------------------------

    Molecular point group: c1
  Charge       = 0
  Multiplicity = 1
  Basis Set: AUG-CC-PVTZ
    Blend: AUG-CC-PVTZ
  Basis Set: (AUG-CC-PVTZ AUX)
    Blend: AUG-CC-PVTZ-JKFIT

    Orbital Energies [Eh]
    ---------------------

    Doubly Occupied:

       1A    -20.595887     2A    -20.595867     3A    -11.350034
       4A    -11.292016     5A    -11.290744     6A    -11.242238
       7A    -11.241139     8A    -11.238199     9A    -11.238180
      10A    -11.225263    11A    -11.225257    12A     -1.467087
      13A     -1.364497    14A     -1.158469    15A     -1.053493
      16A     -1.038248    17A     -0.952287    18A     -0.944349
      19A     -0.883155    20A     -0.837015    21A     -0.795503
      22A     -0.717461    23A     -0.712610    24A     -0.674934
      25A     -0.649261    26A     -0.614982    27A     -0.612081
      28A     -0.595399    29A     -0.573932    30A     -0.565875
      31A     -0.551457    32A     -0.540929    33A     -0.534952
      34A     -0.533730    35A     -0.531316    36A     -0.500740
      37A     -0.491223    38A     -0.441866    39A     -0.334303
      40A     -0.293142

  @DF-RHF Final Energy:  -496.51446389994709

   => Energetics <=

    Nuclear Repulsion Energy =            601.3974634888203354
    One-Electron Energy =               -1868.8256121782419541
    Two-Electron Energy =                 770.9136847894743596
    Total Energy =                       -496.5144638999471454
  Basis Set: (AUG-CC-PVTZ AUX)
    Blend: AUG-CC-PVTZ-RI
    Molecular point group: c1

    Geometry (in Angstrom), charge = 0, multiplicity = 1:

       Center              X                  Y                   Z               Mass
    ------------   -----------------  -----------------  -----------------  -----------------
         O            2.160030391855    -1.158781145339    -0.110628616034    15.994914619570
         O            2.160030391855     1.158782854661    -0.110611616034    15.994914619570
         C           -1.528762608145    -0.705811145339     0.006435383966    12.000000000000
         C           -1.528763608145     0.705810854661     0.006447383966    12.000000000000
         C            0.858930391855    -0.694516145339    -0.033615616034    12.000000000000
         C            0.858929391855     0.694517854661    -0.033592616034    12.000000000000
         C           -0.316553608145    -1.420972145339    -0.019203616034    12.000000000000
         C           -0.316555608145     1.420971854661    -0.019222616034    12.000000000000
         C            2.940508391855    -0.000001145339     0.212834383966    12.000000000000
         C           -2.831405608145    -1.463588145339     0.039256383966    12.000000000000
         C           -2.831406608145     1.463586854661     0.039245383966    12.000000000000
         H           -0.302460608145    -2.507912145339    -0.027092616034     1.007825032230
         H           -0.302461608145     2.507911854661    -0.027081616034     1.007825032230
         H            3.159773391855    -0.000010145339     1.290182383966     1.007825032230
         H            3.833584791855     0.000003754661    -0.375847516034     1.007825032230
         H           -2.650651608145    -2.541606145339     0.026417383966     1.007825032230
         H           -3.411161608145    -1.231286145339     0.939488383966     1.007825032230
         H           -3.461899608145    -1.218721145339    -0.822597616034     1.007825032230
         H           -3.411149608145     1.231329854661     0.939499383966     1.007825032230
         H           -2.650654608145     2.541604854661     0.026350383966     1.007825032230
         H           -3.461911608145     1.218673854661    -0.822586616034     1.007825032230

  Basis Set: AUG-CC-PVTZ
    Blend: AUG-CC-PVTZ
  Basis Set: (AUG-CC-PVTZ AUX)
    Blend: AUG-CC-PVTZ-JKFIT
	 Reference Energy          =    -496.5144638999470885 [Eh]
	 Singles Energy            =      -0.0000000000000000 [Eh]
	 Same-Spin Energy          =      -0.5240068342936841 [Eh]
	 Opposite-Spin Energy      =      -1.6320791340745548 [Eh]
	 Correlation Energy        =      -2.1560859683682390 [Eh]
	 Total Energy              =    -498.6705498683153337 [Eh]

	 ================> DF-SCS-MP2 Energies <==================
	-----------------------------------------------------------
	 SCS Same-Spin Scale       =       0.3333333333333333 [-]
	 SCS Opposite-Spin Scale   =       1.2000000000000000 [-]
	 SCS Same-Spin Energy      =      -0.1746689447645614 [Eh]
	 SCS Opposite-Spin Energy  =      -1.9584949608894657 [Eh]
	 SCS Correlation Energy    =      -2.1331639056540270 [Eh]
	 SCS Total Energy          =    -498.6476278056011324 [Eh]
	-----------------------------------------------------------

  Dipole Moment: [D]
     X:    -0.5592      Y:    -0.0000      Z:     0.5635     Total:     0.7939

*** Psi4 exiting successfully. Buy a developer a beer!
