                               Psi4 1.4a3.dev225

  ==> Input File <==

--------------------------------------------------------------------------
#psi4
#
memory 32 gb

molecule  {
0 1
  O        2.2381840    -1.1587810    -0.1175950
  O        2.2381840     1.1587830    -0.1175780
  C       -1.4506090    -0.7058110    -0.0005310
  C       -1.4506100     0.7058110    -0.0005190
  C        0.9370840    -0.6945160    -0.0405820
  C        0.9370830     0.6945180    -0.0405590
  C       -0.2384000    -1.4209720    -0.0261700
  C       -0.2384020     1.4209720    -0.0261890
  C        3.0186620    -0.0000010     0.2058680
  C       -2.7532520    -1.4635880     0.0322900
  C       -2.7532530     1.4635870     0.0322790
  H       -0.2243070    -2.5079120    -0.0340590
  H       -0.2249563     2.4579175    -0.0336865
  H        3.2379270    -0.0000100     1.2832160
  H        3.9284370     0.0000040    -0.3938210
  H       -2.5724980    -2.5416060     0.0194510
  H       -3.3330080    -1.2312860     0.9325220
  H       -3.3837460    -1.2187210    -0.8295640
  H       -3.3329960     1.2313300     0.9325330
  H       -2.5725010     2.5416050     0.0193840
  H       -3.3837580     1.2186740    -0.8295530
units angstrom
no_reorient  #important for SAPT in psi4, default
symmetry c1  #important for SAPT in psi4, default
}

set PROPERTIES_ORIGIN ["COM"]
properties('MP2/aug-cc-pvtz', properties = ['dipole'])
--------------------------------------------------------------------------

    Molecular point group: c1
  Charge       = 0
  Multiplicity = 1
  Basis Set: AUG-CC-PVTZ
    Blend: AUG-CC-PVTZ
  Basis Set: (AUG-CC-PVTZ AUX)
    Blend: AUG-CC-PVTZ-JKFIT

    Orbital Energies [Eh]
    ---------------------

    Doubly Occupied:

       1A    -20.596046     2A    -20.595923     3A    -11.352263
       4A    -11.291771     5A    -11.290497     6A    -11.241945
       7A    -11.240828     8A    -11.238156     9A    -11.232564
      10A    -11.225391    11A    -11.225154    12A     -1.467083
      13A     -1.364585    14A     -1.158578    15A     -1.053092
      16A     -1.039543    17A     -0.952899    18A     -0.943001
      19A     -0.882527    20A     -0.839760    21A     -0.795612
      22A     -0.717315    23A     -0.713050    24A     -0.675815
      25A     -0.650156    26A     -0.620790    27A     -0.611347
      28A     -0.595275    29A     -0.574100    30A     -0.565800
      31A     -0.551477    32A     -0.541346    33A     -0.535173
      34A     -0.533479    35A     -0.530355    36A     -0.500579
      37A     -0.492674    38A     -0.441528    39A     -0.334242
      40A     -0.292981

  @DF-RHF Final Energy:  -496.51360323192762

   => Energetics <=

    Nuclear Repulsion Energy =            601.5675689565875928
    One-Electron Energy =               -1869.1529389303907465
    Two-Electron Energy =                 771.0717667418755354
    Total Energy =                       -496.5136032319276183
  Basis Set: (AUG-CC-PVTZ AUX)
    Blend: AUG-CC-PVTZ-RI
    Molecular point group: c1

    Geometry (in Angstrom), charge = 0, multiplicity = 1:

       Center              X                  Y                   Z               Mass
    ------------   -----------------  -----------------  -----------------  -----------------
         O            2.159922601483    -1.158445393673    -0.110557122468    15.994914619570
         O            2.159922601483     1.159118606327    -0.110540122468    15.994914619570
         C           -1.528870398517    -0.705475393673     0.006506877532    12.000000000000
         C           -1.528871398517     0.706146606327     0.006518877532    12.000000000000
         C            0.858822601483    -0.694180393673    -0.033544122468    12.000000000000
         C            0.858821601483     0.694853606327    -0.033521122468    12.000000000000
         C           -0.316661398517    -1.420636393673    -0.019132122468    12.000000000000
         C           -0.316663398517     1.421307606327    -0.019151122468    12.000000000000
         C            2.940400601483     0.000334606327     0.212905877532    12.000000000000
         C           -2.831513398517    -1.463252393673     0.039327877532    12.000000000000
         C           -2.831514398517     1.463922606327     0.039316877532    12.000000000000
         H           -0.302568398517    -2.507576393673    -0.027021122468     1.007825032230
         H           -0.303217698517     2.458253106327    -0.026648622468     1.007825032230
         H            3.159665601483     0.000325606327     1.290253877532     1.007825032230
         H            3.850175601483     0.000339606327    -0.386783122468     1.007825032230
         H           -2.650759398517    -2.541270393673     0.026488877532     1.007825032230
         H           -3.411269398517    -1.230950393673     0.939559877532     1.007825032230
         H           -3.462007398517    -1.218385393673    -0.822526122468     1.007825032230
         H           -3.411257398517     1.231665606327     0.939570877532     1.007825032230
         H           -2.650762398517     2.541940606327     0.026421877532     1.007825032230
         H           -3.462019398517     1.219009606327    -0.822515122468     1.007825032230

  Basis Set: AUG-CC-PVTZ
    Blend: AUG-CC-PVTZ
  Basis Set: (AUG-CC-PVTZ AUX)
    Blend: AUG-CC-PVTZ-JKFIT
	 Reference Energy          =    -496.5136032319276183 [Eh]
	 Singles Energy            =      -0.0000000000000000 [Eh]
	 Same-Spin Energy          =      -0.5239256880896186 [Eh]
	 Opposite-Spin Energy      =      -1.6319087264069896 [Eh]
	 Correlation Energy        =      -2.1558344144966082 [Eh]
	 Total Energy              =    -498.6694376464242282 [Eh]

	 ================> DF-SCS-MP2 Energies <==================
	-----------------------------------------------------------
	 SCS Same-Spin Scale       =       0.3333333333333333 [-]
	 SCS Opposite-Spin Scale   =       1.2000000000000000 [-]
	 SCS Same-Spin Energy      =      -0.1746418960298728 [Eh]
	 SCS Opposite-Spin Energy  =      -1.9582904716883873 [Eh]
	 SCS Correlation Energy    =      -2.1329323677182601 [Eh]
	 SCS Total Energy          =    -498.6465355996458584 [Eh]
	-----------------------------------------------------------

  Dipole Moment: [D]
     X:    -0.5705      Y:     0.0091      Z:     0.5638     Total:     0.8022

*** Psi4 exiting successfully. Buy a developer a beer!
