                               Psi4 1.4a3.dev225

  ==> Input File <==

--------------------------------------------------------------------------
#psi4
#
memory 32 gb

molecule  {
0 1
  O        2.2381840    -1.1587810    -0.1175950
  O        2.2381840     1.1587830    -0.1175780
  C       -1.4506090    -0.7058110    -0.0005310
  C       -1.4506100     0.7058110    -0.0005190
  C        0.9370840    -0.6945160    -0.0405820
  C        0.9370830     0.6945180    -0.0405590
  C       -0.2384000    -1.4209720    -0.0261700
  C       -0.2384020     1.4209720    -0.0261890
  C        3.1275103     0.1616066     0.2509793
  C       -2.7532520    -1.4635880     0.0322900
  C       -2.7532530     1.4635870     0.0322790
  H       -0.2243070    -2.5079120    -0.0340590
  H       -0.2243080     2.5079120    -0.0340480
  H        3.2379270    -0.0000100     1.2832160
  H        3.9284370     0.0000040    -0.3938210
  H       -2.5724980    -2.5416060     0.0194510
  H       -3.3330080    -1.2312860     0.9325220
  H       -3.3837460    -1.2187210    -0.8295640
  H       -3.3329960     1.2313300     0.9325330
  H       -2.5725010     2.5416050     0.0193840
  H       -3.3837580     1.2186740    -0.8295530
units angstrom
no_reorient  #important for SAPT in psi4, default
symmetry c1  #important for SAPT in psi4, default
}

set PROPERTIES_ORIGIN ["COM"]
properties('MP2/aug-cc-pvtz', properties = ['dipole'])
--------------------------------------------------------------------------

    Molecular point group: c1
  Charge       = 0
  Multiplicity = 1
  Basis Set: AUG-CC-PVTZ
    Blend: AUG-CC-PVTZ
  Basis Set: (AUG-CC-PVTZ AUX)
    Blend: AUG-CC-PVTZ-JKFIT

    Orbital Energies [Eh]
    ---------------------

    Doubly Occupied:

       1A    -20.604746     2A    -20.570562     3A    -11.364460
       4A    -11.289755     5A    -11.284302     6A    -11.239665
       7A    -11.238531     8A    -11.236023     9A    -11.230714
      10A    -11.222833    11A    -11.222659    12A     -1.456336
      13A     -1.333136    14A     -1.154055    15A     -1.052191
      16A     -1.033268    17A     -0.955973    18A     -0.945292
      19A     -0.884536    20A     -0.831537    21A     -0.788277
      22A     -0.727307    23A     -0.705540    24A     -0.681638
      25A     -0.644474    26A     -0.616787    27A     -0.604744
      28A     -0.594041    29A     -0.563726    30A     -0.553490
      31A     -0.549588    32A     -0.546763    33A     -0.537872
      34A     -0.531736    35A     -0.505319    36A     -0.490939
      37A     -0.481742    38A     -0.443053    39A     -0.330783
      40A     -0.288142

  @DF-RHF Final Energy:  -496.48678965400484

   => Energetics <=

    Nuclear Repulsion Energy =            598.4617070809147208
    One-Electron Energy =               -1863.2239220572714657
    Two-Electron Energy =                 768.2754253223519072
    Total Energy =                       -496.4867896540048378
  Basis Set: (AUG-CC-PVTZ AUX)
    Blend: AUG-CC-PVTZ-RI
    Molecular point group: c1

    Geometry (in Angstrom), charge = 0, multiplicity = 1:

       Center              X                  Y                   Z               Mass
    ------------   -----------------  -----------------  -----------------  -----------------
         O            2.151214334030    -1.171703888846    -0.114161961504    15.994914619570
         O            2.151214334030     1.145860111154    -0.114144961504    15.994914619570
         C           -1.537578665970    -0.718733888846     0.002902038496    12.000000000000
         C           -1.537579665970     0.692888111154     0.002914038496    12.000000000000
         C            0.850114334030    -0.707438888846    -0.037148961504    12.000000000000
         C            0.850113334030     0.681595111154    -0.037125961504    12.000000000000
         C           -0.325369665970    -1.433894888846    -0.022736961504    12.000000000000
         C           -0.325371665970     1.408049111154    -0.022755961504    12.000000000000
         C            3.040540634030     0.148683711154     0.254412338496    12.000000000000
         C           -2.840221665970    -1.476510888846     0.035723038496    12.000000000000
         C           -2.840222665970     1.450664111154     0.035712038496    12.000000000000
         H           -0.311276665970    -2.520834888846    -0.030625961504     1.007825032230
         H           -0.311277665970     2.494989111154    -0.030614961504     1.007825032230
         H            3.150957334030    -0.012932888846     1.286649038496     1.007825032230
         H            3.841467334030    -0.012918888846    -0.390387961504     1.007825032230
         H           -2.659467665970    -2.554528888846     0.022884038496     1.007825032230
         H           -3.419977665970    -1.244208888846     0.935955038496     1.007825032230
         H           -3.470715665970    -1.231643888846    -0.826130961504     1.007825032230
         H           -3.419965665970     1.218407111154     0.935966038496     1.007825032230
         H           -2.659470665970     2.528682111154     0.022817038496     1.007825032230
         H           -3.470727665970     1.205751111154    -0.826119961504     1.007825032230

  Basis Set: AUG-CC-PVTZ
    Blend: AUG-CC-PVTZ
  Basis Set: (AUG-CC-PVTZ AUX)
    Blend: AUG-CC-PVTZ-JKFIT
	 Reference Energy          =    -496.4867896540048378 [Eh]
	 Singles Energy            =      -0.0000000000000000 [Eh]
	 Same-Spin Energy          =      -0.5251525930097214 [Eh]
	 Opposite-Spin Energy      =      -1.6355246378258248 [Eh]
	 Correlation Energy        =      -2.1606772308355460 [Eh]
	 Total Energy              =    -498.6474668848403553 [Eh]

	 ================> DF-SCS-MP2 Energies <==================
	-----------------------------------------------------------
	 SCS Same-Spin Scale       =       0.3333333333333333 [-]
	 SCS Opposite-Spin Scale   =       1.2000000000000000 [-]
	 SCS Same-Spin Energy      =      -0.1750508643365738 [Eh]
	 SCS Opposite-Spin Energy  =      -1.9626295653909898 [Eh]
	 SCS Correlation Energy    =      -2.1376804297275633 [Eh]
	 SCS Total Energy          =    -498.6244700837323762 [Eh]
	-----------------------------------------------------------

  Dipole Moment: [D]
     X:    -0.0379      Y:     0.5041      Z:     0.7606     Total:     0.9133

*** Psi4 exiting successfully. Buy a developer a beer!
