                               Psi4 1.4a3.dev225

  ==> Input File <==

--------------------------------------------------------------------------
#psi4
#
memory 32 gb

molecule  {
0 1
  O        2.2381840    -1.1587810    -0.1175950
  O        2.2381840     1.1587830    -0.1175780
  C       -1.4506090    -0.7058110    -0.0005310
  C       -1.4506100     0.7058110    -0.0005190
  C        0.9370840    -0.6945160    -0.0405820
  C        0.9370830     0.6945180    -0.0405590
  C       -0.2384000    -1.4209720    -0.0261700
  C       -0.1914876     1.3346523    -0.0275718
  C        3.0186620    -0.0000010     0.2058680
  C       -2.7532520    -1.4635880     0.0322900
  C       -2.7532530     1.4635870     0.0322790
  H       -0.2243070    -2.5079120    -0.0340590
  H       -0.2243080     2.5079120    -0.0340480
  H        3.2379270    -0.0000100     1.2832160
  H        3.9284370     0.0000040    -0.3938210
  H       -2.5724980    -2.5416060     0.0194510
  H       -3.3330080    -1.2312860     0.9325220
  H       -3.3837460    -1.2187210    -0.8295640
  H       -3.3329960     1.2313300     0.9325330
  H       -2.5725010     2.5416050     0.0193840
  H       -3.3837580     1.2186740    -0.8295530
units angstrom
no_reorient  #important for SAPT in psi4, default
symmetry c1  #important for SAPT in psi4, default
}

set PROPERTIES_ORIGIN ["COM"]
properties('MP2/aug-cc-pvtz', properties = ['dipole'])
--------------------------------------------------------------------------

    Molecular point group: c1
  Charge       = 0
  Multiplicity = 1
  Basis Set: AUG-CC-PVTZ
    Blend: AUG-CC-PVTZ
  Basis Set: (AUG-CC-PVTZ AUX)
    Blend: AUG-CC-PVTZ-JKFIT

    Orbital Energies [Eh]
    ---------------------

    Doubly Occupied:

       1A    -20.597493     2A    -20.596525     3A    -11.353054
       4A    -11.293567     5A    -11.281649     6A    -11.241910
       7A    -11.239715     8A    -11.235579     9A    -11.234826
      10A    -11.227471    11A    -11.224848    12A     -1.468216
      13A     -1.365618    14A     -1.166440    15A     -1.060031
      16A     -1.037449    17A     -0.957428    18A     -0.944397
      19A     -0.884388    20A     -0.835298    21A     -0.797369
      22A     -0.717666    23A     -0.713744    24A     -0.677405
      25A     -0.648075    26A     -0.615031    27A     -0.597265
      28A     -0.596290    29A     -0.575064    30A     -0.567539
      31A     -0.551875    32A     -0.540763    33A     -0.536380
      34A     -0.535133    35A     -0.535003    36A     -0.506697
      37A     -0.475604    38A     -0.444519    39A     -0.340317
      40A     -0.294985

  @DF-RHF Final Energy:  -496.50215172862448

   => Energetics <=

    Nuclear Repulsion Energy =            603.1036444455585297
    One-Electron Energy =               -1872.1863390798173441
    Two-Electron Energy =                 772.5805429056342746
    Total Energy =                       -496.5021517286245398
  Basis Set: (AUG-CC-PVTZ AUX)
    Blend: AUG-CC-PVTZ-RI
    Molecular point group: c1

    Geometry (in Angstrom), charge = 0, multiplicity = 1:

       Center              X                  Y                   Z               Mass
    ------------   -----------------  -----------------  -----------------  -----------------
         O            2.156166798286    -1.151878702780    -0.110444120897    15.994914619570
         O            2.156166798286     1.165685297220    -0.110427120897    15.994914619570
         C           -1.532626201714    -0.698908702780     0.006619879103    12.000000000000
         C           -1.532627201714     0.712713297220     0.006631879103    12.000000000000
         C            0.855066798286    -0.687613702780    -0.033431120897    12.000000000000
         C            0.855065798286     0.701420297220    -0.033408120897    12.000000000000
         C           -0.320417201714    -1.414069702780    -0.019019120897    12.000000000000
         C           -0.273504801714     1.341554597220    -0.020420920897    12.000000000000
         C            2.936644798286     0.006901297220     0.213018879103    12.000000000000
         C           -2.835269201714    -1.456685702780     0.039440879103    12.000000000000
         C           -2.835270201714     1.470489297220     0.039429879103    12.000000000000
         H           -0.306324201714    -2.501009702780    -0.026908120897     1.007825032230
         H           -0.306325201714     2.514814297220    -0.026897120897     1.007825032230
         H            3.155909798286     0.006892297220     1.290366879103     1.007825032230
         H            3.846419798286     0.006906297220    -0.386670120897     1.007825032230
         H           -2.654515201714    -2.534703702780     0.026601879103     1.007825032230
         H           -3.415025201714    -1.224383702780     0.939672879103     1.007825032230
         H           -3.465763201714    -1.211818702780    -0.822413120897     1.007825032230
         H           -3.415013201714     1.238232297220     0.939683879103     1.007825032230
         H           -2.654518201714     2.548507297220     0.026534879103     1.007825032230
         H           -3.465775201714     1.225576297220    -0.822402120897     1.007825032230

  Basis Set: AUG-CC-PVTZ
    Blend: AUG-CC-PVTZ
  Basis Set: (AUG-CC-PVTZ AUX)
    Blend: AUG-CC-PVTZ-JKFIT
	 Reference Energy          =    -496.5021517286244830 [Eh]
	 Singles Energy            =      -0.0000000000000000 [Eh]
	 Same-Spin Energy          =      -0.5240195295577073 [Eh]
	 Opposite-Spin Energy      =      -1.6320927599868460 [Eh]
	 Correlation Energy        =      -2.1561122895445530 [Eh]
	 Total Energy              =    -498.6582640181690635 [Eh]

	 ================> DF-SCS-MP2 Energies <==================
	-----------------------------------------------------------
	 SCS Same-Spin Scale       =       0.3333333333333333 [-]
	 SCS Opposite-Spin Scale   =       1.2000000000000000 [-]
	 SCS Same-Spin Energy      =      -0.1746731765192358 [Eh]
	 SCS Opposite-Spin Energy  =      -1.9585113119842150 [Eh]
	 SCS Correlation Energy    =      -2.1331844885034505 [Eh]
	 SCS Total Energy          =    -498.6353362171279286 [Eh]
	-----------------------------------------------------------

  Dipole Moment: [D]
     X:    -0.6116      Y:    -0.0457      Z:     0.5760     Total:     0.8414

*** Psi4 exiting successfully. Buy a developer a beer!
