                               Psi4 1.4a3.dev225

  ==> Input File <==

--------------------------------------------------------------------------
#psi4
#
memory 32 gb

molecule  {
0 1
  O        2.2381840    -1.1587810    -0.1175950
  O        2.2381840     1.1587830    -0.1175780
  C       -1.4506090    -0.7058110    -0.0005310
  C       -1.4506100     0.7058110    -0.0005190
  C        0.9370840    -0.6945160    -0.0405820
  C        0.9370830     0.6945180    -0.0405590
  C       -0.2384000    -1.4209720    -0.0261700
  C       -0.2384020     1.4209720    -0.0261890
  C        3.0186620    -0.0000010     0.2058680
  C       -2.7532520    -1.4635880     0.0322900
  C       -2.7532530     1.4635870     0.0322790
  H       -0.2243070    -2.5079120    -0.0340590
  H       -0.2243080     2.5079120    -0.0340480
  H        3.2379270    -0.0000100     1.2832160
  H        3.9284370     0.0000040    -0.3938210
  H       -2.5724980    -2.5416060     0.0194510
  H       -3.3900818    -1.2089840     0.8867627
  H       -3.3837460    -1.2187210    -0.8295640
  H       -3.3329960     1.2313300     0.9325330
  H       -2.5725010     2.5416050     0.0193840
  H       -3.3837580     1.2186740    -0.8295530
units angstrom
no_reorient  #important for SAPT in psi4, default
symmetry c1  #important for SAPT in psi4, default
}

set PROPERTIES_ORIGIN ["COM"]
properties('MP2/aug-cc-pvtz', properties = ['dipole'])
--------------------------------------------------------------------------

    Molecular point group: c1
  Charge       = 0
  Multiplicity = 1
  Basis Set: AUG-CC-PVTZ
    Blend: AUG-CC-PVTZ
  Basis Set: (AUG-CC-PVTZ AUX)
    Blend: AUG-CC-PVTZ-JKFIT

    Orbital Energies [Eh]
    ---------------------

    Doubly Occupied:

       1A    -20.596220     2A    -20.596196     3A    -11.352418
       4A    -11.292300     5A    -11.291028     6A    -11.242718
       7A    -11.241565     8A    -11.238595     9A    -11.238396
      10A    -11.225510    11A    -11.225306    12A     -1.467306
      13A     -1.364788    14A     -1.158629    15A     -1.053310
      16A     -1.038375    17A     -0.952421    18A     -0.943195
      19A     -0.882802    20A     -0.837215    21A     -0.796061
      22A     -0.716459    23A     -0.712945    24A     -0.675661
      25A     -0.648346    26A     -0.615283    27A     -0.612221
      28A     -0.592625    29A     -0.574215    30A     -0.567209
      31A     -0.547425    32A     -0.541865    33A     -0.535818
      34A     -0.534280    35A     -0.530306    36A     -0.502571
      37A     -0.491468    38A     -0.441461    39A     -0.334453
      40A     -0.293232

  @DF-RHF Final Energy:  -496.51376453808308

   => Energetics <=

    Nuclear Repulsion Energy =            601.2392894436499091
    One-Electron Energy =               -1868.5017115481123255
    Two-Electron Energy =                 770.7486575663795065
    Total Energy =                       -496.5137645380830236
  Basis Set: (AUG-CC-PVTZ AUX)
    Blend: AUG-CC-PVTZ-RI
    Molecular point group: c1

    Geometry (in Angstrom), charge = 0, multiplicity = 1:

       Center              X                  Y                   Z               Mass
    ------------   -----------------  -----------------  -----------------  -----------------
         O            2.160301543038    -1.158930921459    -0.110247385068    15.994914619570
         O            2.160301543038     1.158633078541    -0.110230385068    15.994914619570
         C           -1.528491456962    -0.705960921459     0.006816614932    12.000000000000
         C           -1.528492456962     0.705661078541     0.006828614932    12.000000000000
         C            0.859201543038    -0.694665921459    -0.033234385068    12.000000000000
         C            0.859200543038     0.694368078541    -0.033211385068    12.000000000000
         C           -0.316282456962    -1.421121921459    -0.018822385068    12.000000000000
         C           -0.316284456962     1.420822078541    -0.018841385068    12.000000000000
         C            2.940779543038    -0.000150921459     0.213215614932    12.000000000000
         C           -2.831134456962    -1.463737921459     0.039637614932    12.000000000000
         C           -2.831135456962     1.463437078541     0.039626614932    12.000000000000
         H           -0.302189456962    -2.508061921459    -0.026711385068     1.007825032230
         H           -0.302190456962     2.507762078541    -0.026700385068     1.007825032230
         H            3.160044543038    -0.000159921459     1.290563614932     1.007825032230
         H            3.850554543038    -0.000145921459    -0.386473385068     1.007825032230
         H           -2.650380456962    -2.541755921459     0.026798614932     1.007825032230
         H           -3.467964256962    -1.209133921459     0.894110314932     1.007825032230
         H           -3.461628456962    -1.218870921459    -0.822216385068     1.007825032230
         H           -3.410878456962     1.231180078541     0.939880614932     1.007825032230
         H           -2.650383456962     2.541455078541     0.026731614932     1.007825032230
         H           -3.461640456962     1.218524078541    -0.822205385068     1.007825032230

  Basis Set: AUG-CC-PVTZ
    Blend: AUG-CC-PVTZ
  Basis Set: (AUG-CC-PVTZ AUX)
    Blend: AUG-CC-PVTZ-JKFIT
	 Reference Energy          =    -496.5137645380830804 [Eh]
	 Singles Energy            =      -0.0000000000000000 [Eh]
	 Same-Spin Energy          =      -0.5240911119722704 [Eh]
	 Opposite-Spin Energy      =      -1.6322390097729211 [Eh]
	 Correlation Energy        =      -2.1563301217451913 [Eh]
	 Total Energy              =    -498.6700946598282940 [Eh]

	 ================> DF-SCS-MP2 Energies <==================
	-----------------------------------------------------------
	 SCS Same-Spin Scale       =       0.3333333333333333 [-]
	 SCS Opposite-Spin Scale   =       1.2000000000000000 [-]
	 SCS Same-Spin Energy      =      -0.1746970373240901 [Eh]
	 SCS Opposite-Spin Energy  =      -1.9586868117275054 [Eh]
	 SCS Correlation Energy    =      -2.1333838490515955 [Eh]
	 SCS Total Energy          =    -498.6471483871346777 [Eh]
	-----------------------------------------------------------

  Dipole Moment: [D]
     X:    -0.5785      Y:     0.0179      Z:     0.5522     Total:     0.7999

*** Psi4 exiting successfully. Buy a developer a beer!
