                               Psi4 1.4a3.dev225

  ==> Input File <==

--------------------------------------------------------------------------
#psi4
#
memory 32 gb

molecule  {
0 1
  O        2.2381840    -1.1587810    -0.1175950
  O        2.2381840     1.1587830    -0.1175780
  C       -1.4506090    -0.7058110    -0.0005310
  C       -1.4506100     0.7058110    -0.0005190
  C        0.9370840    -0.6945160    -0.0405820
  C        0.9370830     0.6945180    -0.0405590
  C       -0.2384000    -1.4209720    -0.0261700
  C       -0.2384020     1.4209720    -0.0261890
  C        2.9642379    -0.0808048     0.1833123
  C       -2.7532520    -1.4635880     0.0322900
  C       -2.7532530     1.4635870     0.0322790
  H       -0.2243070    -2.5079120    -0.0340590
  H       -0.2243080     2.5079120    -0.0340480
  H        3.2379270    -0.0000100     1.2832160
  H        3.9284370     0.0000040    -0.3938210
  H       -2.5724980    -2.5416060     0.0194510
  H       -3.3330080    -1.2312860     0.9325220
  H       -3.3837460    -1.2187210    -0.8295640
  H       -3.3329960     1.2313300     0.9325330
  H       -2.5725010     2.5416050     0.0193840
  H       -3.3837580     1.2186740    -0.8295530
units angstrom
no_reorient  #important for SAPT in psi4, default
symmetry c1  #important for SAPT in psi4, default
}

set PROPERTIES_ORIGIN ["COM"]
properties('MP2/aug-cc-pvtz', properties = ['dipole'])
--------------------------------------------------------------------------

    Molecular point group: c1
  Charge       = 0
  Multiplicity = 1
  Basis Set: AUG-CC-PVTZ
    Blend: AUG-CC-PVTZ
  Basis Set: (AUG-CC-PVTZ AUX)
    Blend: AUG-CC-PVTZ-JKFIT

    Orbital Energies [Eh]
    ---------------------

    Doubly Occupied:

       1A    -20.606805     2A    -20.591533     3A    -11.352215
       4A    -11.295693     5A    -11.292957     6A    -11.245002
       7A    -11.243281     8A    -11.242169     9A    -11.238526
      10A    -11.226871    11A    -11.226738    12A     -1.490299
      13A     -1.373661    14A     -1.161178    15A     -1.056244
      16A     -1.040391    17A     -0.955719    18A     -0.939592
      19A     -0.881231    20A     -0.840243    21A     -0.802862
      22A     -0.720768    23A     -0.716336    24A     -0.683357
      25A     -0.646672    26A     -0.621415    27A     -0.611556
      28A     -0.596769    29A     -0.578294    30A     -0.565883
      31A     -0.553166    32A     -0.545873    33A     -0.541258
      34A     -0.531055    35A     -0.517139    36A     -0.502866
      37A     -0.493712    38A     -0.436112    39A     -0.336683
      40A     -0.295441

  @DF-RHF Final Energy:  -496.50511144247866

   => Energetics <=

    Nuclear Repulsion Energy =            602.7929854621785353
    One-Electron Energy =               -1871.4010695479153128
    Two-Electron Energy =                 772.1029726432579992
    Total Energy =                       -496.5051114424786647
  Basis Set: (AUG-CC-PVTZ AUX)
    Blend: AUG-CC-PVTZ-RI
    Molecular point group: c1

    Geometry (in Angstrom), charge = 0, multiplicity = 1:

       Center              X                  Y                   Z               Mass
    ------------   -----------------  -----------------  -----------------  -----------------
         O            2.164270200446    -1.152319774593    -0.108751057317    15.994914619570
         O            2.164270200446     1.165244225407    -0.108734057317    15.994914619570
         C           -1.524522799554    -0.699349774593     0.008312942683    12.000000000000
         C           -1.524523799554     0.712272225407     0.008324942683    12.000000000000
         C            0.863170200446    -0.688054774593    -0.031738057317    12.000000000000
         C            0.863169200446     0.700979225407    -0.031715057317    12.000000000000
         C           -0.312313799554    -1.414510774593    -0.017326057317    12.000000000000
         C           -0.312315799554     1.427433225407    -0.017345057317    12.000000000000
         C            2.890324100446    -0.074343574593     0.192156242683    12.000000000000
         C           -2.827165799554    -1.457126774593     0.041133942683    12.000000000000
         C           -2.827166799554     1.470048225407     0.041122942683    12.000000000000
         H           -0.298220799554    -2.501450774593    -0.025215057317     1.007825032230
         H           -0.298221799554     2.514373225407    -0.025204057317     1.007825032230
         H            3.164013200446     0.006451225407     1.292059942683     1.007825032230
         H            3.854523200446     0.006465225407    -0.384977057317     1.007825032230
         H           -2.646411799554    -2.535144774593     0.028294942683     1.007825032230
         H           -3.406921799554    -1.224824774593     0.941365942683     1.007825032230
         H           -3.457659799554    -1.212259774593    -0.820720057317     1.007825032230
         H           -3.406909799554     1.237791225407     0.941376942683     1.007825032230
         H           -2.646414799554     2.548066225407     0.028227942683     1.007825032230
         H           -3.457671799554     1.225135225407    -0.820709057317     1.007825032230

  Basis Set: AUG-CC-PVTZ
    Blend: AUG-CC-PVTZ
  Basis Set: (AUG-CC-PVTZ AUX)
    Blend: AUG-CC-PVTZ-JKFIT
	 Reference Energy          =    -496.5051114424786647 [Eh]
	 Singles Energy            =      -0.0000000000000000 [Eh]
	 Same-Spin Energy          =      -0.5245747679597645 [Eh]
	 Opposite-Spin Energy      =      -1.6323040453563222 [Eh]
	 Correlation Energy        =      -2.1568788133160868 [Eh]
	 Total Energy              =    -498.6619902557947626 [Eh]

	 ================> DF-SCS-MP2 Energies <==================
	-----------------------------------------------------------
	 SCS Same-Spin Scale       =       0.3333333333333333 [-]
	 SCS Opposite-Spin Scale   =       1.2000000000000000 [-]
	 SCS Same-Spin Energy      =      -0.1748582559865882 [Eh]
	 SCS Opposite-Spin Energy  =      -1.9587648544275866 [Eh]
	 SCS Correlation Energy    =      -2.1336231104141747 [Eh]
	 SCS Total Energy          =    -498.6387345528928563 [Eh]
	-----------------------------------------------------------

  Dipole Moment: [D]
     X:    -0.9443      Y:    -0.2697      Z:     0.4367     Total:     1.0748

*** Psi4 exiting successfully. Buy a developer a beer!
