                               Psi4 1.4a3.dev225

  ==> Input File <==

--------------------------------------------------------------------------
#psi4
#
memory 32 gb

molecule  {
0 1
  O        2.2381840    -1.1587810    -0.1175950
  O        2.2381840     1.1587830    -0.1175780
  C       -1.4506090    -0.7058110    -0.0005310
  C       -1.4506100     0.7058110    -0.0005190
  C        0.9370840    -0.6945160    -0.0405820
  C        0.9370830     0.6945180    -0.0405590
  C       -0.2384000    -1.4209720    -0.0261700
  C       -0.2384020     1.4209720    -0.0261890
  C        3.0186620    -0.0000010     0.2058680
  C       -2.7532520    -1.4635880     0.0322900
  C       -2.7532530     1.4635870     0.0322790
  H       -0.2243070    -2.5079120    -0.0340590
  H       -0.2243080     2.5079120    -0.0340480
  H        3.2379270    -0.0000100     1.2832160
  H        3.9284370     0.0000040    -0.3938210
  H       -2.5724980    -2.5416060     0.0194510
  H       -3.3330080    -1.2312860     0.9325220
  H       -3.3837460    -1.2187210    -0.8295640
  H       -3.3619040     1.2200294     0.9101891
  H       -2.5725010     2.5416050     0.0193840
  H       -3.3837580     1.2186740    -0.8295530
units angstrom
no_reorient  #important for SAPT in psi4, default
symmetry c1  #important for SAPT in psi4, default
}

set PROPERTIES_ORIGIN ["COM"]
properties('MP2/aug-cc-pvtz', properties = ['dipole'])
--------------------------------------------------------------------------

    Molecular point group: c1
  Charge       = 0
  Multiplicity = 1
  Basis Set: AUG-CC-PVTZ
    Blend: AUG-CC-PVTZ
  Basis Set: (AUG-CC-PVTZ AUX)
    Blend: AUG-CC-PVTZ-JKFIT

    Orbital Energies [Eh]
    ---------------------

    Doubly Occupied:

       1A    -20.596162     2A    -20.596139     3A    -11.352374
       4A    -11.292215     5A    -11.290943     6A    -11.242506
       7A    -11.241394     8A    -11.238440     9A    -11.238336
      10A    -11.225411    11A    -11.225302    12A     -1.467249
      13A     -1.364732    14A     -1.158562    15A     -1.053280
      16A     -1.038346    17A     -0.952377    18A     -0.943066
      19A     -0.882643    20A     -0.837105    21A     -0.795823
      22A     -0.716311    23A     -0.712836    24A     -0.675336
      25A     -0.648270    26A     -0.615172    27A     -0.611731
      28A     -0.593917    29A     -0.574153    30A     -0.566535
      31A     -0.549494    32A     -0.541405    33A     -0.535381
      34A     -0.533910    35A     -0.530448    36A     -0.501729
      37A     -0.491381    38A     -0.441596    39A     -0.334423
      40A     -0.293234

  @DF-RHF Final Energy:  -496.51419271759590

   => Energetics <=

    Nuclear Repulsion Energy =            601.2616183711785425
    One-Electron Energy =               -1868.5522908906464181
    Two-Electron Energy =                 770.7764798018721422
    Total Energy =                       -496.5141927175958472
  Basis Set: (AUG-CC-PVTZ AUX)
    Blend: AUG-CC-PVTZ-RI
    Molecular point group: c1

    Geometry (in Angstrom), charge = 0, multiplicity = 1:

       Center              X                  Y                   Z               Mass
    ------------   -----------------  -----------------  -----------------  -----------------
         O            2.160112387567    -1.158705253605    -0.110404637872    15.994914619570
         O            2.160112387567     1.158858746395    -0.110387637872    15.994914619570
         C           -1.528680612433    -0.705735253605     0.006659362128    12.000000000000
         C           -1.528681612433     0.705886746395     0.006671362128    12.000000000000
         C            0.859012387567    -0.694440253605    -0.033391637872    12.000000000000
         C            0.859011387567     0.694593746395    -0.033368637872    12.000000000000
         C           -0.316471612433    -1.420896253605    -0.018979637872    12.000000000000
         C           -0.316473612433     1.421047746395    -0.018998637872    12.000000000000
         C            2.940590387567     0.000074746395     0.213058362128    12.000000000000
         C           -2.831323612433    -1.463512253605     0.039480362128    12.000000000000
         C           -2.831324612433     1.463662746395     0.039469362128    12.000000000000
         H           -0.302378612433    -2.507836253605    -0.026868637872     1.007825032230
         H           -0.302379612433     2.507987746395    -0.026857637872     1.007825032230
         H            3.159855387567     0.000065746395     1.290406362128     1.007825032230
         H            3.850365387567     0.000079746395    -0.386630637872     1.007825032230
         H           -2.650569612433    -2.541530253605     0.026641362128     1.007825032230
         H           -3.411079612433    -1.231210253605     0.939712362128     1.007825032230
         H           -3.461817612433    -1.218645253605    -0.822373637872     1.007825032230
         H           -3.439975612433     1.220105146395     0.917379462128     1.007825032230
         H           -2.650572612433     2.541680746395     0.026574362128     1.007825032230
         H           -3.461829612433     1.218749746395    -0.822362637872     1.007825032230

  Basis Set: AUG-CC-PVTZ
    Blend: AUG-CC-PVTZ
  Basis Set: (AUG-CC-PVTZ AUX)
    Blend: AUG-CC-PVTZ-JKFIT
	 Reference Energy          =    -496.5141927175959040 [Eh]
	 Singles Energy            =      -0.0000000000000000 [Eh]
	 Same-Spin Energy          =      -0.5240606095228941 [Eh]
	 Opposite-Spin Energy      =      -1.6322292058338295 [Eh]
	 Correlation Energy        =      -2.1562898153567236 [Eh]
	 Total Energy              =    -498.6704825329526329 [Eh]

	 ================> DF-SCS-MP2 Energies <==================
	-----------------------------------------------------------
	 SCS Same-Spin Scale       =       0.3333333333333333 [-]
	 SCS Opposite-Spin Scale   =       1.2000000000000000 [-]
	 SCS Same-Spin Energy      =      -0.1746868698409647 [Eh]
	 SCS Opposite-Spin Energy  =      -1.9586750470005954 [Eh]
	 SCS Correlation Energy    =      -2.1333619168415598 [Eh]
	 SCS Total Energy          =    -498.6475546344374834 [Eh]
	-----------------------------------------------------------

  Dipole Moment: [D]
     X:    -0.5740      Y:    -0.0092      Z:     0.5584     Total:     0.8009

*** Psi4 exiting successfully. Buy a developer a beer!
