                               Psi4 1.4a3.dev225

  ==> Input File <==

--------------------------------------------------------------------------
#psi4
#
memory 32 gb

molecule  {
0 1
  O        2.2556756    -1.1656807    -0.1341141
  O        2.2381840     1.1587830    -0.1175780
  C       -1.4506090    -0.7058110    -0.0005310
  C       -1.4506100     0.7058110    -0.0005190
  C        0.9370840    -0.6945160    -0.0405820
  C        0.9370830     0.6945180    -0.0405590
  C       -0.2384000    -1.4209720    -0.0261700
  C       -0.2384020     1.4209720    -0.0261890
  C        3.0186620    -0.0000010     0.2058680
  C       -2.7532520    -1.4635880     0.0322900
  C       -2.7532530     1.4635870     0.0322790
  H       -0.2243070    -2.5079120    -0.0340590
  H       -0.2243080     2.5079120    -0.0340480
  H        3.2379270    -0.0000100     1.2832160
  H        3.9284370     0.0000040    -0.3938210
  H       -2.5724980    -2.5416060     0.0194510
  H       -3.3330080    -1.2312860     0.9325220
  H       -3.3837460    -1.2187210    -0.8295640
  H       -3.3329960     1.2313300     0.9325330
  H       -2.5725010     2.5416050     0.0193840
  H       -3.3837580     1.2186740    -0.8295530
units angstrom
no_reorient  #important for SAPT in psi4, default
symmetry c1  #important for SAPT in psi4, default
}

set PROPERTIES_ORIGIN ["COM"]
properties('MP2/aug-cc-pvtz', properties = ['dipole'])
--------------------------------------------------------------------------

    Molecular point group: c1
  Charge       = 0
  Multiplicity = 1
  Basis Set: AUG-CC-PVTZ
    Blend: AUG-CC-PVTZ
  Basis Set: (AUG-CC-PVTZ AUX)
    Blend: AUG-CC-PVTZ-JKFIT

    Orbital Energies [Eh]
    ---------------------

    Doubly Occupied:

       1A    -20.596089     2A    -20.595765     3A    -11.350890
       4A    -11.293388     5A    -11.291934     6A    -11.243541
       7A    -11.242149     8A    -11.239789     9A    -11.238922
      10A    -11.226126    11A    -11.225867    12A     -1.463269
      13A     -1.361202    14A     -1.159404    15A     -1.053526
      16A     -1.039183    17A     -0.953012    18A     -0.941565
      19A     -0.882540    20A     -0.837229    21A     -0.794289
      22A     -0.715269    23A     -0.711456    24A     -0.673636
      25A     -0.647350    26A     -0.615816    27A     -0.610072
      28A     -0.595982    29A     -0.573217    30A     -0.565593
      31A     -0.552172    32A     -0.541446    33A     -0.534595
      34A     -0.533118    35A     -0.528843    36A     -0.501434
      37A     -0.492138    38A     -0.442258    39A     -0.335406
      40A     -0.295120

  @DF-RHF Final Energy:  -496.51300350545699

   => Energetics <=

    Nuclear Repulsion Energy =            600.6838783577120466
    One-Electron Energy =               -1867.4045620153588061
    Two-Electron Energy =                 770.2076801521898233
    Total Energy =                       -496.5130035054569362
  Basis Set: (AUG-CC-PVTZ AUX)
    Blend: AUG-CC-PVTZ-RI
    Molecular point group: c1

    Geometry (in Angstrom), charge = 0, multiplicity = 1:

       Center              X                  Y                   Z               Mass
    ------------   -----------------  -----------------  -----------------  -----------------
         O            2.175545516135    -1.164945445700    -0.125313116526    15.994914619570
         O            2.158053916135     1.159518254300    -0.108777016526    15.994914619570
         C           -1.530739083865    -0.705075745700     0.008269983474    12.000000000000
         C           -1.530740083865     0.706546254300     0.008281983474    12.000000000000
         C            0.856953916135    -0.693780745700    -0.031781016526    12.000000000000
         C            0.856952916135     0.695253254300    -0.031758016526    12.000000000000
         C           -0.318530083865    -1.420236745700    -0.017369016526    12.000000000000
         C           -0.318532083865     1.421707254300    -0.017388016526    12.000000000000
         C            2.938531916135     0.000734254300     0.214668983474    12.000000000000
         C           -2.833382083865    -1.462852745700     0.041090983474    12.000000000000
         C           -2.833383083865     1.464322254300     0.041079983474    12.000000000000
         H           -0.304437083865    -2.507176745700    -0.025258016526     1.007825032230
         H           -0.304438083865     2.508647254300    -0.025247016526     1.007825032230
         H            3.157796916135     0.000725254300     1.292016983474     1.007825032230
         H            3.848306916135     0.000739254300    -0.385020016526     1.007825032230
         H           -2.652628083865    -2.540870745700     0.028251983474     1.007825032230
         H           -3.413138083865    -1.230550745700     0.941322983474     1.007825032230
         H           -3.463876083865    -1.217985745700    -0.820763016526     1.007825032230
         H           -3.413126083865     1.232065254300     0.941333983474     1.007825032230
         H           -2.652631083865     2.542340254300     0.028184983474     1.007825032230
         H           -3.463888083865     1.219409254300    -0.820752016526     1.007825032230

  Basis Set: AUG-CC-PVTZ
    Blend: AUG-CC-PVTZ
  Basis Set: (AUG-CC-PVTZ AUX)
    Blend: AUG-CC-PVTZ-JKFIT
	 Reference Energy          =    -496.5130035054569930 [Eh]
	 Singles Energy            =      -0.0000000000000000 [Eh]
	 Same-Spin Energy          =      -0.5241633158292190 [Eh]
	 Opposite-Spin Energy      =      -1.6328100391395561 [Eh]
	 Correlation Energy        =      -2.1569733549687751 [Eh]
	 Total Energy              =    -498.6699768604257770 [Eh]

	 ================> DF-SCS-MP2 Energies <==================
	-----------------------------------------------------------
	 SCS Same-Spin Scale       =       0.3333333333333333 [-]
	 SCS Opposite-Spin Scale   =       1.2000000000000000 [-]
	 SCS Same-Spin Energy      =      -0.1747211052764063 [Eh]
	 SCS Opposite-Spin Energy  =      -1.9593720469674674 [Eh]
	 SCS Correlation Energy    =      -2.1340931522438735 [Eh]
	 SCS Total Energy          =    -498.6470966577008426 [Eh]
	-----------------------------------------------------------

  Dipole Moment: [D]
     X:    -0.7052      Y:     0.0308      Z:     0.5830     Total:     0.9154

*** Psi4 exiting successfully. Buy a developer a beer!
