                               Psi4 1.4a3.dev225

  ==> Input File <==

--------------------------------------------------------------------------
#psi4
#
memory 32 gb

molecule  {
0 1
  O        2.2381840    -1.1587810    -0.1175950
  O        2.2381840     1.1587830    -0.1175780
  C       -1.4506090    -0.7058110    -0.0005310
  C       -1.4506100     0.7058110    -0.0005190
  C        0.9370840    -0.6945160    -0.0405820
  C        0.9370830     0.6945180    -0.0405590
  C       -0.2384000    -1.4209720    -0.0261700
  C       -0.2384020     1.4209720    -0.0261890
  C        3.0186620    -0.0000010     0.2058680
  C       -2.7705356    -1.4736423     0.0327255
  C       -2.7532530     1.4635870     0.0322790
  H       -0.2243070    -2.5079120    -0.0340590
  H       -0.2243080     2.5079120    -0.0340480
  H        3.2379270    -0.0000100     1.2832160
  H        3.9284370     0.0000040    -0.3938210
  H       -2.5724980    -2.5416060     0.0194510
  H       -3.3330080    -1.2312860     0.9325220
  H       -3.3837460    -1.2187210    -0.8295640
  H       -3.3329960     1.2313300     0.9325330
  H       -2.5725010     2.5416050     0.0193840
  H       -3.3837580     1.2186740    -0.8295530
units angstrom
no_reorient  #important for SAPT in psi4, default
symmetry c1  #important for SAPT in psi4, default
}

set PROPERTIES_ORIGIN ["COM"]
properties('MP2/aug-cc-pvtz', properties = ['dipole'])
--------------------------------------------------------------------------

    Molecular point group: c1
  Charge       = 0
  Multiplicity = 1
  Basis Set: AUG-CC-PVTZ
    Blend: AUG-CC-PVTZ
  Basis Set: (AUG-CC-PVTZ AUX)
    Blend: AUG-CC-PVTZ-JKFIT

    Orbital Energies [Eh]
    ---------------------

    Doubly Occupied:

       1A    -20.596022     2A    -20.595998     3A    -11.352266
       4A    -11.292036     5A    -11.290763     6A    -11.242870
       7A    -11.241427     8A    -11.238277     9A    -11.238191
      10A    -11.225293    11A    -11.224722    12A     -1.467112
      13A     -1.364595    14A     -1.157765    15A     -1.052174
      16A     -1.037355    17A     -0.952241    18A     -0.943075
      19A     -0.882778    20A     -0.836981    21A     -0.795657
      22A     -0.716001    23A     -0.712482    24A     -0.674242
      25A     -0.647562    26A     -0.614995    27A     -0.611232
      28A     -0.596043    29A     -0.574029    30A     -0.564339
      31A     -0.553317    32A     -0.542291    33A     -0.535501
      34A     -0.534058    35A     -0.530660    36A     -0.499001
      37A     -0.490261    38A     -0.442073    39A     -0.334420
      40A     -0.293350

  @DF-RHF Final Energy:  -496.51427780088500

   => Energetics <=

    Nuclear Repulsion Energy =            600.9185262624909001
    One-Electron Energy =               -1867.8786911231231898
    Two-Electron Energy =                 770.4458870597471787
    Total Energy =                       -496.5142778008849973
  Basis Set: (AUG-CC-PVTZ AUX)
    Blend: AUG-CC-PVTZ-RI
    Molecular point group: c1

    Geometry (in Angstrom), charge = 0, multiplicity = 1:

       Center              X                  Y                   Z               Mass
    ------------   -----------------  -----------------  -----------------  -----------------
         O            2.161300308372    -1.157977166908    -0.110589518906    15.994914619570
         O            2.161300308372     1.159586833092    -0.110572518906    15.994914619570
         C           -1.527492691628    -0.705007166908     0.006474481094    12.000000000000
         C           -1.527493691628     0.706614833092     0.006486481094    12.000000000000
         C            0.860200308372    -0.693712166908    -0.033576518906    12.000000000000
         C            0.860199308372     0.695321833092    -0.033553518906    12.000000000000
         C           -0.315283691628    -1.420168166908    -0.019164518906    12.000000000000
         C           -0.315285691628     1.421775833092    -0.019183518906    12.000000000000
         C            2.941778308372     0.000802833092     0.212873481094    12.000000000000
         C           -2.847419291628    -1.472838466908     0.039730981094    12.000000000000
         C           -2.830136691628     1.464390833092     0.039284481094    12.000000000000
         H           -0.301190691628    -2.507108166908    -0.027053518906     1.007825032230
         H           -0.301191691628     2.508715833092    -0.027042518906     1.007825032230
         H            3.161043308372     0.000793833092     1.290221481094     1.007825032230
         H            3.851553308372     0.000807833092    -0.386815518906     1.007825032230
         H           -2.649381691628    -2.540802166908     0.026456481094     1.007825032230
         H           -3.409891691628    -1.230482166908     0.939527481094     1.007825032230
         H           -3.460629691628    -1.217917166908    -0.822558518906     1.007825032230
         H           -3.409879691628     1.232133833092     0.939538481094     1.007825032230
         H           -2.649384691628     2.542408833092     0.026389481094     1.007825032230
         H           -3.460641691628     1.219477833092    -0.822547518906     1.007825032230

  Basis Set: AUG-CC-PVTZ
    Blend: AUG-CC-PVTZ
  Basis Set: (AUG-CC-PVTZ AUX)
    Blend: AUG-CC-PVTZ-JKFIT
	 Reference Energy          =    -496.5142778008849973 [Eh]
	 Singles Energy            =      -0.0000000000000000 [Eh]
	 Same-Spin Energy          =      -0.5238728129797517 [Eh]
	 Opposite-Spin Energy      =      -1.6321022320016676 [Eh]
	 Correlation Energy        =      -2.1559750449814192 [Eh]
	 Total Energy              =    -498.6702528458664005 [Eh]

	 ================> DF-SCS-MP2 Energies <==================
	-----------------------------------------------------------
	 SCS Same-Spin Scale       =       0.3333333333333333 [-]
	 SCS Opposite-Spin Scale   =       1.2000000000000000 [-]
	 SCS Same-Spin Energy      =      -0.1746242709932506 [Eh]
	 SCS Opposite-Spin Energy  =      -1.9585226784020011 [Eh]
	 SCS Correlation Energy    =      -2.1331469493952517 [Eh]
	 SCS Total Energy          =    -498.6474247502802655 [Eh]
	-----------------------------------------------------------

  Dipole Moment: [D]
     X:    -0.5716      Y:    -0.0007      Z:     0.5640     Total:     0.8030

*** Psi4 exiting successfully. Buy a developer a beer!
