                               Psi4 1.4a3.dev225

  ==> Input File <==

--------------------------------------------------------------------------
#psi4
#
memory 32 gb

molecule  {
0 1
  O        2.2381840    -1.1587810    -0.1175950
  O        2.2381840     1.1587830    -0.1175780
  C       -1.4506090    -0.7058110    -0.0005310
  C       -1.4506100     0.7058110    -0.0005190
  C        0.9370840    -0.6945160    -0.0405820
  C        0.9370830     0.6945180    -0.0405590
  C       -0.2384000    -1.4209720    -0.0261700
  C       -0.2384020     1.4209720    -0.0261890
  C        3.0186620    -0.0000010     0.2058680
  C       -2.7532520    -1.4635880     0.0322900
  C       -2.7532530     1.4635870     0.0322790
  H       -0.2243070    -2.5079120    -0.0340590
  H       -0.2243080     2.5079120    -0.0340480
  H        3.2379270    -0.0000100     1.2832160
  H        3.9284370     0.0000040    -0.3938210
  H       -2.5724980    -2.5416060     0.0194510
  H       -3.2271815    -1.2736895     0.7681970
  H       -3.3837460    -1.2187210    -0.8295640
  H       -3.3329960     1.2313300     0.9325330
  H       -2.5725010     2.5416050     0.0193840
  H       -3.3837580     1.2186740    -0.8295530
units angstrom
no_reorient  #important for SAPT in psi4, default
symmetry c1  #important for SAPT in psi4, default
}

set PROPERTIES_ORIGIN ["COM"]
properties('MP2/aug-cc-pvtz', properties = ['dipole'])
--------------------------------------------------------------------------

    Molecular point group: c1
  Charge       = 0
  Multiplicity = 1
  Basis Set: AUG-CC-PVTZ
    Blend: AUG-CC-PVTZ
  Basis Set: (AUG-CC-PVTZ AUX)
    Blend: AUG-CC-PVTZ-JKFIT

    Orbital Energies [Eh]
    ---------------------

    Doubly Occupied:

       1A    -20.595692     2A    -20.595642     3A    -11.351981
       4A    -11.291562     5A    -11.290289     6A    -11.241557
       7A    -11.240254     8A    -11.237902     9A    -11.237368
      10A    -11.225619    11A    -11.200646    12A     -1.466770
      13A     -1.364255    14A     -1.158600    15A     -1.057594
      16A     -1.040066    17A     -0.965033    18A     -0.945134
      19A     -0.885471    20A     -0.838139    21A     -0.798641
      22A     -0.716470    23A     -0.712578    24A     -0.677872
      25A     -0.648465    26A     -0.619394    27A     -0.614106
      28A     -0.604550    29A     -0.573680    30A     -0.573035
      31A     -0.560455    32A     -0.540734    33A     -0.535676
      34A     -0.533744    35A     -0.529893    36A     -0.501912
      37A     -0.490560    38A     -0.442318    39A     -0.334131
      40A     -0.293213

  @DF-RHF Final Energy:  -496.48092880174960

   => Energetics <=

    Nuclear Repulsion Energy =            602.2926369791632624
    One-Electron Energy =               -1870.4851264144856486
    Two-Electron Energy =                 771.7115606335728444
    Total Energy =                       -496.4809288017495419
  Basis Set: (AUG-CC-PVTZ AUX)
    Blend: AUG-CC-PVTZ-RI
    Molecular point group: c1

    Geometry (in Angstrom), charge = 0, multiplicity = 1:

       Center              X                  Y                   Z               Mass
    ------------   -----------------  -----------------  -----------------  -----------------
         O            2.159207539566    -1.158496373201    -0.109451123260    15.994914619570
         O            2.159207539566     1.159067626799    -0.109434123260    15.994914619570
         C           -1.529585460434    -0.705526373201     0.007612876740    12.000000000000
         C           -1.529586460434     0.706095626799     0.007624876740    12.000000000000
         C            0.858107539566    -0.694231373201    -0.032438123260    12.000000000000
         C            0.858106539566     0.694802626799    -0.032415123260    12.000000000000
         C           -0.317376460434    -1.420687373201    -0.018026123260    12.000000000000
         C           -0.317378460434     1.421256626799    -0.018045123260    12.000000000000
         C            2.939685539566     0.000283626799     0.214011876740    12.000000000000
         C           -2.832228460434    -1.463303373201     0.040433876740    12.000000000000
         C           -2.832229460434     1.463871626799     0.040422876740    12.000000000000
         H           -0.303283460434    -2.507627373201    -0.025915123260     1.007825032230
         H           -0.303284460434     2.508196626799    -0.025904123260     1.007825032230
         H            3.158950539566     0.000274626799     1.291359876740     1.007825032230
         H            3.849460539566     0.000288626799    -0.385677123260     1.007825032230
         H           -2.651474460434    -2.541321373201     0.027594876740     1.007825032230
         H           -3.306157960434    -1.273404873201     0.776340876740     1.007825032230
         H           -3.462722460434    -1.218436373201    -0.821420123260     1.007825032230
         H           -3.411972460434     1.231614626799     0.940676876740     1.007825032230
         H           -2.651477460434     2.541889626799     0.027527876740     1.007825032230
         H           -3.462734460434     1.218958626799    -0.821409123260     1.007825032230

  Basis Set: AUG-CC-PVTZ
    Blend: AUG-CC-PVTZ
  Basis Set: (AUG-CC-PVTZ AUX)
    Blend: AUG-CC-PVTZ-JKFIT
	 Reference Energy          =    -496.4809288017495987 [Eh]
	 Singles Energy            =      -0.0000000000000000 [Eh]
	 Same-Spin Energy          =      -0.5240534047628174 [Eh]
	 Opposite-Spin Energy      =      -1.6315441476112795 [Eh]
	 Correlation Energy        =      -2.1555975523740969 [Eh]
	 Total Energy              =    -498.6365263541237027 [Eh]

	 ================> DF-SCS-MP2 Energies <==================
	-----------------------------------------------------------
	 SCS Same-Spin Scale       =       0.3333333333333333 [-]
	 SCS Opposite-Spin Scale   =       1.2000000000000000 [-]
	 SCS Same-Spin Energy      =      -0.1746844682542724 [Eh]
	 SCS Opposite-Spin Energy  =      -1.9578529771335353 [Eh]
	 SCS Correlation Energy    =      -2.1325374453878077 [Eh]
	 SCS Total Energy          =    -498.6134662471374099 [Eh]
	-----------------------------------------------------------

  Dipole Moment: [D]
     X:    -0.6424      Y:    -0.0086      Z:     0.6105     Total:     0.8863

*** Psi4 exiting successfully. Buy a developer a beer!
