                               Psi4 1.4a3.dev225

  ==> Input File <==

--------------------------------------------------------------------------
#psi4
#
memory 32 gb

molecule  {
0 1
  O        2.2381840    -1.1587810    -0.1175950
  O        2.2381840     1.1587830    -0.1175780
  C       -1.4506090    -0.7058110    -0.0005310
  C       -1.4506100     0.7058110    -0.0005190
  C        0.9370840    -0.6945160    -0.0405820
  C        0.9370830     0.6945180    -0.0405590
  C       -0.2384000    -1.4209720    -0.0261700
  C       -0.1703176     1.2903166    -0.0282142
  C        3.0186620    -0.0000010     0.2058680
  C       -2.7532520    -1.4635880     0.0322900
  C       -2.7532530     1.4635870     0.0322790
  H       -0.2243070    -2.5079120    -0.0340590
  H       -0.2243080     2.5079120    -0.0340480
  H        3.2379270    -0.0000100     1.2832160
  H        3.9284370     0.0000040    -0.3938210
  H       -2.5724980    -2.5416060     0.0194510
  H       -3.3330080    -1.2312860     0.9325220
  H       -3.3837460    -1.2187210    -0.8295640
  H       -3.3329960     1.2313300     0.9325330
  H       -2.5725010     2.5416050     0.0193840
  H       -3.3837580     1.2186740    -0.8295530
units angstrom
no_reorient  #important for SAPT in psi4, default
symmetry c1  #important for SAPT in psi4, default
}

set PROPERTIES_ORIGIN ["COM"]
properties('MP2/aug-cc-pvtz', properties = ['dipole'])
--------------------------------------------------------------------------

    Molecular point group: c1
  Charge       = 0
  Multiplicity = 1
  Basis Set: AUG-CC-PVTZ
    Blend: AUG-CC-PVTZ
  Basis Set: (AUG-CC-PVTZ AUX)
    Blend: AUG-CC-PVTZ-JKFIT

    Orbital Energies [Eh]
    ---------------------

    Doubly Occupied:

       1A    -20.598297     2A    -20.596925     3A    -11.353485
       4A    -11.294764     5A    -11.276711     6A    -11.242125
       7A    -11.239330     8A    -11.234448     9A    -11.233375
      10A    -11.228602    11A    -11.224724    12A     -1.468838
      13A     -1.366176    14A     -1.171686    15A     -1.064605
      16A     -1.036680    17A     -0.959943    18A     -0.945190
      19A     -0.885744    20A     -0.836062    21A     -0.797303
      22A     -0.718633    23A     -0.714298    24A     -0.679035
      25A     -0.648915    26A     -0.616264    27A     -0.596978
      28A     -0.590501    29A     -0.575583    30A     -0.568426
      31A     -0.552140    32A     -0.541305    33A     -0.539410
      34A     -0.535512    35A     -0.534588    36A     -0.508908
      37A     -0.464988    38A     -0.446292    39A     -0.344144
      40A     -0.295668

  @DF-RHF Final Energy:  -496.48541729697143

   => Energetics <=

    Nuclear Repulsion Energy =            604.0646918409651107
    One-Electron Energy =               -1874.0470185152798877
    Two-Electron Energy =                 773.4969093773431723
    Total Energy =                       -496.4854172969714909
  Basis Set: (AUG-CC-PVTZ AUX)
    Blend: AUG-CC-PVTZ-RI
    Molecular point group: c1

    Geometry (in Angstrom), charge = 0, multiplicity = 1:

       Center              X                  Y                   Z               Mass
    ------------   -----------------  -----------------  -----------------  -----------------
         O            2.154473966601    -1.148333455839    -0.110392752212    15.994914619570
         O            2.154473966601     1.169230544161    -0.110375752212    15.994914619570
         C           -1.534319033399    -0.695363455839     0.006671247788    12.000000000000
         C           -1.534320033399     0.716258544161     0.006683247788    12.000000000000
         C            0.853373966601    -0.684068455839    -0.033379752212    12.000000000000
         C            0.853372966601     0.704965544161    -0.033356752212    12.000000000000
         C           -0.322110033399    -1.410524455839    -0.018967752212    12.000000000000
         C           -0.254027633399     1.300764144161    -0.021011952212    12.000000000000
         C            2.934951966601     0.010446544161     0.213070247788    12.000000000000
         C           -2.836962033399    -1.453140455839     0.039492247788    12.000000000000
         C           -2.836963033399     1.474034544161     0.039481247788    12.000000000000
         H           -0.308017033399    -2.497464455839    -0.026856752212     1.007825032230
         H           -0.308018033399     2.518359544161    -0.026845752212     1.007825032230
         H            3.154216966601     0.010437544161     1.290418247788     1.007825032230
         H            3.844726966601     0.010451544161    -0.386618752212     1.007825032230
         H           -2.656208033399    -2.531158455839     0.026653247788     1.007825032230
         H           -3.416718033399    -1.220838455839     0.939724247788     1.007825032230
         H           -3.467456033399    -1.208273455839    -0.822361752212     1.007825032230
         H           -3.416706033399     1.241777544161     0.939735247788     1.007825032230
         H           -2.656211033399     2.552052544161     0.026586247788     1.007825032230
         H           -3.467468033399     1.229121544161    -0.822350752212     1.007825032230

  Basis Set: AUG-CC-PVTZ
    Blend: AUG-CC-PVTZ
  Basis Set: (AUG-CC-PVTZ AUX)
    Blend: AUG-CC-PVTZ-JKFIT
	 Reference Energy          =    -496.4854172969714341 [Eh]
	 Singles Energy            =      -0.0000000000000000 [Eh]
	 Same-Spin Energy          =      -0.5241380529930338 [Eh]
	 Opposite-Spin Energy      =      -1.6324893316167963 [Eh]
	 Correlation Energy        =      -2.1566273846098301 [Eh]
	 Total Energy              =    -498.6420446815812397 [Eh]

	 ================> DF-SCS-MP2 Energies <==================
	-----------------------------------------------------------
	 SCS Same-Spin Scale       =       0.3333333333333333 [-]
	 SCS Opposite-Spin Scale   =       1.2000000000000000 [-]
	 SCS Same-Spin Energy      =      -0.1747126843310113 [Eh]
	 SCS Opposite-Spin Energy  =      -1.9589871979401554 [Eh]
	 SCS Correlation Energy    =      -2.1336998822711668 [Eh]
	 SCS Total Energy          =    -498.6191171792426076 [Eh]
	-----------------------------------------------------------

  Dipole Moment: [D]
     X:    -0.6369      Y:    -0.0869      Z:     0.5824     Total:     0.8674

*** Psi4 exiting successfully. Buy a developer a beer!
