                               Psi4 1.4a3.dev225

  ==> Input File <==

--------------------------------------------------------------------------
#psi4
#
memory 32 gb

molecule  {
0 1
  O        2.2381840    -1.1587810    -0.1175950
  O        2.2381840     1.1587830    -0.1175780
  C       -1.4506090    -0.7058110    -0.0005310
  C       -1.4506100     0.7058110    -0.0005190
  C        0.9370840    -0.6945160    -0.0405820
  C        0.9370830     0.6945180    -0.0405590
  C       -0.2384000    -1.4209720    -0.0261700
  C       -0.2384020     1.4209720    -0.0261890
  C        3.0186620    -0.0000010     0.2058680
  C       -2.7532520    -1.4635880     0.0322900
  C       -2.7532530     1.4635870     0.0322790
  H       -0.2243070    -2.5079120    -0.0340590
  H       -0.2243080     2.5079120    -0.0340480
  H        3.2379270    -0.0000100     1.2832160
  H        3.8449439     0.0000035    -0.3387855
  H       -2.5724980    -2.5416060     0.0194510
  H       -3.3330080    -1.2312860     0.9325220
  H       -3.3837460    -1.2187210    -0.8295640
  H       -3.3329960     1.2313300     0.9325330
  H       -2.5725010     2.5416050     0.0193840
  H       -3.3837580     1.2186740    -0.8295530
units angstrom
no_reorient  #important for SAPT in psi4, default
symmetry c1  #important for SAPT in psi4, default
}

set PROPERTIES_ORIGIN ["COM"]
properties('MP2/aug-cc-pvtz', properties = ['dipole'])
--------------------------------------------------------------------------

    Molecular point group: c1
  Charge       = 0
  Multiplicity = 1
  Basis Set: AUG-CC-PVTZ
    Blend: AUG-CC-PVTZ
  Basis Set: (AUG-CC-PVTZ AUX)
    Blend: AUG-CC-PVTZ-JKFIT

    Orbital Energies [Eh]
    ---------------------

    Doubly Occupied:

       1A    -20.595190     2A    -20.595170     3A    -11.340691
       4A    -11.291668     5A    -11.290396     6A    -11.241995
       7A    -11.240895     8A    -11.237913     9A    -11.237896
      10A    -11.225095    11A    -11.225088    12A     -1.466857
      13A     -1.363914    14A     -1.158466    15A     -1.054856
      16A     -1.038006    17A     -0.952069    18A     -0.951446
      19A     -0.886071    20A     -0.837142    21A     -0.795244
      22A     -0.723526    23A     -0.712255    24A     -0.674677
      25A     -0.653907    26A     -0.615044    27A     -0.614718
      28A     -0.595515    29A     -0.573379    30A     -0.565850
      31A     -0.551284    32A     -0.540731    33A     -0.537191
      34A     -0.534593    35A     -0.532116    36A     -0.500537
      37A     -0.490991    38A     -0.442478    39A     -0.334043
      40A     -0.292911

  @DF-RHF Final Energy:  -496.50856298282542

   => Energetics <=

    Nuclear Repulsion Energy =            601.8723716577597997
    One-Electron Energy =               -1869.7382416631444357
    Two-Electron Energy =                 771.3573070225593256
    Total Energy =                       -496.5085629828254241
  Basis Set: (AUG-CC-PVTZ AUX)
    Blend: AUG-CC-PVTZ-RI
    Molecular point group: c1

    Geometry (in Angstrom), charge = 0, multiplicity = 1:

       Center              X                  Y                   Z               Mass
    ------------   -----------------  -----------------  -----------------  -----------------
         O            2.160478969390    -1.158781142653    -0.110924301324    15.994914619570
         O            2.160478969390     1.158782857347    -0.110907301324    15.994914619570
         C           -1.528314030610    -0.705811142653     0.006139698676    12.000000000000
         C           -1.528315030610     0.705810857347     0.006151698676    12.000000000000
         C            0.859378969390    -0.694516142653    -0.033911301324    12.000000000000
         C            0.859377969390     0.694517857347    -0.033888301324    12.000000000000
         C           -0.316105030610    -1.420972142653    -0.019499301324    12.000000000000
         C           -0.316107030610     1.420971857347    -0.019518301324    12.000000000000
         C            2.940956969390    -0.000001142653     0.212538698676    12.000000000000
         C           -2.830957030610    -1.463588142653     0.038960698676    12.000000000000
         C           -2.830958030610     1.463586857347     0.038949698676    12.000000000000
         H           -0.302012030610    -2.507912142653    -0.027388301324     1.007825032230
         H           -0.302013030610     2.507911857347    -0.027377301324     1.007825032230
         H            3.160221969390    -0.000010142653     1.289886698676     1.007825032230
         H            3.767238869390     0.000003357347    -0.332114801324     1.007825032230
         H           -2.650203030610    -2.541606142653     0.026121698676     1.007825032230
         H           -3.410713030610    -1.231286142653     0.939192698676     1.007825032230
         H           -3.461451030610    -1.218721142653    -0.822893301324     1.007825032230
         H           -3.410701030610     1.231329857347     0.939203698676     1.007825032230
         H           -2.650206030610     2.541604857347     0.026054698676     1.007825032230
         H           -3.461463030610     1.218673857347    -0.822882301324     1.007825032230

  Basis Set: AUG-CC-PVTZ
    Blend: AUG-CC-PVTZ
  Basis Set: (AUG-CC-PVTZ AUX)
    Blend: AUG-CC-PVTZ-JKFIT
	 Reference Energy          =    -496.5085629828254241 [Eh]
	 Singles Energy            =      -0.0000000000000000 [Eh]
	 Same-Spin Energy          =      -0.5238903195763984 [Eh]
	 Opposite-Spin Energy      =      -1.6315868608378834 [Eh]
	 Correlation Energy        =      -2.1554771804142820 [Eh]
	 Total Energy              =    -498.6640401632396902 [Eh]

	 ================> DF-SCS-MP2 Energies <==================
	-----------------------------------------------------------
	 SCS Same-Spin Scale       =       0.3333333333333333 [-]
	 SCS Opposite-Spin Scale   =       1.2000000000000000 [-]
	 SCS Same-Spin Energy      =      -0.1746301065254661 [Eh]
	 SCS Opposite-Spin Energy  =      -1.9579042330054599 [Eh]
	 SCS Correlation Energy    =      -2.1325343395309262 [Eh]
	 SCS Total Energy          =    -498.6410973223563587 [Eh]
	-----------------------------------------------------------

  Dipole Moment: [D]
     X:    -0.5257      Y:    -0.0000      Z:     0.5651     Total:     0.7718

*** Psi4 exiting successfully. Buy a developer a beer!
