                               Psi4 1.4a3.dev225

  ==> Input File <==

--------------------------------------------------------------------------
#psi4
#
memory 32 gb

molecule  {
0 1
  O        2.3095232    -1.1842415    -0.1830302
  O        2.2381840     1.1587830    -0.1175780
  C       -1.4506090    -0.7058110    -0.0005310
  C       -1.4506100     0.7058110    -0.0005190
  C        0.9370840    -0.6945160    -0.0405820
  C        0.9370830     0.6945180    -0.0405590
  C       -0.2384000    -1.4209720    -0.0261700
  C       -0.2384020     1.4209720    -0.0261890
  C        3.0186620    -0.0000010     0.2058680
  C       -2.7532520    -1.4635880     0.0322900
  C       -2.7532530     1.4635870     0.0322790
  H       -0.2243070    -2.5079120    -0.0340590
  H       -0.2243080     2.5079120    -0.0340480
  H        3.2379270    -0.0000100     1.2832160
  H        3.9284370     0.0000040    -0.3938210
  H       -2.5724980    -2.5416060     0.0194510
  H       -3.3330080    -1.2312860     0.9325220
  H       -3.3837460    -1.2187210    -0.8295640
  H       -3.3329960     1.2313300     0.9325330
  H       -2.5725010     2.5416050     0.0193840
  H       -3.3837580     1.2186740    -0.8295530
units angstrom
no_reorient  #important for SAPT in psi4, default
symmetry c1  #important for SAPT in psi4, default
}

set PROPERTIES_ORIGIN ["COM"]
properties('MP2/aug-cc-pvtz', properties = ['dipole'])
--------------------------------------------------------------------------

    Molecular point group: c1
  Charge       = 0
  Multiplicity = 1
  Basis Set: AUG-CC-PVTZ
    Blend: AUG-CC-PVTZ
  Basis Set: (AUG-CC-PVTZ AUX)
    Blend: AUG-CC-PVTZ-JKFIT

    Orbital Energies [Eh]
    ---------------------

    Doubly Occupied:

       1A    -20.596165     2A    -20.595077     3A    -11.346945
       4A    -11.297538     5A    -11.294834     6A    -11.247627
       7A    -11.244755     8A    -11.243588     9A    -11.240793
      10A    -11.228429    11A    -11.227476    12A     -1.453774
      13A     -1.350644    14A     -1.162046    15A     -1.054514
      16A     -1.041691    17A     -0.955060    18A     -0.937948
      19A     -0.882675    20A     -0.838122    21A     -0.790832
      22A     -0.713327    23A     -0.707784    24A     -0.670640
      25A     -0.645248    26A     -0.618037    27A     -0.605932
      28A     -0.597658    29A     -0.571141    30A     -0.563791
      31A     -0.554073    32A     -0.543125    33A     -0.537045
      34A     -0.529882    35A     -0.522020    36A     -0.502657
      37A     -0.494134    38A     -0.443807    39A     -0.338525
      40A     -0.300414

  @DF-RHF Final Energy:  -496.50532820611863

   => Energetics <=

    Nuclear Repulsion Energy =            598.9154730048101101
    One-Electron Energy =               -1863.8620522372154937
    Two-Electron Energy =                 768.4412510262867499
    Total Energy =                       -496.5053282061186337
  Basis Set: (AUG-CC-PVTZ AUX)
    Blend: AUG-CC-PVTZ-RI
    Molecular point group: c1

    Geometry (in Angstrom), charge = 0, multiplicity = 1:

       Center              X                  Y                   Z               Mass
    ------------   -----------------  -----------------  -----------------  -----------------
         O            2.223653802572    -1.181527954166    -0.169015523878    15.994914619570
         O            2.152314602572     1.161496545834    -0.103563323878    15.994914619570
         C           -1.536478397428    -0.703097454166     0.013483676122    12.000000000000
         C           -1.536479397428     0.708524545834     0.013495676122    12.000000000000
         C            0.851214602572    -0.691802454166    -0.026567323878    12.000000000000
         C            0.851213602572     0.697231545834    -0.026544323878    12.000000000000
         C           -0.324269397428    -1.418258454166    -0.012155323878    12.000000000000
         C           -0.324271397428     1.423685545834    -0.012174323878    12.000000000000
         C            2.932792602572     0.002712545834     0.219882676122    12.000000000000
         C           -2.839121397428    -1.460874454166     0.046304676122    12.000000000000
         C           -2.839122397428     1.466300545834     0.046293676122    12.000000000000
         H           -0.310176397428    -2.505198454166    -0.020044323878     1.007825032230
         H           -0.310177397428     2.510625545834    -0.020033323878     1.007825032230
         H            3.152057602572     0.002703545834     1.297230676122     1.007825032230
         H            3.842567602572     0.002717545834    -0.379806323878     1.007825032230
         H           -2.658367397428    -2.538892454166     0.033465676122     1.007825032230
         H           -3.418877397428    -1.228572454166     0.946536676122     1.007825032230
         H           -3.469615397428    -1.216007454166    -0.815549323878     1.007825032230
         H           -3.418865397428     1.234043545834     0.946547676122     1.007825032230
         H           -2.658370397428     2.544318545834     0.033398676122     1.007825032230
         H           -3.469627397428     1.221387545834    -0.815538323878     1.007825032230

  Basis Set: AUG-CC-PVTZ
    Blend: AUG-CC-PVTZ
  Basis Set: (AUG-CC-PVTZ AUX)
    Blend: AUG-CC-PVTZ-JKFIT
	 Reference Energy          =    -496.5053282061186337 [Eh]
	 Singles Energy            =      -0.0000000000000000 [Eh]
	 Same-Spin Energy          =      -0.5246579294603197 [Eh]
	 Opposite-Spin Energy      =      -1.6348161558710743 [Eh]
	 Correlation Energy        =      -2.1594740853313938 [Eh]
	 Total Energy              =    -498.6648022914500302 [Eh]

	 ================> DF-SCS-MP2 Energies <==================
	-----------------------------------------------------------
	 SCS Same-Spin Scale       =       0.3333333333333333 [-]
	 SCS Opposite-Spin Scale   =       1.2000000000000000 [-]
	 SCS Same-Spin Energy      =      -0.1748859764867732 [Eh]
	 SCS Opposite-Spin Energy  =      -1.9617793870452891 [Eh]
	 SCS Correlation Energy    =      -2.1366653635320625 [Eh]
	 SCS Total Energy          =    -498.6419935696507082 [Eh]
	-----------------------------------------------------------

  Dipole Moment: [D]
     X:    -1.0890      Y:     0.1158      Z:     0.6422     Total:     1.2696

*** Psi4 exiting successfully. Buy a developer a beer!
