                               Psi4 1.4a3.dev225

  ==> Input File <==

--------------------------------------------------------------------------
#psi4
#
memory 32 gb

molecule  {
0 1
  O        2.2381840    -1.1587810    -0.1175950
  O        2.2381840     1.1587830    -0.1175780
  C       -1.4506090    -0.7058110    -0.0005310
  C       -1.4435200     0.7174823     0.0219675
  C        0.9370840    -0.6945160    -0.0405820
  C        0.9370830     0.6945180    -0.0405590
  C       -0.2384000    -1.4209720    -0.0261700
  C       -0.2384020     1.4209720    -0.0261890
  C        3.0186620    -0.0000010     0.2058680
  C       -2.7532520    -1.4635880     0.0322900
  C       -2.7532530     1.4635870     0.0322790
  H       -0.2243070    -2.5079120    -0.0340590
  H       -0.2243080     2.5079120    -0.0340480
  H        3.2379270    -0.0000100     1.2832160
  H        3.9284370     0.0000040    -0.3938210
  H       -2.5724980    -2.5416060     0.0194510
  H       -3.3330080    -1.2312860     0.9325220
  H       -3.3837460    -1.2187210    -0.8295640
  H       -3.3329960     1.2313300     0.9325330
  H       -2.5725010     2.5416050     0.0193840
  H       -3.3837580     1.2186740    -0.8295530
units angstrom
no_reorient  #important for SAPT in psi4, default
symmetry c1  #important for SAPT in psi4, default
}

set PROPERTIES_ORIGIN ["COM"]
properties('MP2/aug-cc-pvtz', properties = ['dipole'])
--------------------------------------------------------------------------

    Molecular point group: c1
  Charge       = 0
  Multiplicity = 1
  Basis Set: AUG-CC-PVTZ
    Blend: AUG-CC-PVTZ
  Basis Set: (AUG-CC-PVTZ AUX)
    Blend: AUG-CC-PVTZ-JKFIT

    Orbital Energies [Eh]
    ---------------------

    Doubly Occupied:

       1A    -20.595840     2A    -20.595813     3A    -11.352179
       4A    -11.291785     5A    -11.290510     6A    -11.243318
       7A    -11.241747     8A    -11.238306     9A    -11.237441
      10A    -11.225641    11A    -11.225400    12A     -1.466911
      13A     -1.364426    14A     -1.158387    15A     -1.052443
      16A     -1.039632    17A     -0.952642    18A     -0.943080
      19A     -0.882119    20A     -0.835186    21A     -0.796596
      22A     -0.716273    23A     -0.712594    24A     -0.675225
      25A     -0.647936    26A     -0.615250    27A     -0.611179
      28A     -0.595329    29A     -0.573918    30A     -0.565389
      31A     -0.551772    32A     -0.540938    33A     -0.534879
      34A     -0.533237    35A     -0.530949    36A     -0.502985
      37A     -0.489035    38A     -0.441667    39A     -0.335681
      40A     -0.291857

  @DF-RHF Final Energy:  -496.51386178466055

   => Energetics <=

    Nuclear Repulsion Energy =            601.2587792864136418
    One-Electron Energy =               -1868.5542907909130008
    Two-Electron Energy =                 770.7816497198386969
    Total Energy =                       -496.5138617846605484
  Basis Set: (AUG-CC-PVTZ AUX)
    Blend: AUG-CC-PVTZ-RI
    Molecular point group: c1

    Geometry (in Angstrom), charge = 0, multiplicity = 1:

       Center              X                  Y                   Z               Mass
    ------------   -----------------  -----------------  -----------------  -----------------
         O            2.159351304954    -1.159714426429    -0.112352798618    15.994914619570
         O            2.159351304954     1.157849573571    -0.112335798618    15.994914619570
         C           -1.529441695046    -0.706744426429     0.004711201382    12.000000000000
         C           -1.522352695046     0.716548873571     0.027209701382    12.000000000000
         C            0.858251304954    -0.695449426429    -0.035339798618    12.000000000000
         C            0.858250304954     0.693584573571    -0.035316798618    12.000000000000
         C           -0.317232695046    -1.421905426429    -0.020927798618    12.000000000000
         C           -0.317234695046     1.420038573571    -0.020946798618    12.000000000000
         C            2.939829304954    -0.000934426429     0.211110201382    12.000000000000
         C           -2.832084695046    -1.464521426429     0.037532201382    12.000000000000
         C           -2.832085695046     1.462653573571     0.037521201382    12.000000000000
         H           -0.303139695046    -2.508845426429    -0.028816798618     1.007825032230
         H           -0.303140695046     2.506978573571    -0.028805798618     1.007825032230
         H            3.159094304954    -0.000943426429     1.288458201382     1.007825032230
         H            3.849604304954    -0.000929426429    -0.388578798618     1.007825032230
         H           -2.651330695046    -2.542539426429     0.024693201382     1.007825032230
         H           -3.411840695046    -1.232219426429     0.937764201382     1.007825032230
         H           -3.462578695046    -1.219654426429    -0.824321798618     1.007825032230
         H           -3.411828695046     1.230396573571     0.937775201382     1.007825032230
         H           -2.651333695046     2.540671573571     0.024626201382     1.007825032230
         H           -3.462590695046     1.217740573571    -0.824310798618     1.007825032230

  Basis Set: AUG-CC-PVTZ
    Blend: AUG-CC-PVTZ
  Basis Set: (AUG-CC-PVTZ AUX)
    Blend: AUG-CC-PVTZ-JKFIT
	 Reference Energy          =    -496.5138617846605484 [Eh]
	 Singles Energy            =      -0.0000000000000000 [Eh]
	 Same-Spin Energy          =      -0.5240933205487477 [Eh]
	 Opposite-Spin Energy      =      -1.6322755265984958 [Eh]
	 Correlation Energy        =      -2.1563688471472435 [Eh]
	 Total Energy              =    -498.6702306318077831 [Eh]

	 ================> DF-SCS-MP2 Energies <==================
	-----------------------------------------------------------
	 SCS Same-Spin Scale       =       0.3333333333333333 [-]
	 SCS Opposite-Spin Scale   =       1.2000000000000000 [-]
	 SCS Same-Spin Energy      =      -0.1746977735162492 [Eh]
	 SCS Opposite-Spin Energy  =      -1.9587306319181950 [Eh]
	 SCS Correlation Energy    =      -2.1334284054344441 [Eh]
	 SCS Total Energy          =    -498.6472901900950205 [Eh]
	-----------------------------------------------------------

  Dipole Moment: [D]
     X:    -0.5814      Y:    -0.0029      Z:     0.5532     Total:     0.8025

*** Psi4 exiting successfully. Buy a developer a beer!
