                               Psi4 1.4a3.dev225

  ==> Input File <==

--------------------------------------------------------------------------
#psi4
#
memory 32 gb

molecule  {
0 1
  O        2.2381840    -1.1587810    -0.1175950
  O        2.2381840     1.1587830    -0.1175780
  C       -1.4506090    -0.7058110    -0.0005310
  C       -1.4506100     0.7058110    -0.0005190
  C        0.9370840    -0.6945160    -0.0405820
  C        0.9370830     0.6945180    -0.0405590
  C       -0.2384000    -1.4209720    -0.0261700
  C       -0.1522881     1.4717762    -0.0280126
  C        3.0186620    -0.0000010     0.2058680
  C       -2.7532520    -1.4635880     0.0322900
  C       -2.7532530     1.4635870     0.0322790
  H       -0.2243070    -2.5079120    -0.0340590
  H       -0.2243080     2.5079120    -0.0340480
  H        3.2379270    -0.0000100     1.2832160
  H        3.9284370     0.0000040    -0.3938210
  H       -2.5724980    -2.5416060     0.0194510
  H       -3.3330080    -1.2312860     0.9325220
  H       -3.3837460    -1.2187210    -0.8295640
  H       -3.3329960     1.2313300     0.9325330
  H       -2.5725010     2.5416050     0.0193840
  H       -3.3837580     1.2186740    -0.8295530
units angstrom
no_reorient  #important for SAPT in psi4, default
symmetry c1  #important for SAPT in psi4, default
}

set PROPERTIES_ORIGIN ["COM"]
properties('MP2/aug-cc-pvtz', properties = ['dipole'])
--------------------------------------------------------------------------

    Molecular point group: c1
  Charge       = 0
  Multiplicity = 1
  Basis Set: AUG-CC-PVTZ
    Blend: AUG-CC-PVTZ
  Basis Set: (AUG-CC-PVTZ AUX)
    Blend: AUG-CC-PVTZ-JKFIT

    Orbital Energies [Eh]
    ---------------------

    Doubly Occupied:

       1A    -20.597587     2A    -20.593049     3A    -11.351508
       4A    -11.294151     5A    -11.289422     6A    -11.249835
       7A    -11.240765     8A    -11.238694     9A    -11.237288
      10A    -11.225786    11A    -11.225202    12A     -1.467656
      13A     -1.365018    14A     -1.153584    15A     -1.055784
      16A     -1.033822    17A     -0.956442    18A     -0.940201
      19A     -0.881500    20A     -0.841759    21A     -0.791118
      22A     -0.718049    23A     -0.713383    24A     -0.671578
      25A     -0.646567    26A     -0.628479    27A     -0.609323
      28A     -0.594028    29A     -0.574398    30A     -0.563187
      31A     -0.550892    32A     -0.541717    33A     -0.536863
      34A     -0.534257    35A     -0.531069    36A     -0.501994
      37A     -0.484769    38A     -0.437306    39A     -0.334252
      40A     -0.292499

  @DF-RHF Final Energy:  -496.50329806816529

   => Energetics <=

    Nuclear Repulsion Energy =            600.5542530281668405
    One-Electron Energy =               -1867.1255411473189270
    Two-Electron Energy =                 770.0679900509867366
    Total Energy =                       -496.5032980681653498
  Basis Set: (AUG-CC-PVTZ AUX)
    Blend: AUG-CC-PVTZ-RI
    Molecular point group: c1

    Geometry (in Angstrom), charge = 0, multiplicity = 1:

       Center              X                  Y                   Z               Mass
    ------------   -----------------  -----------------  -----------------  -----------------
         O            2.153032260939    -1.162843638193    -0.110408872895    15.994914619570
         O            2.153032260939     1.154720361807    -0.110391872895    15.994914619570
         C           -1.535760739061    -0.709873638193     0.006655127105    12.000000000000
         C           -1.535761739061     0.701748361807     0.006667127105    12.000000000000
         C            0.851932260939    -0.698578638193    -0.033395872895    12.000000000000
         C            0.851931260939     0.690455361807    -0.033372872895    12.000000000000
         C           -0.323551739061    -1.425034638193    -0.018983872895    12.000000000000
         C           -0.237439839061     1.467713561807    -0.020826472895    12.000000000000
         C            2.933510260939    -0.004063638193     0.213054127105    12.000000000000
         C           -2.838403739061    -1.467650638193     0.039476127105    12.000000000000
         C           -2.838404739061     1.459524361807     0.039465127105    12.000000000000
         H           -0.309458739061    -2.511974638193    -0.026872872895     1.007825032230
         H           -0.309459739061     2.503849361807    -0.026861872895     1.007825032230
         H            3.152775260939    -0.004072638193     1.290402127105     1.007825032230
         H            3.843285260939    -0.004058638193    -0.386634872895     1.007825032230
         H           -2.657649739061    -2.545668638193     0.026637127105     1.007825032230
         H           -3.418159739061    -1.235348638193     0.939708127105     1.007825032230
         H           -3.468897739061    -1.222783638193    -0.822377872895     1.007825032230
         H           -3.418147739061     1.227267361807     0.939719127105     1.007825032230
         H           -2.657652739061     2.537542361807     0.026570127105     1.007825032230
         H           -3.468909739061     1.214611361807    -0.822366872895     1.007825032230

  Basis Set: AUG-CC-PVTZ
    Blend: AUG-CC-PVTZ
  Basis Set: (AUG-CC-PVTZ AUX)
    Blend: AUG-CC-PVTZ-JKFIT
	 Reference Energy          =    -496.5032980681652930 [Eh]
	 Singles Energy            =      -0.0000000000000000 [Eh]
	 Same-Spin Energy          =      -0.5236900918747551 [Eh]
	 Opposite-Spin Energy      =      -1.6327953803891930 [Eh]
	 Correlation Energy        =      -2.1564854722639479 [Eh]
	 Total Energy              =    -498.6597835404292596 [Eh]

	 ================> DF-SCS-MP2 Energies <==================
	-----------------------------------------------------------
	 SCS Same-Spin Scale       =       0.3333333333333333 [-]
	 SCS Opposite-Spin Scale   =       1.2000000000000000 [-]
	 SCS Same-Spin Energy      =      -0.1745633639582517 [Eh]
	 SCS Opposite-Spin Energy  =      -1.9593544564670315 [Eh]
	 SCS Correlation Energy    =      -2.1339178204252831 [Eh]
	 SCS Total Energy          =    -498.6372158885905606 [Eh]
	-----------------------------------------------------------

  Dipole Moment: [D]
     X:    -0.6080      Y:    -0.0092      Z:     0.5708     Total:     0.8340

*** Psi4 exiting successfully. Buy a developer a beer!
