                               Psi4 1.4a3.dev225

  ==> Input File <==

--------------------------------------------------------------------------
#psi4
#
memory 32 gb

molecule  {
0 1
  O        2.2381840    -1.1587810    -0.1175950
  O        2.2381840     1.1587830    -0.1175780
  C       -1.4506090    -0.7058110    -0.0005310
  C       -1.4506100     0.7058110    -0.0005190
  C        0.9558915    -0.7012270    -0.0416952
  C        0.9370830     0.6945180    -0.0405590
  C       -0.2384000    -1.4209720    -0.0261700
  C       -0.2384020     1.4209720    -0.0261890
  C        3.0186620    -0.0000010     0.2058680
  C       -2.7532520    -1.4635880     0.0322900
  C       -2.7532530     1.4635870     0.0322790
  H       -0.2243070    -2.5079120    -0.0340590
  H       -0.2243080     2.5079120    -0.0340480
  H        3.2379270    -0.0000100     1.2832160
  H        3.9284370     0.0000040    -0.3938210
  H       -2.5724980    -2.5416060     0.0194510
  H       -3.3330080    -1.2312860     0.9325220
  H       -3.3837460    -1.2187210    -0.8295640
  H       -3.3329960     1.2313300     0.9325330
  H       -2.5725010     2.5416050     0.0193840
  H       -3.3837580     1.2186740    -0.8295530
units angstrom
no_reorient  #important for SAPT in psi4, default
symmetry c1  #important for SAPT in psi4, default
}

set PROPERTIES_ORIGIN ["COM"]
properties('MP2/aug-cc-pvtz', properties = ['dipole'])
--------------------------------------------------------------------------

    Molecular point group: c1
  Charge       = 0
  Multiplicity = 1
  Basis Set: AUG-CC-PVTZ
    Blend: AUG-CC-PVTZ
  Basis Set: (AUG-CC-PVTZ AUX)
    Blend: AUG-CC-PVTZ-JKFIT

    Orbital Energies [Eh]
    ---------------------

    Doubly Occupied:

       1A    -20.599055     2A    -20.595956     3A    -11.353934
       4A    -11.293238     5A    -11.290952     6A    -11.241651
       7A    -11.240502     8A    -11.238426     9A    -11.237846
      10A    -11.224873    11A    -11.224747    12A     -1.472057
      13A     -1.369545    14A     -1.156080    15A     -1.052077
      16A     -1.036740    17A     -0.951166    18A     -0.944070
      19A     -0.882714    20A     -0.836190    21A     -0.797110
      22A     -0.717645    23A     -0.713998    24A     -0.677118
      25A     -0.648215    26A     -0.613398    27A     -0.611530
      28A     -0.594703    29A     -0.577275    30A     -0.566501
      31A     -0.551057    32A     -0.541228    33A     -0.537184
      34A     -0.532907    35A     -0.529654    36A     -0.500551
      37A     -0.489636    38A     -0.441272    39A     -0.332801
      40A     -0.291109

  @DF-RHF Final Energy:  -496.51388553800820

   => Energetics <=

    Nuclear Repulsion Energy =            601.2360237268702576
    One-Electron Energy =               -1868.4863953953686178
    Two-Electron Energy =                 770.7364861304901069
    Total Energy =                       -496.5138855380081395
  Basis Set: (AUG-CC-PVTZ AUX)
    Blend: AUG-CC-PVTZ-RI
    Molecular point group: c1

    Geometry (in Angstrom), charge = 0, multiplicity = 1:

       Center              X                  Y                   Z               Mass
    ------------   -----------------  -----------------  -----------------  -----------------
         O            2.158414330213    -1.158244509571    -0.110465679113    15.994914619570
         O            2.158414330213     1.159319490429    -0.110448679113    15.994914619570
         C           -1.530378669787    -0.705274509571     0.006598320887    12.000000000000
         C           -1.530379669787     0.706347490429     0.006610320887    12.000000000000
         C            0.876121830213    -0.700690509571    -0.034565879113    12.000000000000
         C            0.857313330213     0.695054490429    -0.033429679113    12.000000000000
         C           -0.318169669787    -1.420435509571    -0.019040679113    12.000000000000
         C           -0.318171669787     1.421508490429    -0.019059679113    12.000000000000
         C            2.938892330213     0.000535490429     0.212997320887    12.000000000000
         C           -2.833021669787    -1.463051509571     0.039419320887    12.000000000000
         C           -2.833022669787     1.464123490429     0.039408320887    12.000000000000
         H           -0.304076669787    -2.507375509571    -0.026929679113     1.007825032230
         H           -0.304077669787     2.508448490429    -0.026918679113     1.007825032230
         H            3.158157330213     0.000526490429     1.290345320887     1.007825032230
         H            3.848667330213     0.000540490429    -0.386691679113     1.007825032230
         H           -2.652267669787    -2.541069509571     0.026580320887     1.007825032230
         H           -3.412777669787    -1.230749509571     0.939651320887     1.007825032230
         H           -3.463515669787    -1.218184509571    -0.822434679113     1.007825032230
         H           -3.412765669787     1.231866490429     0.939662320887     1.007825032230
         H           -2.652270669787     2.542141490429     0.026513320887     1.007825032230
         H           -3.463527669787     1.219210490429    -0.822423679113     1.007825032230

  Basis Set: AUG-CC-PVTZ
    Blend: AUG-CC-PVTZ
  Basis Set: (AUG-CC-PVTZ AUX)
    Blend: AUG-CC-PVTZ-JKFIT
	 Reference Energy          =    -496.5138855380081964 [Eh]
	 Singles Energy            =      -0.0000000000000000 [Eh]
	 Same-Spin Energy          =      -0.5241104673058087 [Eh]
	 Opposite-Spin Energy      =      -1.6321883025941708 [Eh]
	 Correlation Energy        =      -2.1562987698999794 [Eh]
	 Total Energy              =    -498.6701843079081868 [Eh]

	 ================> DF-SCS-MP2 Energies <==================
	-----------------------------------------------------------
	 SCS Same-Spin Scale       =       0.3333333333333333 [-]
	 SCS Opposite-Spin Scale   =       1.2000000000000000 [-]
	 SCS Same-Spin Energy      =      -0.1747034891019362 [Eh]
	 SCS Opposite-Spin Energy  =      -1.9586259631130050 [Eh]
	 SCS Correlation Energy    =      -2.1333294522149413 [Eh]
	 SCS Total Energy          =    -498.6472149902231195 [Eh]
	-----------------------------------------------------------

  Dipole Moment: [D]
     X:    -0.4494      Y:    -0.0209      Z:     0.5594     Total:     0.7178

*** Psi4 exiting successfully. Buy a developer a beer!
