                               Psi4 1.4a3.dev225

  ==> Input File <==

--------------------------------------------------------------------------
#psi4
#
memory 32 gb

molecule  {
0 1
  O        2.2381840    -1.1587810    -0.1175950
  O        2.2381840     1.1587830    -0.1175780
  C       -1.4506090    -0.7058110    -0.0005310
  C       -1.4506100     0.7058110    -0.0005190
  C        0.9370840    -0.6945160    -0.0405820
  C        0.9370830     0.6945180    -0.0405590
  C       -0.2384000    -1.4209720    -0.0261700
  C       -0.3197676     1.5437919    -0.0238826
  C        3.0186620    -0.0000010     0.2058680
  C       -2.7532520    -1.4635880     0.0322900
  C       -2.7532530     1.4635870     0.0322790
  H       -0.2243070    -2.5079120    -0.0340590
  H       -0.2243080     2.5079120    -0.0340480
  H        3.2379270    -0.0000100     1.2832160
  H        3.9284370     0.0000040    -0.3938210
  H       -2.5724980    -2.5416060     0.0194510
  H       -3.3330080    -1.2312860     0.9325220
  H       -3.3837460    -1.2187210    -0.8295640
  H       -3.3329960     1.2313300     0.9325330
  H       -2.5725010     2.5416050     0.0193840
  H       -3.3837580     1.2186740    -0.8295530
units angstrom
no_reorient  #important for SAPT in psi4, default
symmetry c1  #important for SAPT in psi4, default
}

set PROPERTIES_ORIGIN ["COM"]
properties('MP2/aug-cc-pvtz', properties = ['dipole'])
--------------------------------------------------------------------------

    Molecular point group: c1
  Charge       = 0
  Multiplicity = 1
  Basis Set: AUG-CC-PVTZ
    Blend: AUG-CC-PVTZ
  Basis Set: (AUG-CC-PVTZ AUX)
    Blend: AUG-CC-PVTZ-JKFIT

    Orbital Energies [Eh]
    ---------------------

    Doubly Occupied:

       1A    -20.595899     2A    -20.594259     3A    -11.351318
       4A    -11.303722     5A    -11.288795     6A    -11.247214
       7A    -11.244337     8A    -11.243653     9A    -11.242179
      10A    -11.226430    11A    -11.222625    12A     -1.465869
      13A     -1.363405    14A     -1.151598    15A     -1.051677
      16A     -1.036048    17A     -0.946793    18A     -0.940156
      19A     -0.880913    20A     -0.847171    21A     -0.790586
      22A     -0.715542    23A     -0.711612    24A     -0.684339
      25A     -0.652573    26A     -0.628825    27A     -0.605600
      28A     -0.594831    29A     -0.572642    30A     -0.564494
      31A     -0.551417    32A     -0.542616    33A     -0.534297
      34A     -0.529488    35A     -0.524177    36A     -0.507527
      37A     -0.481834    38A     -0.439001    39A     -0.330865
      40A     -0.288875

  @DF-RHF Final Energy:  -496.48253643127299

   => Energetics <=

    Nuclear Repulsion Energy =            598.8497290760659553
    One-Electron Energy =               -1863.6741288359141890
    Two-Electron Energy =                 768.3418633285753003
    Total Energy =                       -496.4825364312730471
  Basis Set: (AUG-CC-PVTZ AUX)
    Blend: AUG-CC-PVTZ-RI
    Molecular point group: c1

    Geometry (in Angstrom), charge = 0, multiplicity = 1:

       Center              X                  Y                   Z               Mass
    ------------   -----------------  -----------------  -----------------  -----------------
         O            2.166424542668    -1.168602280554    -0.110739123006    15.994914619570
         O            2.166424542668     1.148961719446    -0.110722123006    15.994914619570
         C           -1.522368457332    -0.715632280554     0.006324876994    12.000000000000
         C           -1.522369457332     0.695989719446     0.006336876994    12.000000000000
         C            0.865324542668    -0.704337280554    -0.033726123006    12.000000000000
         C            0.865323542668     0.684696719446    -0.033703123006    12.000000000000
         C           -0.310159457332    -1.430793280554    -0.019314123006    12.000000000000
         C           -0.391527057332     1.533970619446    -0.017026723006    12.000000000000
         C            2.946902542668    -0.009822280554     0.212723876994    12.000000000000
         C           -2.825011457332    -1.473409280554     0.039145876994    12.000000000000
         C           -2.825012457332     1.453765719446     0.039134876994    12.000000000000
         H           -0.296066457332    -2.517733280554    -0.027203123006     1.007825032230
         H           -0.296067457332     2.498090719446    -0.027192123006     1.007825032230
         H            3.166167542668    -0.009831280554     1.290071876994     1.007825032230
         H            3.856677542668    -0.009817280554    -0.386965123006     1.007825032230
         H           -2.644257457332    -2.551427280554     0.026306876994     1.007825032230
         H           -3.404767457332    -1.241107280554     0.939377876994     1.007825032230
         H           -3.455505457332    -1.228542280554    -0.822708123006     1.007825032230
         H           -3.404755457332     1.221508719446     0.939388876994     1.007825032230
         H           -2.644260457332     2.531783719446     0.026239876994     1.007825032230
         H           -3.455517457332     1.208852719446    -0.822697123006     1.007825032230

  Basis Set: AUG-CC-PVTZ
    Blend: AUG-CC-PVTZ
  Basis Set: (AUG-CC-PVTZ AUX)
    Blend: AUG-CC-PVTZ-JKFIT
	 Reference Energy          =    -496.4825364312729903 [Eh]
	 Singles Energy            =      -0.0000000000000000 [Eh]
	 Same-Spin Energy          =      -0.5245978146444057 [Eh]
	 Opposite-Spin Energy      =      -1.6349179438024199 [Eh]
	 Correlation Energy        =      -2.1595157584468256 [Eh]
	 Total Energy              =    -498.6420521897198341 [Eh]

	 ================> DF-SCS-MP2 Energies <==================
	-----------------------------------------------------------
	 SCS Same-Spin Scale       =       0.3333333333333333 [-]
	 SCS Opposite-Spin Scale   =       1.2000000000000000 [-]
	 SCS Same-Spin Energy      =      -0.1748659382148019 [Eh]
	 SCS Opposite-Spin Energy  =      -1.9619015325629039 [Eh]
	 SCS Correlation Energy    =      -2.1367674707777056 [Eh]
	 SCS Total Energy          =    -498.6193039020507172 [Eh]
	-----------------------------------------------------------

  Dipole Moment: [D]
     X:    -0.5512      Y:     0.0032      Z:     0.5486     Total:     0.7777

*** Psi4 exiting successfully. Buy a developer a beer!
