                               Psi4 1.4a3.dev225

  ==> Input File <==

--------------------------------------------------------------------------
#psi4
#
memory 32 gb

molecule  {
0 1
  O        2.2381840    -1.1587810    -0.1175950
  O        2.2381840     1.1587830    -0.1175780
  C       -1.4506090    -0.7058110    -0.0005310
  C       -1.4506100     0.7058110    -0.0005190
  C        0.9370840    -0.6945160    -0.0405820
  C        0.9370830     0.6945180    -0.0405590
  C       -0.2384000    -1.4209720    -0.0261700
  C       -0.2384020     1.4209720    -0.0261890
  C        3.0186620    -0.0000010     0.2058680
  C       -2.7532520    -1.4635880     0.0322900
  C       -2.7532530     1.4635870     0.0322790
  H       -0.2243070    -2.5079120    -0.0340590
  H       -0.2243080     2.5079120    -0.0340480
  H        3.2379270    -0.0000100     1.2832160
  H        3.9284370     0.0000040    -0.3938210
  H       -2.5724980    -2.5416060     0.0194510
  H       -3.2800948    -1.2524878     0.8503595
  H       -3.3837460    -1.2187210    -0.8295640
  H       -3.3329960     1.2313300     0.9325330
  H       -2.5725010     2.5416050     0.0193840
  H       -3.3837580     1.2186740    -0.8295530
units angstrom
no_reorient  #important for SAPT in psi4, default
symmetry c1  #important for SAPT in psi4, default
}

set PROPERTIES_ORIGIN ["COM"]
properties('MP2/aug-cc-pvtz', properties = ['dipole'])
--------------------------------------------------------------------------

    Molecular point group: c1
  Charge       = 0
  Multiplicity = 1
  Basis Set: AUG-CC-PVTZ
    Blend: AUG-CC-PVTZ
  Basis Set: (AUG-CC-PVTZ AUX)
    Blend: AUG-CC-PVTZ-JKFIT

    Orbital Energies [Eh]
    ---------------------

    Doubly Occupied:

       1A    -20.595844     2A    -20.595796     3A    -11.352108
       4A    -11.291767     5A    -11.290494     6A    -11.241819
       7A    -11.240667     8A    -11.238041     9A    -11.237720
      10A    -11.225471    11A    -11.212970    12A     -1.466922
      13A     -1.364406    14A     -1.158404    15A     -1.054688
      16A     -1.038980    17A     -0.957167    18A     -0.944371
      19A     -0.883834    20A     -0.837426    21A     -0.796924
      22A     -0.716193    23A     -0.712583    24A     -0.676033
      25A     -0.648148    26A     -0.615027    27A     -0.612860
      28A     -0.600363    29A     -0.573831    30A     -0.568766
      31A     -0.558060    32A     -0.540894    33A     -0.535503
      34A     -0.533739    35A     -0.530090    36A     -0.501504
      37A     -0.490845    38A     -0.442038    39A     -0.334207
      40A     -0.293158

  @DF-RHF Final Energy:  -496.50845847743057

   => Energetics <=

    Nuclear Repulsion Energy =            601.7553504051161326
    One-Electron Energy =               -1869.5082976708858951
    Two-Electron Energy =                 771.2444887883391402
    Total Energy =                       -496.5084584774306222
  Basis Set: (AUG-CC-PVTZ AUX)
    Blend: AUG-CC-PVTZ-RI
    Molecular point group: c1

    Geometry (in Angstrom), charge = 0, multiplicity = 1:

       Center              X                  Y                   Z               Mass
    ------------   -----------------  -----------------  -----------------  -----------------
         O            2.159562893938    -1.158638759270    -0.110002908986    15.994914619570
         O            2.159562893938     1.158925240730    -0.109985908986    15.994914619570
         C           -1.529230106062    -0.705668759270     0.007061091014    12.000000000000
         C           -1.529231106062     0.705953240730     0.007073091014    12.000000000000
         C            0.858462893938    -0.694373759270    -0.032989908986    12.000000000000
         C            0.858461893938     0.694660240730    -0.032966908986    12.000000000000
         C           -0.317021106062    -1.420829759270    -0.018577908986    12.000000000000
         C           -0.317023106062     1.421114240730    -0.018596908986    12.000000000000
         C            2.940040893938     0.000141240730     0.213460091014    12.000000000000
         C           -2.831873106062    -1.463445759270     0.039882091014    12.000000000000
         C           -2.831874106062     1.463729240730     0.039871091014    12.000000000000
         H           -0.302928106062    -2.507769759270    -0.026466908986     1.007825032230
         H           -0.302929106062     2.508054240730    -0.026455908986     1.007825032230
         H            3.159305893938     0.000132240730     1.290808091014     1.007825032230
         H            3.849815893938     0.000146240730    -0.386228908986     1.007825032230
         H           -2.651119106062    -2.541463759270     0.027043091014     1.007825032230
         H           -3.358715906062    -1.252345559270     0.857951591014     1.007825032230
         H           -3.462367106062    -1.218578759270    -0.821971908986     1.007825032230
         H           -3.411617106062     1.231472240730     0.940125091014     1.007825032230
         H           -2.651122106062     2.541747240730     0.026976091014     1.007825032230
         H           -3.462379106062     1.218816240730    -0.821960908986     1.007825032230

  Basis Set: AUG-CC-PVTZ
    Blend: AUG-CC-PVTZ
  Basis Set: (AUG-CC-PVTZ AUX)
    Blend: AUG-CC-PVTZ-JKFIT
	 Reference Energy          =    -496.5084584774305654 [Eh]
	 Singles Energy            =      -0.0000000000000000 [Eh]
	 Same-Spin Energy          =      -0.5240174788201427 [Eh]
	 Opposite-Spin Energy      =      -1.6317265853831389 [Eh]
	 Correlation Energy        =      -2.1557440642032817 [Eh]
	 Total Energy              =    -498.6642025416338697 [Eh]

	 ================> DF-SCS-MP2 Energies <==================
	-----------------------------------------------------------
	 SCS Same-Spin Scale       =       0.3333333333333333 [-]
	 SCS Opposite-Spin Scale   =       1.2000000000000000 [-]
	 SCS Same-Spin Energy      =      -0.1746724929400476 [Eh]
	 SCS Opposite-Spin Energy  =      -1.9580719024597666 [Eh]
	 SCS Correlation Energy    =      -2.1327443953998140 [Eh]
	 SCS Total Energy          =    -498.6412028728303767 [Eh]
	-----------------------------------------------------------

  Dipole Moment: [D]
     X:    -0.6149      Y:    -0.0057      Z:     0.5934     Total:     0.8545

*** Psi4 exiting successfully. Buy a developer a beer!
