                               Psi4 1.4a3.dev225

  ==> Input File <==

--------------------------------------------------------------------------
#psi4
#
memory 32 gb

molecule  {
0 1
  O        2.2381840    -1.1587810    -0.1175950
  O        2.2536903     1.1130722    -0.1160268
  C       -1.4506090    -0.7058110    -0.0005310
  C       -1.4506100     0.7058110    -0.0005190
  C        0.9370840    -0.6945160    -0.0405820
  C        0.9370830     0.6945180    -0.0405590
  C       -0.2384000    -1.4209720    -0.0261700
  C       -0.2384020     1.4209720    -0.0261890
  C        3.0186620    -0.0000010     0.2058680
  C       -2.7532520    -1.4635880     0.0322900
  C       -2.7532530     1.4635870     0.0322790
  H       -0.2243070    -2.5079120    -0.0340590
  H       -0.2243080     2.5079120    -0.0340480
  H        3.2379270    -0.0000100     1.2832160
  H        3.9284370     0.0000040    -0.3938210
  H       -2.5724980    -2.5416060     0.0194510
  H       -3.3330080    -1.2312860     0.9325220
  H       -3.3837460    -1.2187210    -0.8295640
  H       -3.3329960     1.2313300     0.9325330
  H       -2.5725010     2.5416050     0.0193840
  H       -3.3837580     1.2186740    -0.8295530
units angstrom
no_reorient  #important for SAPT in psi4, default
symmetry c1  #important for SAPT in psi4, default
}

set PROPERTIES_ORIGIN ["COM"]
properties('MP2/aug-cc-pvtz', properties = ['dipole'])
--------------------------------------------------------------------------

    Molecular point group: c1
  Charge       = 0
  Multiplicity = 1
  Basis Set: AUG-CC-PVTZ
    Blend: AUG-CC-PVTZ
  Basis Set: (AUG-CC-PVTZ AUX)
    Blend: AUG-CC-PVTZ-JKFIT

    Orbital Energies [Eh]
    ---------------------

    Doubly Occupied:

       1A    -20.594765     2A    -20.592991     3A    -11.347913
       4A    -11.293176     5A    -11.290884     6A    -11.242915
       7A    -11.241847     8A    -11.240332     9A    -11.237989
      10A    -11.225815    11A    -11.225624    12A     -1.476889
      13A     -1.366132    14A     -1.159749    15A     -1.055642
      16A     -1.039019    17A     -0.953258    18A     -0.944922
      19A     -0.879683    20A     -0.837820    21A     -0.798716
      22A     -0.719967    23A     -0.716284    24A     -0.679480
      25A     -0.647696    26A     -0.617288    27A     -0.614683
      28A     -0.595797    29A     -0.573623    30A     -0.565057
      31A     -0.551845    32A     -0.541133    33A     -0.534254
      34A     -0.532485    35A     -0.528928    36A     -0.501757
      37A     -0.491050    38A     -0.440567    39A     -0.335217
      40A     -0.293225

  @DF-RHF Final Energy:  -496.51508066087132

   => Energetics <=

    Nuclear Repulsion Energy =            602.2949477811577026
    One-Electron Energy =               -1870.5672202102471147
    Two-Electron Energy =                 771.7571917682180356
    Total Energy =                       -496.5150806608712628
  Basis Set: (AUG-CC-PVTZ AUX)
    Blend: AUG-CC-PVTZ-RI
    Molecular point group: c1

    Geometry (in Angstrom), charge = 0, multiplicity = 1:

       Center              X                  Y                   Z               Mass
    ------------   -----------------  -----------------  -----------------  -----------------
         O            2.158265518123    -1.153909088307    -0.110720028416    15.994914619570
         O            2.173771818123     1.117944111693    -0.109151828416    15.994914619570
         C           -1.530527481877    -0.700939088307     0.006343971584    12.000000000000
         C           -1.530528481877     0.710682911693     0.006355971584    12.000000000000
         C            0.857165518123    -0.689644088307    -0.033707028416    12.000000000000
         C            0.857164518123     0.699389911693    -0.033684028416    12.000000000000
         C           -0.318318481877    -1.416100088307    -0.019295028416    12.000000000000
         C           -0.318320481877     1.425843911693    -0.019314028416    12.000000000000
         C            2.938743518123     0.004870911693     0.212742971584    12.000000000000
         C           -2.833170481877    -1.458716088307     0.039164971584    12.000000000000
         C           -2.833171481877     1.468458911693     0.039153971584    12.000000000000
         H           -0.304225481877    -2.503040088307    -0.027184028416     1.007825032230
         H           -0.304226481877     2.512783911693    -0.027173028416     1.007825032230
         H            3.158008518123     0.004861911693     1.290090971584     1.007825032230
         H            3.848518518123     0.004875911693    -0.386946028416     1.007825032230
         H           -2.652416481877    -2.536734088307     0.026325971584     1.007825032230
         H           -3.412926481877    -1.226414088307     0.939396971584     1.007825032230
         H           -3.463664481877    -1.213849088307    -0.822689028416     1.007825032230
         H           -3.412914481877     1.236201911693     0.939407971584     1.007825032230
         H           -2.652419481877     2.546476911693     0.026258971584     1.007825032230
         H           -3.463676481877     1.223545911693    -0.822678028416     1.007825032230

  Basis Set: AUG-CC-PVTZ
    Blend: AUG-CC-PVTZ
  Basis Set: (AUG-CC-PVTZ AUX)
    Blend: AUG-CC-PVTZ-JKFIT
	 Reference Energy          =    -496.5150806608713197 [Eh]
	 Singles Energy            =      -0.0000000000000000 [Eh]
	 Same-Spin Energy          =      -0.5237743559339738 [Eh]
	 Opposite-Spin Energy      =      -1.6309282054175138 [Eh]
	 Correlation Energy        =      -2.1547025613514874 [Eh]
	 Total Energy              =    -498.6697832222228044 [Eh]

	 ================> DF-SCS-MP2 Energies <==================
	-----------------------------------------------------------
	 SCS Same-Spin Scale       =       0.3333333333333333 [-]
	 SCS Opposite-Spin Scale   =       1.2000000000000000 [-]
	 SCS Same-Spin Energy      =      -0.1745914519779913 [Eh]
	 SCS Opposite-Spin Energy  =      -1.9571138465010165 [Eh]
	 SCS Correlation Energy    =      -2.1317052984790079 [Eh]
	 SCS Total Energy          =    -498.6467859593503249 [Eh]
	-----------------------------------------------------------

  Dipole Moment: [D]
     X:    -0.6643      Y:     0.1128      Z:     0.5356     Total:     0.8607

*** Psi4 exiting successfully. Buy a developer a beer!
