                               Psi4 1.4a3.dev225

  ==> Input File <==

--------------------------------------------------------------------------
#psi4
#
memory 32 gb

molecule  {
0 1
  O        2.2381840    -1.1587810    -0.1175950
  O        2.2381840     1.1587830    -0.1175780
  C       -1.4506090    -0.7058110    -0.0005310
  C       -1.4506100     0.7058110    -0.0005190
  C        0.9370840    -0.6945160    -0.0405820
  C        0.8401962     0.6911343    -0.0393702
  C       -0.2384000    -1.4209720    -0.0261700
  C       -0.2384020     1.4209720    -0.0261890
  C        3.0186620    -0.0000010     0.2058680
  C       -2.7532520    -1.4635880     0.0322900
  C       -2.7532530     1.4635870     0.0322790
  H       -0.2243070    -2.5079120    -0.0340590
  H       -0.2243080     2.5079120    -0.0340480
  H        3.2379270    -0.0000100     1.2832160
  H        3.9284370     0.0000040    -0.3938210
  H       -2.5724980    -2.5416060     0.0194510
  H       -3.3330080    -1.2312860     0.9325220
  H       -3.3837460    -1.2187210    -0.8295640
  H       -3.3329960     1.2313300     0.9325330
  H       -2.5725010     2.5416050     0.0193840
  H       -3.3837580     1.2186740    -0.8295530
units angstrom
no_reorient  #important for SAPT in psi4, default
symmetry c1  #important for SAPT in psi4, default
}

set PROPERTIES_ORIGIN ["COM"]
properties('MP2/aug-cc-pvtz', properties = ['dipole'])
--------------------------------------------------------------------------

    Molecular point group: c1
  Charge       = 0
  Multiplicity = 1
  Basis Set: AUG-CC-PVTZ
    Blend: AUG-CC-PVTZ
  Basis Set: (AUG-CC-PVTZ AUX)
    Blend: AUG-CC-PVTZ-JKFIT

    Orbital Energies [Eh]
    ---------------------

    Doubly Occupied:

       1A    -20.598265     2A    -20.582809     3A    -11.346340
       4A    -11.296794     5A    -11.287666     6A    -11.244702
       7A    -11.243265     8A    -11.239397     9A    -11.233961
      10A    -11.227222    11A    -11.226974    12A     -1.450804
      13A     -1.342007    14A     -1.170755    15A     -1.058030
      16A     -1.046939    17A     -0.960780    18A     -0.937653
      19A     -0.877868    20A     -0.839641    21A     -0.791401
      22A     -0.713524    23A     -0.705788    24A     -0.670429
      25A     -0.647679    26A     -0.625695    27A     -0.610054
      28A     -0.597988    29A     -0.564747    30A     -0.558190
      31A     -0.552974    32A     -0.542441    33A     -0.538081
      34A     -0.529231    35A     -0.522038    36A     -0.503532
      37A     -0.490017    38A     -0.442834    39A     -0.345840
      40A     -0.297944

  @DF-RHF Final Energy:  -496.50117236926587

   => Energetics <=

    Nuclear Repulsion Energy =            601.3735311427101351
    One-Electron Energy =               -1868.8248088436976104
    Two-Electron Energy =                 770.9501053317216019
    Total Energy =                       -496.5011723692658734
  Basis Set: (AUG-CC-PVTZ AUX)
    Blend: AUG-CC-PVTZ-RI
    Molecular point group: c1

    Geometry (in Angstrom), charge = 0, multiplicity = 1:

       Center              X                  Y                   Z               Mass
    ------------   -----------------  -----------------  -----------------  -----------------
         O            2.167665675363    -1.158510572814    -0.110649755567    15.994914619570
         O            2.167665675363     1.159053427186    -0.110632755567    15.994914619570
         C           -1.521127324637    -0.705540572814     0.006414244433    12.000000000000
         C           -1.521128324637     0.706081427186     0.006426244433    12.000000000000
         C            0.866565675363    -0.694245572814    -0.033636755567    12.000000000000
         C            0.769677875363     0.691404727186    -0.032424955567    12.000000000000
         C           -0.308918324637    -1.420701572814    -0.019224755567    12.000000000000
         C           -0.308920324637     1.421242427186    -0.019243755567    12.000000000000
         C            2.948143675363     0.000269427186     0.212813244433    12.000000000000
         C           -2.823770324637    -1.463317572814     0.039235244433    12.000000000000
         C           -2.823771324637     1.463857427186     0.039224244433    12.000000000000
         H           -0.294825324637    -2.507641572814    -0.027113755567     1.007825032230
         H           -0.294826324637     2.508182427186    -0.027102755567     1.007825032230
         H            3.167408675363     0.000260427186     1.290161244433     1.007825032230
         H            3.857918675363     0.000274427186    -0.386875755567     1.007825032230
         H           -2.643016324637    -2.541335572814     0.026396244433     1.007825032230
         H           -3.403526324637    -1.231015572814     0.939467244433     1.007825032230
         H           -3.454264324637    -1.218450572814    -0.822618755567     1.007825032230
         H           -3.403514324637     1.231600427186     0.939478244433     1.007825032230
         H           -2.643019324637     2.541875427186     0.026329244433     1.007825032230
         H           -3.454276324637     1.218944427186    -0.822607755567     1.007825032230

  Basis Set: AUG-CC-PVTZ
    Blend: AUG-CC-PVTZ
  Basis Set: (AUG-CC-PVTZ AUX)
    Blend: AUG-CC-PVTZ-JKFIT
	 Reference Energy          =    -496.5011723692658734 [Eh]
	 Singles Energy            =      -0.0000000000000000 [Eh]
	 Same-Spin Energy          =      -0.5241581317628763 [Eh]
	 Opposite-Spin Energy      =      -1.6335055286456119 [Eh]
	 Correlation Energy        =      -2.1576636604084882 [Eh]
	 Total Energy              =    -498.6588360296743758 [Eh]

	 ================> DF-SCS-MP2 Energies <==================
	-----------------------------------------------------------
	 SCS Same-Spin Scale       =       0.3333333333333333 [-]
	 SCS Opposite-Spin Scale   =       1.2000000000000000 [-]
	 SCS Same-Spin Energy      =      -0.1747193772542921 [Eh]
	 SCS Opposite-Spin Energy  =      -1.9602066343747342 [Eh]
	 SCS Correlation Energy    =      -2.1349260116290263 [Eh]
	 SCS Total Energy          =    -498.6360983808949072 [Eh]
	-----------------------------------------------------------

  Dipole Moment: [D]
     X:    -1.0416      Y:    -0.0721      Z:     0.5833     Total:     1.1960

*** Psi4 exiting successfully. Buy a developer a beer!
