                               Psi4 1.4a3.dev225

  ==> Input File <==

--------------------------------------------------------------------------
#psi4
#
memory 32 gb

molecule  {
0 1
  O        2.2375953    -1.1439584    -0.1654022
  O        2.2381840     1.1587830    -0.1175780
  C       -1.4506090    -0.7058110    -0.0005310
  C       -1.4506100     0.7058110    -0.0005190
  C        0.9370840    -0.6945160    -0.0405820
  C        0.9370830     0.6945180    -0.0405590
  C       -0.2384000    -1.4209720    -0.0261700
  C       -0.2384020     1.4209720    -0.0261890
  C        3.0186620    -0.0000010     0.2058680
  C       -2.7532520    -1.4635880     0.0322900
  C       -2.7532530     1.4635870     0.0322790
  H       -0.2243070    -2.5079120    -0.0340590
  H       -0.2243080     2.5079120    -0.0340480
  H        3.2379270    -0.0000100     1.2832160
  H        3.9284370     0.0000040    -0.3938210
  H       -2.5724980    -2.5416060     0.0194510
  H       -3.3330080    -1.2312860     0.9325220
  H       -3.3837460    -1.2187210    -0.8295640
  H       -3.3329960     1.2313300     0.9325330
  H       -2.5725010     2.5416050     0.0193840
  H       -3.3837580     1.2186740    -0.8295530
units angstrom
no_reorient  #important for SAPT in psi4, default
symmetry c1  #important for SAPT in psi4, default
}

set PROPERTIES_ORIGIN ["COM"]
properties('MP2/aug-cc-pvtz', properties = ['dipole'])
--------------------------------------------------------------------------

    Molecular point group: c1
  Charge       = 0
  Multiplicity = 1
  Basis Set: AUG-CC-PVTZ
    Blend: AUG-CC-PVTZ
  Basis Set: (AUG-CC-PVTZ AUX)
    Blend: AUG-CC-PVTZ-JKFIT

    Orbital Energies [Eh]
    ---------------------

    Doubly Occupied:

       1A    -20.595971     2A    -20.595333     3A    -11.352683
       4A    -11.291575     5A    -11.290280     6A    -11.242301
       7A    -11.241188     8A    -11.238475     9A    -11.237987
      10A    -11.225299    11A    -11.225271    12A     -1.468023
      13A     -1.363785    14A     -1.158388    15A     -1.053230
      16A     -1.038208    17A     -0.952202    18A     -0.943290
      19A     -0.882276    20A     -0.836947    21A     -0.795052
      22A     -0.716603    23A     -0.713523    24A     -0.675009
      25A     -0.647311    26A     -0.614974    27A     -0.612429
      28A     -0.595267    29A     -0.574703    30A     -0.566115
      31A     -0.551461    32A     -0.540753    33A     -0.533582
      34A     -0.532344    35A     -0.529729    36A     -0.500476
      37A     -0.490892    38A     -0.442612    39A     -0.334358
      40A     -0.293359

  @DF-RHF Final Energy:  -496.51397351565549

   => Energetics <=

    Nuclear Repulsion Energy =            601.4598047138273387
    One-Electron Energy =               -1868.9610264103437203
    Two-Electron Energy =                 770.9872481808610019
    Total Energy =                       -496.5139735156554934
  Basis Set: (AUG-CC-PVTZ AUX)
    Blend: AUG-CC-PVTZ-RI
    Molecular point group: c1

    Geometry (in Angstrom), charge = 0, multiplicity = 1:

       Center              X                  Y                   Z               Mass
    ------------   -----------------  -----------------  -----------------  -----------------
         O            2.159392293870    -1.145538403780    -0.153266393494    15.994914619570
         O            2.159980993870     1.157202996220    -0.105442193494    15.994914619570
         C           -1.528812006130    -0.707391003780     0.011604806506    12.000000000000
         C           -1.528813006130     0.704230996220     0.011616806506    12.000000000000
         C            0.858880993870    -0.696096003780    -0.028446193494    12.000000000000
         C            0.858879993870     0.692937996220    -0.028423193494    12.000000000000
         C           -0.316603006130    -1.422552003780    -0.014034193494    12.000000000000
         C           -0.316605006130     1.419391996220    -0.014053193494    12.000000000000
         C            2.940458993870    -0.001581003780     0.218003806506    12.000000000000
         C           -2.831455006130    -1.465168003780     0.044425806506    12.000000000000
         C           -2.831456006130     1.462006996220     0.044414806506    12.000000000000
         H           -0.302510006130    -2.509492003780    -0.021923193494     1.007825032230
         H           -0.302511006130     2.506331996220    -0.021912193494     1.007825032230
         H            3.159723993870    -0.001590003780     1.295351806506     1.007825032230
         H            3.850233993870    -0.001576003780    -0.381685193494     1.007825032230
         H           -2.650701006130    -2.543186003780     0.031586806506     1.007825032230
         H           -3.411211006130    -1.232866003780     0.944657806506     1.007825032230
         H           -3.461949006130    -1.220301003780    -0.817428193494     1.007825032230
         H           -3.411199006130     1.229749996220     0.944668806506     1.007825032230
         H           -2.650704006130     2.540024996220     0.031519806506     1.007825032230
         H           -3.461961006130     1.217093996220    -0.817417193494     1.007825032230

  Basis Set: AUG-CC-PVTZ
    Blend: AUG-CC-PVTZ
  Basis Set: (AUG-CC-PVTZ AUX)
    Blend: AUG-CC-PVTZ-JKFIT
	 Reference Energy          =    -496.5139735156554934 [Eh]
	 Singles Energy            =      -0.0000000000000000 [Eh]
	 Same-Spin Energy          =      -0.5241025773250307 [Eh]
	 Opposite-Spin Energy      =      -1.6322435280813175 [Eh]
	 Correlation Energy        =      -2.1563461054063482 [Eh]
	 Total Energy              =    -498.6703196210618216 [Eh]

	 ================> DF-SCS-MP2 Energies <==================
	-----------------------------------------------------------
	 SCS Same-Spin Scale       =       0.3333333333333333 [-]
	 SCS Opposite-Spin Scale   =       1.2000000000000000 [-]
	 SCS Same-Spin Energy      =      -0.1747008591083436 [Eh]
	 SCS Opposite-Spin Energy  =      -1.9586922336975809 [Eh]
	 SCS Correlation Energy    =      -2.1333930928059246 [Eh]
	 SCS Total Energy          =    -498.6473666084614251 [Eh]
	-----------------------------------------------------------

  Dipole Moment: [D]
     X:    -0.5658      Y:    -0.0159      Z:     0.6200     Total:     0.8395

*** Psi4 exiting successfully. Buy a developer a beer!
