                               Psi4 1.4a3.dev225

  ==> Input File <==

--------------------------------------------------------------------------
#psi4
#
memory 32 gb

molecule  {
0 1
  O        2.2388350    -1.1656639    -0.0935400
  O        2.2381840     1.1587830    -0.1175780
  C       -1.4506090    -0.7058110    -0.0005310
  C       -1.4506100     0.7058110    -0.0005190
  C        0.9370840    -0.6945160    -0.0405820
  C        0.9370830     0.6945180    -0.0405590
  C       -0.2384000    -1.4209720    -0.0261700
  C       -0.2384020     1.4209720    -0.0261890
  C        3.0186620    -0.0000010     0.2058680
  C       -2.7532520    -1.4635880     0.0322900
  C       -2.7532530     1.4635870     0.0322790
  H       -0.2243070    -2.5079120    -0.0340590
  H       -0.2243080     2.5079120    -0.0340480
  H        3.2379270    -0.0000100     1.2832160
  H        3.9284370     0.0000040    -0.3938210
  H       -2.5724980    -2.5416060     0.0194510
  H       -3.3330080    -1.2312860     0.9325220
  H       -3.3837460    -1.2187210    -0.8295640
  H       -3.3329960     1.2313300     0.9325330
  H       -2.5725010     2.5416050     0.0193840
  H       -3.3837580     1.2186740    -0.8295530
units angstrom
no_reorient  #important for SAPT in psi4, default
symmetry c1  #important for SAPT in psi4, default
}

set PROPERTIES_ORIGIN ["COM"]
properties('MP2/aug-cc-pvtz', properties = ['dipole'])
--------------------------------------------------------------------------

    Molecular point group: c1
  Charge       = 0
  Multiplicity = 1
  Basis Set: AUG-CC-PVTZ
    Blend: AUG-CC-PVTZ
  Basis Set: (AUG-CC-PVTZ AUX)
    Blend: AUG-CC-PVTZ-JKFIT

    Orbital Energies [Eh]
    ---------------------

    Doubly Occupied:

       1A    -20.596440     2A    -20.596110     3A    -11.352076
       4A    -11.292434     5A    -11.291161     6A    -11.242370
       7A    -11.241271     8A    -11.238433     9A    -11.238252
      10A    -11.225358    11A    -11.225350    12A     -1.466634
      13A     -1.364925    14A     -1.158587    15A     -1.053284
      16A     -1.038414    17A     -0.952455    18A     -0.942721
      19A     -0.882578    20A     -0.837031    21A     -0.795794
      22A     -0.715955    23A     -0.712225    24A     -0.674970
      25A     -0.648589    26A     -0.615152    27A     -0.610636
      28A     -0.595419    29A     -0.573709    30A     -0.565783
      31A     -0.551567    32A     -0.541202    33A     -0.536208
      34A     -0.533321    35A     -0.530659    36A     -0.500959
      37A     -0.491509    38A     -0.441253    39A     -0.334437
      40A     -0.293214

  @DF-RHF Final Energy:  -496.51419623752918

   => Energetics <=

    Nuclear Repulsion Energy =            601.1824628855147239
    One-Electron Energy =               -1868.3964200348425493
    Two-Electron Energy =                 770.6997609117986485
    Total Energy =                       -496.5141962375291769
  Basis Set: (AUG-CC-PVTZ AUX)
    Blend: AUG-CC-PVTZ-RI
    Molecular point group: c1

    Geometry (in Angstrom), charge = 0, multiplicity = 1:

       Center              X                  Y                   Z               Mass
    ------------   -----------------  -----------------  -----------------  -----------------
         O            2.160499861202    -1.164930436318    -0.089063582197    15.994914619570
         O            2.159848861202     1.159516463682    -0.113101582197    15.994914619570
         C           -1.528944138798    -0.705077536318     0.003945417803    12.000000000000
         C           -1.528945138798     0.706544463682     0.003957417803    12.000000000000
         C            0.858748861202    -0.693782536318    -0.036105582197    12.000000000000
         C            0.858747861202     0.695251463682    -0.036082582197    12.000000000000
         C           -0.316735138798    -1.420238536318    -0.021693582197    12.000000000000
         C           -0.316737138798     1.421705463682    -0.021712582197    12.000000000000
         C            2.940326861202     0.000732463682     0.210344417803    12.000000000000
         C           -2.831587138798    -1.462854536318     0.036766417803    12.000000000000
         C           -2.831588138798     1.464320463682     0.036755417803    12.000000000000
         H           -0.302642138798    -2.507178536318    -0.029582582197     1.007825032230
         H           -0.302643138798     2.508645463682    -0.029571582197     1.007825032230
         H            3.159591861202     0.000723463682     1.287692417803     1.007825032230
         H            3.850101861202     0.000737463682    -0.389344582197     1.007825032230
         H           -2.650833138798    -2.540872536318     0.023927417803     1.007825032230
         H           -3.411343138798    -1.230552536318     0.936998417803     1.007825032230
         H           -3.462081138798    -1.217987536318    -0.825087582197     1.007825032230
         H           -3.411331138798     1.232063463682     0.937009417803     1.007825032230
         H           -2.650836138798     2.542338463682     0.023860417803     1.007825032230
         H           -3.462093138798     1.219407463682    -0.825076582197     1.007825032230

  Basis Set: AUG-CC-PVTZ
    Blend: AUG-CC-PVTZ
  Basis Set: (AUG-CC-PVTZ AUX)
    Blend: AUG-CC-PVTZ-JKFIT
	 Reference Energy          =    -496.5141962375291769 [Eh]
	 Singles Energy            =      -0.0000000000000000 [Eh]
	 Same-Spin Energy          =      -0.5240310905277383 [Eh]
	 Opposite-Spin Energy      =      -1.6322774615737501 [Eh]
	 Correlation Energy        =      -2.1563085521014882 [Eh]
	 Total Energy              =    -498.6705047896306837 [Eh]

	 ================> DF-SCS-MP2 Energies <==================
	-----------------------------------------------------------
	 SCS Same-Spin Scale       =       0.3333333333333333 [-]
	 SCS Opposite-Spin Scale   =       1.2000000000000000 [-]
	 SCS Same-Spin Energy      =      -0.1746770301759128 [Eh]
	 SCS Opposite-Spin Energy  =      -1.9587329538885001 [Eh]
	 SCS Correlation Energy    =      -2.1334099840644130 [Eh]
	 SCS Total Energy          =    -498.6476062215936054 [Eh]
	-----------------------------------------------------------

  Dipole Moment: [D]
     X:    -0.5780      Y:     0.0083      Z:     0.5362     Total:     0.7885

*** Psi4 exiting successfully. Buy a developer a beer!
