                               Psi4 1.4a3.dev225

  ==> Input File <==

--------------------------------------------------------------------------
#psi4
#
memory 32 gb

molecule  {
0 1
  O        2.2381840    -1.1587810    -0.1175950
  O        2.2381840     1.1587830    -0.1175780
  C       -1.4506090    -0.7058110    -0.0005310
  C       -1.4506100     0.7058110    -0.0005190
  C        0.9370840    -0.6945160    -0.0405820
  C        0.9370830     0.6945180    -0.0405590
  C       -0.2384000    -1.4209720    -0.0261700
  C       -0.2384020     1.4209720    -0.0261890
  C        3.0186620    -0.0000010     0.2058680
  C       -2.7532520    -1.4635880     0.0322900
  C       -2.7532530     1.4635870     0.0322790
  H       -0.2243070    -2.5079120    -0.0340590
  H       -0.2243080     2.5079120    -0.0340480
  H        3.2379270    -0.0000100     1.2832160
  H        3.9284370     0.0000040    -0.3938210
  H       -2.6309226    -2.5465001     0.1177100
  H       -3.3330080    -1.2312860     0.9325220
  H       -3.3837460    -1.2187210    -0.8295640
  H       -3.3329960     1.2313300     0.9325330
  H       -2.5725010     2.5416050     0.0193840
  H       -3.3837580     1.2186740    -0.8295530
units angstrom
no_reorient  #important for SAPT in psi4, default
symmetry c1  #important for SAPT in psi4, default
}

set PROPERTIES_ORIGIN ["COM"]
properties('MP2/aug-cc-pvtz', properties = ['dipole'])
--------------------------------------------------------------------------

    Molecular point group: c1
  Charge       = 0
  Multiplicity = 1
  Basis Set: AUG-CC-PVTZ
    Blend: AUG-CC-PVTZ
  Basis Set: (AUG-CC-PVTZ AUX)
    Blend: AUG-CC-PVTZ-JKFIT

    Orbital Energies [Eh]
    ---------------------

    Doubly Occupied:

       1A    -20.596136     2A    -20.596060     3A    -11.352332
       4A    -11.292144     5A    -11.290862     6A    -11.242846
       7A    -11.241701     8A    -11.238388     9A    -11.238241
      10A    -11.225189    11A    -11.225169    12A     -1.467199
      13A     -1.364680    14A     -1.158503    15A     -1.053181
      16A     -1.038026    17A     -0.952395    18A     -0.943092
      19A     -0.882754    20A     -0.837119    21A     -0.795979
      22A     -0.716067    23A     -0.712477    24A     -0.675561
      25A     -0.648930    26A     -0.614838    27A     -0.610301
      28A     -0.595771    29A     -0.574105    30A     -0.566707
      31A     -0.553417    32A     -0.539910    33A     -0.534611
      34A     -0.531025    35A     -0.529738    36A     -0.500063
      37A     -0.491863    38A     -0.441692    39A     -0.334371
      40A     -0.293344

  @DF-RHF Final Energy:  -496.51315914682601

   => Energetics <=

    Nuclear Repulsion Energy =            601.1815478459858468
    One-Electron Energy =               -1868.3958446521783117
    Two-Electron Energy =                 770.7011376593666228
    Total Energy =                       -496.5131591468259558
  Basis Set: (AUG-CC-PVTZ AUX)
    Blend: AUG-CC-PVTZ-RI
    Molecular point group: c1

    Geometry (in Angstrom), charge = 0, multiplicity = 1:

       Center              X                  Y                   Z               Mass
    ------------   -----------------  -----------------  -----------------  -----------------
         O            2.160310614721    -1.158748278285    -0.111214581079    15.994914619570
         O            2.160310614721     1.158815721715    -0.111197581079    15.994914619570
         C           -1.528482385279    -0.705778278285     0.005849418921    12.000000000000
         C           -1.528483385279     0.705843721715     0.005861418921    12.000000000000
         C            0.859210614721    -0.694483278285    -0.034201581079    12.000000000000
         C            0.859209614721     0.694550721715    -0.034178581079    12.000000000000
         C           -0.316273385279    -1.420939278285    -0.019789581079    12.000000000000
         C           -0.316275385279     1.421004721715    -0.019808581079    12.000000000000
         C            2.940788614721     0.000031721715     0.212248418921    12.000000000000
         C           -2.831125385279    -1.463555278285     0.038670418921    12.000000000000
         C           -2.831126385279     1.463619721715     0.038659418921    12.000000000000
         H           -0.302180385279    -2.507879278285    -0.027678581079     1.007825032230
         H           -0.302181385279     2.507944721715    -0.027667581079     1.007825032230
         H            3.160053614721     0.000022721715     1.289596418921     1.007825032230
         H            3.850563614721     0.000036721715    -0.387440581079     1.007825032230
         H           -2.708795985279    -2.546467378285     0.124090418921     1.007825032230
         H           -3.410881385279    -1.231253278285     0.938902418921     1.007825032230
         H           -3.461619385279    -1.218688278285    -0.823183581079     1.007825032230
         H           -3.410869385279     1.231362721715     0.938913418921     1.007825032230
         H           -2.650374385279     2.541637721715     0.025764418921     1.007825032230
         H           -3.461631385279     1.218706721715    -0.823172581079     1.007825032230

  Basis Set: AUG-CC-PVTZ
    Blend: AUG-CC-PVTZ
  Basis Set: (AUG-CC-PVTZ AUX)
    Blend: AUG-CC-PVTZ-JKFIT
	 Reference Energy          =    -496.5131591468260126 [Eh]
	 Singles Energy            =      -0.0000000000000000 [Eh]
	 Same-Spin Energy          =      -0.5240619434629245 [Eh]
	 Opposite-Spin Energy      =      -1.6322571114926920 [Eh]
	 Correlation Energy        =      -2.1563190549556164 [Eh]
	 Total Energy              =    -498.6694782017816010 [Eh]

	 ================> DF-SCS-MP2 Energies <==================
	-----------------------------------------------------------
	 SCS Same-Spin Scale       =       0.3333333333333333 [-]
	 SCS Opposite-Spin Scale   =       1.2000000000000000 [-]
	 SCS Same-Spin Energy      =      -0.1746873144876415 [Eh]
	 SCS Opposite-Spin Energy  =      -1.9587085337912304 [Eh]
	 SCS Correlation Energy    =      -2.1333958482788717 [Eh]
	 SCS Total Energy          =    -498.6465549951049070 [Eh]
	-----------------------------------------------------------

  Dipole Moment: [D]
     X:    -0.5800      Y:    -0.0143      Z:     0.6004     Total:     0.8349

*** Psi4 exiting successfully. Buy a developer a beer!
