                               Psi4 1.4a3.dev225

  ==> Input File <==

--------------------------------------------------------------------------
#psi4
#
memory 32 gb

molecule  {
0 1
  O        2.2381840    -1.1587810    -0.1175950
  O        2.2381840     1.1587830    -0.1175780
  C       -1.4506090    -0.7058110    -0.0005310
  C       -1.4506100     0.7058110    -0.0005190
  C        0.9370840    -0.6945160    -0.0405820
  C        0.9370830     0.6945180    -0.0405590
  C       -0.2384000    -1.4209720    -0.0261700
  C       -0.2384020     1.4209720    -0.0261890
  C        3.0186620    -0.0000010     0.2058680
  C       -2.7532520    -1.4635880     0.0322900
  C       -2.7532530     1.4635870     0.0322790
  H       -0.2243070    -2.5079120    -0.0340590
  H       -0.2243080     2.5079120    -0.0340480
  H        3.2279553    -0.0000096     1.2342204
  H        3.9284370     0.0000040    -0.3938210
  H       -2.5724980    -2.5416060     0.0194510
  H       -3.3330080    -1.2312860     0.9325220
  H       -3.3837460    -1.2187210    -0.8295640
  H       -3.3329960     1.2313300     0.9325330
  H       -2.5725010     2.5416050     0.0193840
  H       -3.3837580     1.2186740    -0.8295530
units angstrom
no_reorient  #important for SAPT in psi4, default
symmetry c1  #important for SAPT in psi4, default
}

set PROPERTIES_ORIGIN ["COM"]
properties('MP2/aug-cc-pvtz', properties = ['dipole'])
--------------------------------------------------------------------------

    Molecular point group: c1
  Charge       = 0
  Multiplicity = 1
  Basis Set: AUG-CC-PVTZ
    Blend: AUG-CC-PVTZ
  Basis Set: (AUG-CC-PVTZ AUX)
    Blend: AUG-CC-PVTZ-JKFIT

    Orbital Energies [Eh]
    ---------------------

    Doubly Occupied:

       1A    -20.595187     2A    -20.595167     3A    -11.346430
       4A    -11.291825     5A    -11.290553     6A    -11.242080
       7A    -11.240980     8A    -11.238028     9A    -11.238010
      10A    -11.225161    11A    -11.225154    12A     -1.466844
      13A     -1.364052    14A     -1.158350    15A     -1.053592
      16A     -1.038095    17A     -0.952142    18A     -0.945963
      19A     -0.884822    20A     -0.836806    21A     -0.795215
      22A     -0.720388    23A     -0.714223    24A     -0.674661
      25A     -0.648077    26A     -0.614828    27A     -0.612259
      28A     -0.595289    29A     -0.573795    30A     -0.566313
      31A     -0.551350    32A     -0.540777    33A     -0.535420
      34A     -0.534473    35A     -0.531260    36A     -0.500568
      37A     -0.491040    38A     -0.442715    39A     -0.334168
      40A     -0.292961

  @DF-RHF Final Energy:  -496.51377191151465

   => Energetics <=

    Nuclear Repulsion Energy =            601.5535820588569322
    One-Electron Energy =               -1869.1366592478586881
    Two-Electron Energy =                 771.0693052774872740
    Total Energy =                       -496.5137719115145956
  Basis Set: (AUG-CC-PVTZ AUX)
    Blend: AUG-CC-PVTZ-RI
    Molecular point group: c1

    Geometry (in Angstrom), charge = 0, multiplicity = 1:

       Center              X                  Y                   Z               Mass
    ------------   -----------------  -----------------  -----------------  -----------------
         O            2.159985215438    -1.158781148697    -0.110225650772    15.994914619570
         O            2.159985215438     1.158782851303    -0.110208650772    15.994914619570
         C           -1.528807784562    -0.705811148697     0.006838349228    12.000000000000
         C           -1.528808784562     0.705810851303     0.006850349228    12.000000000000
         C            0.858885215438    -0.694516148697    -0.033212650772    12.000000000000
         C            0.858884215438     0.694517851303    -0.033189650772    12.000000000000
         C           -0.316598784562    -1.420972148697    -0.018800650772    12.000000000000
         C           -0.316600784562     1.420971851303    -0.018819650772    12.000000000000
         C            2.940463215438    -0.000001148697     0.213237349228    12.000000000000
         C           -2.831450784562    -1.463588148697     0.039659349228    12.000000000000
         C           -2.831451784562     1.463586851303     0.039648349228    12.000000000000
         H           -0.302505784562    -2.507912148697    -0.026689650772     1.007825032230
         H           -0.302506784562     2.507911851303    -0.026678650772     1.007825032230
         H            3.149756515438    -0.000009748697     1.241589749228     1.007825032230
         H            3.850238215438     0.000003851303    -0.386451650772     1.007825032230
         H           -2.650696784562    -2.541606148697     0.026820349228     1.007825032230
         H           -3.411206784562    -1.231286148697     0.939891349228     1.007825032230
         H           -3.461944784562    -1.218721148697    -0.822194650772     1.007825032230
         H           -3.411194784562     1.231329851303     0.939902349228     1.007825032230
         H           -2.650699784562     2.541604851303     0.026753349228     1.007825032230
         H           -3.461956784562     1.218673851303    -0.822183650772     1.007825032230

  Basis Set: AUG-CC-PVTZ
    Blend: AUG-CC-PVTZ
  Basis Set: (AUG-CC-PVTZ AUX)
    Blend: AUG-CC-PVTZ-JKFIT
	 Reference Energy          =    -496.5137719115146524 [Eh]
	 Singles Energy            =      -0.0000000000000000 [Eh]
	 Same-Spin Energy          =      -0.5239160275903025 [Eh]
	 Opposite-Spin Energy      =      -1.6318228522666984 [Eh]
	 Correlation Energy        =      -2.1557388798570010 [Eh]
	 Total Energy              =    -498.6695107913716356 [Eh]

	 ================> DF-SCS-MP2 Energies <==================
	-----------------------------------------------------------
	 SCS Same-Spin Scale       =       0.3333333333333333 [-]
	 SCS Opposite-Spin Scale   =       1.2000000000000000 [-]
	 SCS Same-Spin Energy      =      -0.1746386758634342 [Eh]
	 SCS Opposite-Spin Energy  =      -1.9581874227200380 [Eh]
	 SCS Correlation Energy    =      -2.1328260985834722 [Eh]
	 SCS Total Energy          =    -498.6465980100981028 [Eh]
	-----------------------------------------------------------

  Dipole Moment: [D]
     X:    -0.5297      Y:    -0.0000      Z:     0.5999     Total:     0.8003

*** Psi4 exiting successfully. Buy a developer a beer!
