                               Psi4 1.4a3.dev225

  ==> Input File <==

--------------------------------------------------------------------------
#psi4
#
memory 32 gb

molecule  {
0 1
  O        2.2381840    -1.1587810    -0.1175950
  O        2.2381840     1.1587830    -0.1175780
  C       -1.4506090    -0.7058110    -0.0005310
  C       -1.4506100     0.7058110    -0.0005190
  C        0.9370840    -0.6945160    -0.0405820
  C        0.9370830     0.6945180    -0.0405590
  C       -0.2384000    -1.4209720    -0.0261700
  C       -0.2141916     1.3782217    -0.0268965
  C        3.0186620    -0.0000010     0.2058680
  C       -2.7532520    -1.4635880     0.0322900
  C       -2.7532530     1.4635870     0.0322790
  H       -0.2243070    -2.5079120    -0.0340590
  H       -0.2243080     2.5079120    -0.0340480
  H        3.2379270    -0.0000100     1.2832160
  H        3.9284370     0.0000040    -0.3938210
  H       -2.5724980    -2.5416060     0.0194510
  H       -3.3330080    -1.2312860     0.9325220
  H       -3.3837460    -1.2187210    -0.8295640
  H       -3.3329960     1.2313300     0.9325330
  H       -2.5725010     2.5416050     0.0193840
  H       -3.3837580     1.2186740    -0.8295530
units angstrom
no_reorient  #important for SAPT in psi4, default
symmetry c1  #important for SAPT in psi4, default
}

set PROPERTIES_ORIGIN ["COM"]
properties('MP2/aug-cc-pvtz', properties = ['dipole'])
--------------------------------------------------------------------------

    Molecular point group: c1
  Charge       = 0
  Multiplicity = 1
  Basis Set: AUG-CC-PVTZ
    Blend: AUG-CC-PVTZ
  Basis Set: (AUG-CC-PVTZ AUX)
    Blend: AUG-CC-PVTZ-JKFIT

    Orbital Energies [Eh]
    ---------------------

    Doubly Occupied:

       1A    -20.596761     2A    -20.596256     3A    -11.352674
       4A    -11.292530     5A    -11.286589     6A    -11.241921
       7A    -11.240400     8A    -11.236864     9A    -11.236485
      10A    -11.226369    11A    -11.225046    12A     -1.467674
      13A     -1.365123    14A     -1.162073    15A     -1.056157
      16A     -1.038060    17A     -0.954861    18A     -0.943668
      19A     -0.883321    20A     -0.835571    21A     -0.796783
      22A     -0.716843    23A     -0.713215    24A     -0.675936
      25A     -0.647758    26A     -0.613807    27A     -0.605434
      28A     -0.595758    29A     -0.574572    30A     -0.566657
      31A     -0.551665    32A     -0.540710    33A     -0.535368
      34A     -0.534395    35A     -0.533097    36A     -0.503989
      37A     -0.484400    38A     -0.442992    39A     -0.337024
      40A     -0.294193

  @DF-RHF Final Energy:  -496.51173971782663

   => Energetics <=

    Nuclear Repulsion Energy =            602.1762178318770111
    One-Electron Energy =               -1870.3699171147700326
    Two-Electron Energy =                 771.6819595650664496
    Total Energy =                       -496.5117397178265719
  Basis Set: (AUG-CC-PVTZ AUX)
    Blend: AUG-CC-PVTZ-RI
    Molecular point group: c1

    Geometry (in Angstrom), charge = 0, multiplicity = 1:

       Center              X                  Y                   Z               Mass
    ------------   -----------------  -----------------  -----------------  -----------------
         O            2.157982294299    -1.155362673532    -0.110498120389    15.994914619570
         O            2.157982294299     1.162201326468    -0.110481120389    15.994914619570
         C           -1.530810705701    -0.702392673532     0.006565879611    12.000000000000
         C           -1.530811705701     0.709229326468     0.006577879611    12.000000000000
         C            0.856882294299    -0.691097673532    -0.033485120389    12.000000000000
         C            0.856881294299     0.697936326468    -0.033462120389    12.000000000000
         C           -0.318601705701    -1.417553673532    -0.019073120389    12.000000000000
         C           -0.294393305701     1.381640026468    -0.019799620389    12.000000000000
         C            2.938460294299     0.003417326468     0.212964879611    12.000000000000
         C           -2.833453705701    -1.460169673532     0.039386879611    12.000000000000
         C           -2.833454705701     1.467005326468     0.039375879611    12.000000000000
         H           -0.304508705701    -2.504493673532    -0.026962120389     1.007825032230
         H           -0.304509705701     2.511330326468    -0.026951120389     1.007825032230
         H            3.157725294299     0.003408326468     1.290312879611     1.007825032230
         H            3.848235294299     0.003422326468    -0.386724120389     1.007825032230
         H           -2.652699705701    -2.538187673532     0.026547879611     1.007825032230
         H           -3.413209705701    -1.227867673532     0.939618879611     1.007825032230
         H           -3.463947705701    -1.215302673532    -0.822467120389     1.007825032230
         H           -3.413197705701     1.234748326468     0.939629879611     1.007825032230
         H           -2.652702705701     2.545023326468     0.026480879611     1.007825032230
         H           -3.463959705701     1.222092326468    -0.822456120389     1.007825032230

  Basis Set: AUG-CC-PVTZ
    Blend: AUG-CC-PVTZ
  Basis Set: (AUG-CC-PVTZ AUX)
    Blend: AUG-CC-PVTZ-JKFIT
	 Reference Energy          =    -496.5117397178266287 [Eh]
	 Singles Energy            =      -0.0000000000000000 [Eh]
	 Same-Spin Energy          =      -0.5239927925440480 [Eh]
	 Opposite-Spin Energy      =      -1.6320057991781005 [Eh]
	 Correlation Energy        =      -2.1559985917221485 [Eh]
	 Total Energy              =    -498.6677383095487812 [Eh]

	 ================> DF-SCS-MP2 Energies <==================
	-----------------------------------------------------------
	 SCS Same-Spin Scale       =       0.3333333333333333 [-]
	 SCS Opposite-Spin Scale   =       1.2000000000000000 [-]
	 SCS Same-Spin Energy      =      -0.1746642641813493 [Eh]
	 SCS Opposite-Spin Energy  =      -1.9584069590137205 [Eh]
	 SCS Correlation Energy    =      -2.1330712231950697 [Eh]
	 SCS Total Energy          =    -498.6448109410217171 [Eh]
	-----------------------------------------------------------

  Dipole Moment: [D]
     X:    -0.5889      Y:    -0.0174      Z:     0.5698     Total:     0.8197

*** Psi4 exiting successfully. Buy a developer a beer!
