                               Psi4 1.4a3.dev225

  ==> Input File <==

--------------------------------------------------------------------------
#psi4
#
memory 32 gb

molecule  {
0 1
  O        2.2381840    -1.1587810    -0.1175950
  O        2.2381840     1.1587830    -0.1175780
  C       -1.4506090    -0.7058110    -0.0005310
  C       -1.4506100     0.7058110    -0.0005190
  C        0.9841028    -0.7112935    -0.0433651
  C        0.9370830     0.6945180    -0.0405590
  C       -0.2384000    -1.4209720    -0.0261700
  C       -0.2384020     1.4209720    -0.0261890
  C        3.0186620    -0.0000010     0.2058680
  C       -2.7532520    -1.4635880     0.0322900
  C       -2.7532530     1.4635870     0.0322790
  H       -0.2243070    -2.5079120    -0.0340590
  H       -0.2243080     2.5079120    -0.0340480
  H        3.2379270    -0.0000100     1.2832160
  H        3.9284370     0.0000040    -0.3938210
  H       -2.5724980    -2.5416060     0.0194510
  H       -3.3330080    -1.2312860     0.9325220
  H       -3.3837460    -1.2187210    -0.8295640
  H       -3.3329960     1.2313300     0.9325330
  H       -2.5725010     2.5416050     0.0193840
  H       -3.3837580     1.2186740    -0.8295530
units angstrom
no_reorient  #important for SAPT in psi4, default
symmetry c1  #important for SAPT in psi4, default
}

set PROPERTIES_ORIGIN ["COM"]
properties('MP2/aug-cc-pvtz', properties = ['dipole'])
--------------------------------------------------------------------------

    Molecular point group: c1
  Charge       = 0
  Multiplicity = 1
  Basis Set: AUG-CC-PVTZ
    Blend: AUG-CC-PVTZ
  Basis Set: (AUG-CC-PVTZ AUX)
    Blend: AUG-CC-PVTZ-JKFIT

    Orbital Energies [Eh]
    ---------------------

    Doubly Occupied:

       1A    -20.603665     2A    -20.595799     3A    -11.356456
       4A    -11.295791     5A    -11.290503     6A    -11.240769
       7A    -11.239244     8A    -11.238506     9A    -11.237185
      10A    -11.224196    11A    -11.223828    12A     -1.480676
      13A     -1.376570    14A     -1.152574    15A     -1.050362
      16A     -1.034389    17A     -0.950269    18A     -0.945076
      19A     -0.883058    20A     -0.835036    21A     -0.799662
      22A     -0.720816    23A     -0.715536    24A     -0.680558
      25A     -0.648171    26A     -0.612238    27A     -0.610817
      28A     -0.593699    29A     -0.582517    30A     -0.567066
      31A     -0.550390    32A     -0.543860    33A     -0.538029
      34A     -0.533104    35A     -0.527354    36A     -0.500141
      37A     -0.486466    38A     -0.440510    39A     -0.330537
      40A     -0.287655

  @DF-RHF Final Energy:  -496.51117153365237

   => Energetics <=

    Nuclear Repulsion Energy =            601.1789542161950521
    One-Electron Energy =               -1868.3340969056591803
    Two-Electron Energy =                 770.6439711558117551
    Total Energy =                       -496.5111715336523730
  Basis Set: (AUG-CC-PVTZ AUX)
    Blend: AUG-CC-PVTZ-RI
    Molecular point group: c1

    Geometry (in Angstrom), charge = 0, multiplicity = 1:

       Center              X                  Y                   Z               Mass
    ------------   -----------------  -----------------  -----------------  -----------------
         O            2.156158450075    -1.157439554910    -0.110332147718    15.994914619570
         O            2.156158450075     1.160124445090    -0.110315147718    15.994914619570
         C           -1.532634549925    -0.704469554910     0.006731852282    12.000000000000
         C           -1.532635549925     0.707152445090     0.006743852282    12.000000000000
         C            0.902077250075    -0.709952054910    -0.036102247718    12.000000000000
         C            0.855057450075     0.695859445090    -0.033296147718    12.000000000000
         C           -0.320425549925    -1.419630554910    -0.018907147718    12.000000000000
         C           -0.320427549925     1.422313445090    -0.018926147718    12.000000000000
         C            2.936636450075     0.001340445090     0.213130852282    12.000000000000
         C           -2.835277549925    -1.462246554910     0.039552852282    12.000000000000
         C           -2.835278549925     1.464928445090     0.039541852282    12.000000000000
         H           -0.306332549925    -2.506570554910    -0.026796147718     1.007825032230
         H           -0.306333549925     2.509253445090    -0.026785147718     1.007825032230
         H            3.155901450075     0.001331445090     1.290478852282     1.007825032230
         H            3.846411450075     0.001345445090    -0.386558147718     1.007825032230
         H           -2.654523549925    -2.540264554910     0.026713852282     1.007825032230
         H           -3.415033549925    -1.229944554910     0.939784852282     1.007825032230
         H           -3.465771549925    -1.217379554910    -0.822301147718     1.007825032230
         H           -3.415021549925     1.232671445090     0.939795852282     1.007825032230
         H           -2.654526549925     2.542946445090     0.026646852282     1.007825032230
         H           -3.465783549925     1.220015445090    -0.822290147718     1.007825032230

  Basis Set: AUG-CC-PVTZ
    Blend: AUG-CC-PVTZ
  Basis Set: (AUG-CC-PVTZ AUX)
    Blend: AUG-CC-PVTZ-JKFIT
	 Reference Energy          =    -496.5111715336523730 [Eh]
	 Singles Energy            =      -0.0000000000000000 [Eh]
	 Same-Spin Energy          =      -0.5242816175194974 [Eh]
	 Opposite-Spin Energy      =      -1.6322349999121450 [Eh]
	 Correlation Energy        =      -2.1565166174316426 [Eh]
	 Total Energy              =    -498.6676881510840076 [Eh]

	 ================> DF-SCS-MP2 Energies <==================
	-----------------------------------------------------------
	 SCS Same-Spin Scale       =       0.3333333333333333 [-]
	 SCS Opposite-Spin Scale   =       1.2000000000000000 [-]
	 SCS Same-Spin Energy      =      -0.1747605391731658 [Eh]
	 SCS Opposite-Spin Energy  =      -1.9586819998945739 [Eh]
	 SCS Correlation Energy    =      -2.1334425390677398 [Eh]
	 SCS Total Energy          =    -498.6446140727201168 [Eh]
	-----------------------------------------------------------

  Dipole Moment: [D]
     X:    -0.2603      Y:    -0.0549      Z:     0.5520     Total:     0.6128

*** Psi4 exiting successfully. Buy a developer a beer!
