                               Psi4 1.4a3.dev225

  ==> Input File <==

--------------------------------------------------------------------------
#psi4
#
memory 32 gb

molecule  {
0 1
  O        2.2381840    -1.1587810    -0.1175950
  O        2.1826125     1.2924799    -0.1142859
  C       -1.4506090    -0.7058110    -0.0005310
  C       -1.4506100     0.7058110    -0.0005190
  C        0.9370840    -0.6945160    -0.0405820
  C        0.9370830     0.6945180    -0.0405590
  C       -0.2384000    -1.4209720    -0.0261700
  C       -0.2384020     1.4209720    -0.0261890
  C        3.0186620    -0.0000010     0.2058680
  C       -2.7532520    -1.4635880     0.0322900
  C       -2.7532530     1.4635870     0.0322790
  H       -0.2243070    -2.5079120    -0.0340590
  H       -0.2243080     2.5079120    -0.0340480
  H        3.2379270    -0.0000100     1.2832160
  H        3.9284370     0.0000040    -0.3938210
  H       -2.5724980    -2.5416060     0.0194510
  H       -3.3330080    -1.2312860     0.9325220
  H       -3.3837460    -1.2187210    -0.8295640
  H       -3.3329960     1.2313300     0.9325330
  H       -2.5725010     2.5416050     0.0193840
  H       -3.3837580     1.2186740    -0.8295530
units angstrom
no_reorient  #important for SAPT in psi4, default
symmetry c1  #important for SAPT in psi4, default
}

set PROPERTIES_ORIGIN ["COM"]
properties('MP2/aug-cc-pvtz', properties = ['dipole'])
--------------------------------------------------------------------------

    Molecular point group: c1
  Charge       = 0
  Multiplicity = 1
  Basis Set: AUG-CC-PVTZ
    Blend: AUG-CC-PVTZ
  Basis Set: (AUG-CC-PVTZ AUX)
    Blend: AUG-CC-PVTZ-JKFIT

    Orbital Energies [Eh]
    ---------------------

    Doubly Occupied:

       1A    -20.604596     2A    -20.597862     3A    -11.365490
       4A    -11.292955     5A    -11.287899     6A    -11.240744
       7A    -11.239793     8A    -11.238876     9A    -11.232354
      10A    -11.224488    11A    -11.223875    12A     -1.449653
      13A     -1.356841    14A     -1.155344    15A     -1.048567
      16A     -1.035743    17A     -0.950868    18A     -0.938929
      19A     -0.890125    20A     -0.835238    21A     -0.787058
      22A     -0.710229    23A     -0.704228    24A     -0.665151
      25A     -0.650318    26A     -0.613427    27A     -0.600131
      28A     -0.594339    29A     -0.572021    30A     -0.566639
      31A     -0.550429    32A     -0.541607    33A     -0.539009
      34A     -0.535085    35A     -0.525360    36A     -0.496730
      37A     -0.491365    38A     -0.443796    39A     -0.331939
      40A     -0.293080

  @DF-RHF Final Energy:  -496.49618527537223

   => Energetics <=

    Nuclear Repulsion Energy =            598.6631603766358012
    One-Electron Energy =               -1863.4743285343408843
    Two-Electron Energy =                 768.3149828823329699
    Total Energy =                       -496.4961852753722269
  Basis Set: (AUG-CC-PVTZ AUX)
    Blend: AUG-CC-PVTZ-RI
    Molecular point group: c1

    Geometry (in Angstrom), charge = 0, multiplicity = 1:

       Center              X                  Y                   Z               Mass
    ------------   -----------------  -----------------  -----------------  -----------------
         O            2.165841302032    -1.173031148454    -0.110905581180    15.994914619570
         O            2.110269802032     1.278229751546    -0.107596481180    15.994914619570
         C           -1.522951697968    -0.720061148454     0.006158418820    12.000000000000
         C           -1.522952697968     0.691560851546     0.006170418820    12.000000000000
         C            0.864741302032    -0.708766148454    -0.033892581180    12.000000000000
         C            0.864740302032     0.680267851546    -0.033869581180    12.000000000000
         C           -0.310742697968    -1.435222148454    -0.019480581180    12.000000000000
         C           -0.310744697968     1.406721851546    -0.019499581180    12.000000000000
         C            2.946319302032    -0.014251148454     0.212557418820    12.000000000000
         C           -2.825594697968    -1.477838148454     0.038979418820    12.000000000000
         C           -2.825595697968     1.449336851546     0.038968418820    12.000000000000
         H           -0.296649697968    -2.522162148454    -0.027369581180     1.007825032230
         H           -0.296650697968     2.493661851546    -0.027358581180     1.007825032230
         H            3.165584302032    -0.014260148454     1.289905418820     1.007825032230
         H            3.856094302032    -0.014246148454    -0.387131581180     1.007825032230
         H           -2.644840697968    -2.555856148454     0.026140418820     1.007825032230
         H           -3.405350697968    -1.245536148454     0.939211418820     1.007825032230
         H           -3.456088697968    -1.232971148454    -0.822874581180     1.007825032230
         H           -3.405338697968     1.217079851546     0.939222418820     1.007825032230
         H           -2.644843697968     2.527354851546     0.026073418820     1.007825032230
         H           -3.456100697968     1.204423851546    -0.822863581180     1.007825032230

  Basis Set: AUG-CC-PVTZ
    Blend: AUG-CC-PVTZ
  Basis Set: (AUG-CC-PVTZ AUX)
    Blend: AUG-CC-PVTZ-JKFIT
	 Reference Energy          =    -496.4961852753722269 [Eh]
	 Singles Energy            =      -0.0000000000000000 [Eh]
	 Same-Spin Energy          =      -0.5255377685695175 [Eh]
	 Opposite-Spin Energy      =      -1.6373471939677327 [Eh]
	 Correlation Energy        =      -2.1628849625372499 [Eh]
	 Total Energy              =    -498.6590702379094751 [Eh]

	 ================> DF-SCS-MP2 Energies <==================
	-----------------------------------------------------------
	 SCS Same-Spin Scale       =       0.3333333333333333 [-]
	 SCS Opposite-Spin Scale   =       1.2000000000000000 [-]
	 SCS Same-Spin Energy      =      -0.1751792561898391 [Eh]
	 SCS Opposite-Spin Energy  =      -1.9648166327612790 [Eh]
	 SCS Correlation Energy    =      -2.1399958889511184 [Eh]
	 SCS Total Energy          =    -498.6361811643233182 [Eh]
	-----------------------------------------------------------

  Dipole Moment: [D]
     X:    -0.3241      Y:    -0.3030      Z:     0.6219     Total:     0.7639

*** Psi4 exiting successfully. Buy a developer a beer!
