                               Psi4 1.4a3.dev225

  ==> Input File <==

--------------------------------------------------------------------------
#psi4
#
memory 32 gb

molecule  {
0 1
  O        2.2381840    -1.1587810    -0.1175950
  O        2.2381840     1.1587830    -0.1175780
  C       -1.4506090    -0.7058110    -0.0005310
  C       -1.4506100     0.7058110    -0.0005190
  C        0.9370840    -0.6945160    -0.0405820
  C        0.9370830     0.6945180    -0.0405590
  C       -0.2384000    -1.4209720    -0.0261700
  C       -0.2384020     1.4209720    -0.0261890
  C        3.0186620    -0.0000010     0.2058680
  C       -2.7532520    -1.4635880     0.0322900
  C       -2.7532530     1.4635870     0.0322790
  H       -0.2243070    -2.5079120    -0.0340590
  H       -0.2243080     2.5079120    -0.0340480
  H        3.2379270    -0.0000100     1.2832160
  H        3.9284370     0.0000040    -0.3938210
  H       -2.5724980    -2.5416060     0.0194510
  H       -3.3033940    -1.2428684     0.9537701
  H       -3.3837460    -1.2187210    -0.8295640
  H       -3.3329960     1.2313300     0.9325330
  H       -2.5725010     2.5416050     0.0193840
  H       -3.3837580     1.2186740    -0.8295530
units angstrom
no_reorient  #important for SAPT in psi4, default
symmetry c1  #important for SAPT in psi4, default
}

set PROPERTIES_ORIGIN ["COM"]
properties('MP2/aug-cc-pvtz', properties = ['dipole'])
--------------------------------------------------------------------------

    Molecular point group: c1
  Charge       = 0
  Multiplicity = 1
  Basis Set: AUG-CC-PVTZ
    Blend: AUG-CC-PVTZ
  Basis Set: (AUG-CC-PVTZ AUX)
    Blend: AUG-CC-PVTZ-JKFIT

    Orbital Energies [Eh]
    ---------------------

    Doubly Occupied:

       1A    -20.596035     2A    -20.596009     3A    -11.352277
       4A    -11.292026     5A    -11.290754     6A    -11.242133
       7A    -11.241029     8A    -11.238215     9A    -11.238106
      10A    -11.225336    11A    -11.225212    12A     -1.467123
      13A     -1.364606    14A     -1.158434    15A     -1.053245
      16A     -1.038307    17A     -0.952353    18A     -0.942837
      19A     -0.882342    20A     -0.836895    21A     -0.795358
      22A     -0.716027    23A     -0.712606    24A     -0.674712
      25A     -0.648122    26A     -0.614957    27A     -0.610799
      28A     -0.596936    29A     -0.574034    30A     -0.565302
      31A     -0.553410    32A     -0.540641    33A     -0.534852
      34A     -0.532813    35A     -0.530202    36A     -0.499787
      37A     -0.491208    38A     -0.441759    39A     -0.334333
      40A     -0.293181

  @DF-RHF Final Energy:  -496.51421706962327

   => Energetics <=

    Nuclear Repulsion Energy =            601.3108382630038022
    One-Electron Energy =               -1868.6614895438458461
    Two-Electron Energy =                 770.8364342112189433
    Total Energy =                       -496.5142170696232142
  Basis Set: (AUG-CC-PVTZ AUX)
    Blend: AUG-CC-PVTZ-RI
    Molecular point group: c1

    Geometry (in Angstrom), charge = 0, multiplicity = 1:

       Center              X                  Y                   Z               Mass
    ------------   -----------------  -----------------  -----------------  -----------------
         O            2.159719366368    -1.158703361097    -0.110697392393    15.994914619570
         O            2.159719366368     1.158860638903    -0.110680392393    15.994914619570
         C           -1.529073633632    -0.705733361097     0.006366607607    12.000000000000
         C           -1.529074633632     0.705888638903     0.006378607607    12.000000000000
         C            0.858619366368    -0.694438361097    -0.033684392393    12.000000000000
         C            0.858618366368     0.694595638903    -0.033661392393    12.000000000000
         C           -0.316864633632    -1.420894361097    -0.019272392393    12.000000000000
         C           -0.316866633632     1.421049638903    -0.019291392393    12.000000000000
         C            2.940197366368     0.000076638903     0.212765607607    12.000000000000
         C           -2.831716633632    -1.463510361097     0.039187607607    12.000000000000
         C           -2.831717633632     1.463664638903     0.039176607607    12.000000000000
         H           -0.302771633632    -2.507834361097    -0.027161392393     1.007825032230
         H           -0.302772633632     2.507989638903    -0.027150392393     1.007825032230
         H            3.159462366368     0.000067638903     1.290113607607     1.007825032230
         H            3.849972366368     0.000081638903    -0.386923392393     1.007825032230
         H           -2.650962633632    -2.541528361097     0.026348607607     1.007825032230
         H           -3.381858633632    -1.242790761097     0.960667707607     1.007825032230
         H           -3.462210633632    -1.218643361097    -0.822666392393     1.007825032230
         H           -3.411460633632     1.231407638903     0.939430607607     1.007825032230
         H           -2.650965633632     2.541682638903     0.026281607607     1.007825032230
         H           -3.462222633632     1.218751638903    -0.822655392393     1.007825032230

  Basis Set: AUG-CC-PVTZ
    Blend: AUG-CC-PVTZ
  Basis Set: (AUG-CC-PVTZ AUX)
    Blend: AUG-CC-PVTZ-JKFIT
	 Reference Energy          =    -496.5142170696232711 [Eh]
	 Singles Energy            =      -0.0000000000000000 [Eh]
	 Same-Spin Energy          =      -0.5240415731722110 [Eh]
	 Opposite-Spin Energy      =      -1.6322656256639934 [Eh]
	 Correlation Energy        =      -2.1563071988362044 [Eh]
	 Total Energy              =    -498.6705242684594737 [Eh]

	 ================> DF-SCS-MP2 Energies <==================
	-----------------------------------------------------------
	 SCS Same-Spin Scale       =       0.3333333333333333 [-]
	 SCS Opposite-Spin Scale   =       1.2000000000000000 [-]
	 SCS Same-Spin Energy      =      -0.1746805243907370 [Eh]
	 SCS Opposite-Spin Energy  =      -1.9587187507967920 [Eh]
	 SCS Correlation Energy    =      -2.1333992751875290 [Eh]
	 SCS Total Energy          =    -498.6476163448107854 [Eh]
	-----------------------------------------------------------

  Dipole Moment: [D]
     X:    -0.5671      Y:    -0.0095      Z:     0.5689     Total:     0.8033

*** Psi4 exiting successfully. Buy a developer a beer!
