                               Psi4 1.4a3.dev225

  ==> Input File <==

--------------------------------------------------------------------------
#psi4
#
memory 32 gb

molecule  {
0 1
  O        2.2381840    -1.1587810    -0.1175950
  O        2.2381840     1.1587830    -0.1175780
  C       -1.4506090    -0.7058110    -0.0005310
  C       -1.4506100     0.7058110    -0.0005190
  C        0.9370840    -0.6945160    -0.0405820
  C        0.9370830     0.6945180    -0.0405590
  C       -0.2384000    -1.4209720    -0.0261700
  C       -0.2384020     1.4209720    -0.0261890
  C        3.0186620    -0.0000010     0.2058680
  C       -2.7532520    -1.4635880     0.0322900
  C       -2.7532530     1.4635870     0.0322790
  H       -0.2243070    -2.5079120    -0.0340590
  H       -0.2243080     2.5079120    -0.0340480
  H        3.2379270    -0.0000100     1.2832160
  H        3.9284370     0.0000040    -0.3938210
  H       -2.5724980    -2.5416060     0.0194510
  H       -3.3330080    -1.2312860     0.9325220
  H       -3.3837460    -1.2187210    -0.8295640
  H       -3.2421791     1.2668730     0.9928816
  H       -2.5725010     2.5416050     0.0193840
  H       -3.3837580     1.2186740    -0.8295530
units angstrom
no_reorient  #important for SAPT in psi4, default
symmetry c1  #important for SAPT in psi4, default
}

set PROPERTIES_ORIGIN ["COM"]
properties('MP2/aug-cc-pvtz', properties = ['dipole'])
--------------------------------------------------------------------------

    Molecular point group: c1
  Charge       = 0
  Multiplicity = 1
  Basis Set: AUG-CC-PVTZ
    Blend: AUG-CC-PVTZ
  Basis Set: (AUG-CC-PVTZ AUX)
    Blend: AUG-CC-PVTZ-JKFIT

    Orbital Energies [Eh]
    ---------------------

    Doubly Occupied:

       1A    -20.595915     2A    -20.595842     3A    -11.352169
       4A    -11.291821     5A    -11.290544     6A    -11.241802
       7A    -11.240673     8A    -11.238091     9A    -11.237755
      10A    -11.225428    11A    -11.225012    12A     -1.466983
      13A     -1.364467    14A     -1.158316    15A     -1.053251
      16A     -1.038301    17A     -0.952409    18A     -0.942642
      19A     -0.882060    20A     -0.836702    21A     -0.794911
      22A     -0.715758    23A     -0.712366    24A     -0.674124
      25A     -0.647982    26A     -0.614748    27A     -0.609952
      28A     -0.600506    29A     -0.573919    30A     -0.564226
      31A     -0.556756    32A     -0.540102    33A     -0.534568
      34A     -0.532052    35A     -0.528985    36A     -0.497450
      37A     -0.491041    38A     -0.441784    39A     -0.334208
      40A     -0.293056

  @DF-RHF Final Energy:  -496.51313293350643

   => Energetics <=

    Nuclear Repulsion Energy =            601.3662546804024487
    One-Electron Energy =               -1868.7814215033997698
    Two-Electron Energy =                 770.9020338894910083
    Total Energy =                       -496.5131329335064265
  Basis Set: (AUG-CC-PVTZ AUX)
    Blend: AUG-CC-PVTZ-RI
    Molecular point group: c1

    Geometry (in Angstrom), charge = 0, multiplicity = 1:

       Center              X                  Y                   Z               Mass
    ------------   -----------------  -----------------  -----------------  -----------------
         O            2.159308340820    -1.159019845175    -0.110959982964    15.994914619570
         O            2.159308340820     1.158544154825    -0.110942982964    15.994914619570
         C           -1.529484659180    -0.706049845175     0.006104017036    12.000000000000
         C           -1.529485659180     0.705572154825     0.006116017036    12.000000000000
         C            0.858208340820    -0.694754845175    -0.033946982964    12.000000000000
         C            0.858207340820     0.694279154825    -0.033923982964    12.000000000000
         C           -0.317275659180    -1.421210845175    -0.019534982964    12.000000000000
         C           -0.317277659180     1.420733154825    -0.019553982964    12.000000000000
         C            2.939786340820    -0.000239845175     0.212503017036    12.000000000000
         C           -2.832127659180    -1.463826845175     0.038925017036    12.000000000000
         C           -2.832128659180     1.463348154825     0.038914017036    12.000000000000
         H           -0.303182659180    -2.508150845175    -0.027423982964     1.007825032230
         H           -0.303183659180     2.507673154825    -0.027412982964     1.007825032230
         H            3.159051340820    -0.000248845175     1.289851017036     1.007825032230
         H            3.849561340820    -0.000234845175    -0.387185982964     1.007825032230
         H           -2.651373659180    -2.541844845175     0.026086017036     1.007825032230
         H           -3.411883659180    -1.231524845175     0.939157017036     1.007825032230
         H           -3.462621659180    -1.218959845175    -0.822928982964     1.007825032230
         H           -3.321054759180     1.266634154825     0.999516617036     1.007825032230
         H           -2.651376659180     2.541366154825     0.026019017036     1.007825032230
         H           -3.462633659180     1.218435154825    -0.822917982964     1.007825032230

  Basis Set: AUG-CC-PVTZ
    Blend: AUG-CC-PVTZ
  Basis Set: (AUG-CC-PVTZ AUX)
    Blend: AUG-CC-PVTZ-JKFIT
	 Reference Energy          =    -496.5131329335064265 [Eh]
	 Singles Energy            =      -0.0000000000000000 [Eh]
	 Same-Spin Energy          =      -0.5240778788690369 [Eh]
	 Opposite-Spin Energy      =      -1.6323729969948857 [Eh]
	 Correlation Energy        =      -2.1564508758639227 [Eh]
	 Total Energy              =    -498.6695838093703514 [Eh]

	 ================> DF-SCS-MP2 Energies <==================
	-----------------------------------------------------------
	 SCS Same-Spin Scale       =       0.3333333333333333 [-]
	 SCS Opposite-Spin Scale   =       1.2000000000000000 [-]
	 SCS Same-Spin Energy      =      -0.1746926262896790 [Eh]
	 SCS Opposite-Spin Energy  =      -1.9588475963938627 [Eh]
	 SCS Correlation Energy    =      -2.1335402226835418 [Eh]
	 SCS Total Energy          =    -498.6466731561899906 [Eh]
	-----------------------------------------------------------

  Dipole Moment: [D]
     X:    -0.5622      Y:     0.0295      Z:     0.5767     Total:     0.8060

*** Psi4 exiting successfully. Buy a developer a beer!
