                               Psi4 1.4a3.dev225

  ==> Input File <==

--------------------------------------------------------------------------
#psi4
#
memory 32 gb

molecule  {
0 1
  O        2.2381840    -1.1587810    -0.1175950
  O        2.2381840     1.1587830    -0.1175780
  C       -1.4506090    -0.7058110    -0.0005310
  C       -1.4506100     0.7058110    -0.0005190
  C        0.9370840    -0.6945160    -0.0405820
  C        0.9370830     0.6945180    -0.0405590
  C       -0.2384000    -1.4209720    -0.0261700
  C       -0.2384020     1.4209720    -0.0261890
  C        3.0186620    -0.0000010     0.2058680
  C       -2.7532520    -1.4635880     0.0322900
  C       -2.7532530     1.4635870     0.0322790
  H       -0.2243070    -2.5079120    -0.0340590
  H       -0.2243080     2.5079120    -0.0340480
  H        3.2379270    -0.0000100     1.2832160
  H        3.8866905     0.0000038    -0.3663033
  H       -2.5724980    -2.5416060     0.0194510
  H       -3.3330080    -1.2312860     0.9325220
  H       -3.3837460    -1.2187210    -0.8295640
  H       -3.3329960     1.2313300     0.9325330
  H       -2.5725010     2.5416050     0.0193840
  H       -3.3837580     1.2186740    -0.8295530
units angstrom
no_reorient  #important for SAPT in psi4, default
symmetry c1  #important for SAPT in psi4, default
}

set PROPERTIES_ORIGIN ["COM"]
properties('MP2/aug-cc-pvtz', properties = ['dipole'])
--------------------------------------------------------------------------

    Molecular point group: c1
  Charge       = 0
  Multiplicity = 1
  Basis Set: AUG-CC-PVTZ
    Blend: AUG-CC-PVTZ
  Basis Set: (AUG-CC-PVTZ AUX)
    Blend: AUG-CC-PVTZ-JKFIT

    Orbital Energies [Eh]
    ---------------------

    Doubly Occupied:

       1A    -20.595597     2A    -20.595577     3A    -11.346555
       4A    -11.291871     5A    -11.290599     6A    -11.242137
       7A    -11.241037     8A    -11.238080     9A    -11.238062
      10A    -11.225193    11A    -11.225186    12A     -1.466967
      13A     -1.364258    14A     -1.158446    15A     -1.053918
      16A     -1.038147    17A     -0.952196    18A     -0.946718
      19A     -0.884207    20A     -0.837052    21A     -0.795391
      22A     -0.719573    23A     -0.712457    24A     -0.674821
      25A     -0.650947    26A     -0.614872    27A     -0.613262
      28A     -0.595452    29A     -0.573708    30A     -0.565852
      31A     -0.551385    32A     -0.540846    33A     -0.534825
      34A     -0.534800    35A     -0.531942    36A     -0.500654
      37A     -0.491126    38A     -0.442108    39A     -0.334195
      40A     -0.293043

  @DF-RHF Final Energy:  -496.51356018182457

   => Energetics <=

    Nuclear Repulsion Energy =            601.5703111544000876
    One-Electron Energy =               -1869.1616153054790175
    Two-Electron Energy =                 771.0777439692543567
    Total Energy =                       -496.5135601818245732
  Basis Set: (AUG-CC-PVTZ AUX)
    Blend: AUG-CC-PVTZ-RI
    Molecular point group: c1

    Geometry (in Angstrom), charge = 0, multiplicity = 1:

       Center              X                  Y                   Z               Mass
    ------------   -----------------  -----------------  -----------------  -----------------
         O            2.160198608179    -1.158781144668    -0.110739497682    15.994914619570
         O            2.160198608179     1.158782855332    -0.110722497682    15.994914619570
         C           -1.528594391821    -0.705811144668     0.006324502318    12.000000000000
         C           -1.528595391821     0.705810855332     0.006336502318    12.000000000000
         C            0.859098608179    -0.694516144668    -0.033726497682    12.000000000000
         C            0.859097608179     0.694517855332    -0.033703497682    12.000000000000
         C           -0.316385391821    -1.420972144668    -0.019314497682    12.000000000000
         C           -0.316387391821     1.420971855332    -0.019333497682    12.000000000000
         C            2.940676608179    -0.000001144668     0.212723502318    12.000000000000
         C           -2.831237391821    -1.463588144668     0.039145502318    12.000000000000
         C           -2.831238391821     1.463586855332     0.039134502318    12.000000000000
         H           -0.302292391821    -2.507912144668    -0.027203497682     1.007825032230
         H           -0.302293391821     2.507911855332    -0.027192497682     1.007825032230
         H            3.159941608179    -0.000010144668     1.290071502318     1.007825032230
         H            3.808705108179     0.000003655332    -0.359447797682     1.007825032230
         H           -2.650483391821    -2.541606144668     0.026306502318     1.007825032230
         H           -3.410993391821    -1.231286144668     0.939377502318     1.007825032230
         H           -3.461731391821    -1.218721144668    -0.822708497682     1.007825032230
         H           -3.410981391821     1.231329855332     0.939388502318     1.007825032230
         H           -2.650486391821     2.541604855332     0.026239502318     1.007825032230
         H           -3.461743391821     1.218673855332    -0.822697497682     1.007825032230

  Basis Set: AUG-CC-PVTZ
    Blend: AUG-CC-PVTZ
  Basis Set: (AUG-CC-PVTZ AUX)
    Blend: AUG-CC-PVTZ-JKFIT
	 Reference Energy          =    -496.5135601818245732 [Eh]
	 Singles Energy            =      -0.0000000000000000 [Eh]
	 Same-Spin Energy          =      -0.5239565930498943 [Eh]
	 Opposite-Spin Energy      =      -1.6318661624398705 [Eh]
	 Correlation Energy        =      -2.1558227554897647 [Eh]
	 Total Energy              =    -498.6693829373143103 [Eh]

	 ================> DF-SCS-MP2 Energies <==================
	-----------------------------------------------------------
	 SCS Same-Spin Scale       =       0.3333333333333333 [-]
	 SCS Opposite-Spin Scale   =       1.2000000000000000 [-]
	 SCS Same-Spin Energy      =      -0.1746521976832981 [Eh]
	 SCS Opposite-Spin Energy  =      -1.9582393949278445 [Eh]
	 SCS Correlation Energy    =      -2.1328915926111427 [Eh]
	 SCS Total Energy          =    -498.6464517744357181 [Eh]
	-----------------------------------------------------------

  Dipole Moment: [D]
     X:    -0.5447      Y:    -0.0000      Z:     0.5635     Total:     0.7837

*** Psi4 exiting successfully. Buy a developer a beer!
