                               Psi4 1.4a3.dev225

  ==> Input File <==

--------------------------------------------------------------------------
#psi4
#
memory 32 gb

molecule  {
0 1
  O        2.2381840    -1.1587810    -0.1175950
  O        2.2381840     1.1587830    -0.1175780
  C       -1.4506090    -0.7058110    -0.0005310
  C       -1.4506100     0.7058110    -0.0005190
  C        0.9370840    -0.6945160    -0.0405820
  C        0.9370830     0.6945180    -0.0405590
  C       -0.2384000    -1.4209720    -0.0261700
  C       -0.2384020     1.4209720    -0.0261890
  C        3.0186620    -0.0000010     0.2058680
  C       -2.7532520    -1.4635880     0.0322900
  C       -2.7532530     1.4635870     0.0322790
  H       -0.2243070    -2.5079120    -0.0340590
  H       -0.2217150     2.7078900    -0.0354939
  H        3.2379270    -0.0000100     1.2832160
  H        3.9284370     0.0000040    -0.3938210
  H       -2.5724980    -2.5416060     0.0194510
  H       -3.3330080    -1.2312860     0.9325220
  H       -3.3837460    -1.2187210    -0.8295640
  H       -3.3329960     1.2313300     0.9325330
  H       -2.5725010     2.5416050     0.0193840
  H       -3.3837580     1.2186740    -0.8295530
units angstrom
no_reorient  #important for SAPT in psi4, default
symmetry c1  #important for SAPT in psi4, default
}

set PROPERTIES_ORIGIN ["COM"]
properties('MP2/aug-cc-pvtz', properties = ['dipole'])
--------------------------------------------------------------------------

    Molecular point group: c1
  Charge       = 0
  Multiplicity = 1
  Basis Set: AUG-CC-PVTZ
    Blend: AUG-CC-PVTZ
  Basis Set: (AUG-CC-PVTZ AUX)
    Blend: AUG-CC-PVTZ-JKFIT

    Orbital Energies [Eh]
    ---------------------

    Doubly Occupied:

       1A    -20.596993     2A    -20.596509     3A    -11.352756
       4A    -11.294107     5A    -11.292703     6A    -11.259262
       7A    -11.244137     8A    -11.242971     9A    -11.239145
      10A    -11.226156    11A    -11.225051    12A     -1.467865
      13A     -1.365256    14A     -1.159088    15A     -1.054260
      16A     -1.035751    17A     -0.951547    18A     -0.943094
      19A     -0.882915    20A     -0.830119    21A     -0.795961
      22A     -0.715227    23A     -0.711184    24A     -0.674022
      25A     -0.645037    26A     -0.612279    27A     -0.595856
      28A     -0.589171    29A     -0.573692    30A     -0.566206
      31A     -0.551774    32A     -0.540010    33A     -0.535164
      34A     -0.532526    35A     -0.529724    36A     -0.501982
      37A     -0.481692    38A     -0.442685    39A     -0.335512
      40A     -0.294447

  @DF-RHF Final Energy:  -496.49186180169386

   => Energetics <=

    Nuclear Repulsion Energy =            600.2898185300875866
    One-Electron Energy =               -1866.5956902016946515
    Two-Electron Energy =                 769.8140098699132068
    Total Energy =                       -496.4918618016938581
  Basis Set: (AUG-CC-PVTZ AUX)
    Blend: AUG-CC-PVTZ-RI
    Molecular point group: c1

    Geometry (in Angstrom), charge = 0, multiplicity = 1:

       Center              X                  Y                   Z               Mass
    ------------   -----------------  -----------------  -----------------  -----------------
         O            2.159900833608    -1.160124155363    -0.110544984357    15.994914619570
         O            2.159900833608     1.157439844637    -0.110527984357    15.994914619570
         C           -1.528892166392    -0.707154155363     0.006519015643    12.000000000000
         C           -1.528893166392     0.704467844637     0.006531015643    12.000000000000
         C            0.858800833608    -0.695859155363    -0.033531984357    12.000000000000
         C            0.858799833608     0.693174844637    -0.033508984357    12.000000000000
         C           -0.316683166392    -1.422315155363    -0.019119984357    12.000000000000
         C           -0.316685166392     1.419628844637    -0.019138984357    12.000000000000
         C            2.940378833608    -0.001344155363     0.212918015643    12.000000000000
         C           -2.831535166392    -1.464931155363     0.039340015643    12.000000000000
         C           -2.831536166392     1.462243844637     0.039329015643    12.000000000000
         H           -0.302590166392    -2.509255155363    -0.027008984357     1.007825032230
         H           -0.299998166392     2.706546844637    -0.028443884357     1.007825032230
         H            3.159643833608    -0.001353155363     1.290266015643     1.007825032230
         H            3.850153833608    -0.001339155363    -0.386770984357     1.007825032230
         H           -2.650781166392    -2.542949155363     0.026501015643     1.007825032230
         H           -3.411291166392    -1.232629155363     0.939572015643     1.007825032230
         H           -3.462029166392    -1.220064155363    -0.822513984357     1.007825032230
         H           -3.411279166392     1.229986844637     0.939583015643     1.007825032230
         H           -2.650784166392     2.540261844637     0.026434015643     1.007825032230
         H           -3.462041166392     1.217330844637    -0.822502984357     1.007825032230

  Basis Set: AUG-CC-PVTZ
    Blend: AUG-CC-PVTZ
  Basis Set: (AUG-CC-PVTZ AUX)
    Blend: AUG-CC-PVTZ-JKFIT
	 Reference Energy          =    -496.4918618016938581 [Eh]
	 Singles Energy            =      -0.0000000000000000 [Eh]
	 Same-Spin Energy          =      -0.5246862773796248 [Eh]
	 Opposite-Spin Energy      =      -1.6344944226986373 [Eh]
	 Correlation Energy        =      -2.1591807000782621 [Eh]
	 Total Energy              =    -498.6510425017721104 [Eh]

	 ================> DF-SCS-MP2 Energies <==================
	-----------------------------------------------------------
	 SCS Same-Spin Scale       =       0.3333333333333333 [-]
	 SCS Opposite-Spin Scale   =       1.2000000000000000 [-]
	 SCS Same-Spin Energy      =      -0.1748954257932083 [Eh]
	 SCS Opposite-Spin Energy  =      -1.9613933072383647 [Eh]
	 SCS Correlation Energy    =      -2.1362887330315727 [Eh]
	 SCS Total Energy          =    -498.6281505347254210 [Eh]
	-----------------------------------------------------------

  Dipole Moment: [D]
     X:    -0.5691      Y:    -0.0692      Z:     0.5650     Total:     0.8049

*** Psi4 exiting successfully. Buy a developer a beer!
