                               Psi4 1.4a3.dev225

  ==> Input File <==

--------------------------------------------------------------------------
#psi4
#
memory 32 gb

molecule  {
0 1
  O        2.2381840    -1.1587810    -0.1175950
  O        2.2381840     1.1587830    -0.1175780
  C       -1.4506090    -0.7058110    -0.0005310
  C       -1.4506100     0.7058110    -0.0005190
  C        0.8430463    -0.6609610    -0.0350158
  C        0.9370830     0.6945180    -0.0405590
  C       -0.2384000    -1.4209720    -0.0261700
  C       -0.2384020     1.4209720    -0.0261890
  C        3.0186620    -0.0000010     0.2058680
  C       -2.7532520    -1.4635880     0.0322900
  C       -2.7532530     1.4635870     0.0322790
  H       -0.2243070    -2.5079120    -0.0340590
  H       -0.2243080     2.5079120    -0.0340480
  H        3.2379270    -0.0000100     1.2832160
  H        3.9284370     0.0000040    -0.3938210
  H       -2.5724980    -2.5416060     0.0194510
  H       -3.3330080    -1.2312860     0.9325220
  H       -3.3837460    -1.2187210    -0.8295640
  H       -3.3329960     1.2313300     0.9325330
  H       -2.5725010     2.5416050     0.0193840
  H       -3.3837580     1.2186740    -0.8295530
units angstrom
no_reorient  #important for SAPT in psi4, default
symmetry c1  #important for SAPT in psi4, default
}

set PROPERTIES_ORIGIN ["COM"]
properties('MP2/aug-cc-pvtz', properties = ['dipole'])
--------------------------------------------------------------------------

    Molecular point group: c1
  Charge       = 0
  Multiplicity = 1
  Basis Set: AUG-CC-PVTZ
    Blend: AUG-CC-PVTZ
  Basis Set: (AUG-CC-PVTZ AUX)
    Blend: AUG-CC-PVTZ-JKFIT

    Orbital Energies [Eh]
    ---------------------

    Doubly Occupied:

       1A    -20.596948     2A    -20.581644     3A    -11.344843
       4A    -11.293410     5A    -11.286115     6A    -11.245555
       7A    -11.244290     8A    -11.240559     9A    -11.237054
      10A    -11.227733    11A    -11.227491    12A     -1.450406
      13A     -1.339556    14A     -1.171753    15A     -1.059215
      16A     -1.046699    17A     -0.959554    18A     -0.937578
      19A     -0.881386    20A     -0.841259    21A     -0.789866
      22A     -0.713887    23A     -0.705221    24A     -0.667599
      25A     -0.647255    26A     -0.625647    27A     -0.609362
      28A     -0.598524    29A     -0.563976    30A     -0.558732
      31A     -0.553491    32A     -0.543140    33A     -0.539267
      34A     -0.529406    35A     -0.520446    36A     -0.503425
      37A     -0.492610    38A     -0.442421    39A     -0.343011
      40A     -0.301683

  @DF-RHF Final Energy:  -496.50219713675932

   => Energetics <=

    Nuclear Repulsion Energy =            601.6520261878030169
    One-Electron Energy =               -1869.3844112744873200
    Two-Electron Energy =                 771.2301879499248116
    Total Energy =                       -496.5021971367593778
  Basis Set: (AUG-CC-PVTZ AUX)
    Blend: AUG-CC-PVTZ-RI
    Molecular point group: c1

    Geometry (in Angstrom), charge = 0, multiplicity = 1:

       Center              X                  Y                   Z               Mass
    ------------   -----------------  -----------------  -----------------  -----------------
         O            2.167437850764    -1.161464328212    -0.110999788700    15.994914619570
         O            2.167437850764     1.156099671788    -0.110982788700    15.994914619570
         C           -1.521355149236    -0.708494328212     0.006064211300    12.000000000000
         C           -1.521356149236     0.703127671788     0.006076211300    12.000000000000
         C            0.772300150764    -0.663644328212    -0.028420588700    12.000000000000
         C            0.866336850764     0.691834671788    -0.033963788700    12.000000000000
         C           -0.309146149236    -1.423655328212    -0.019574788700    12.000000000000
         C           -0.309148149236     1.418288671788    -0.019593788700    12.000000000000
         C            2.947915850764    -0.002684328212     0.212463211300    12.000000000000
         C           -2.823998149236    -1.466271328212     0.038885211300    12.000000000000
         C           -2.823999149236     1.460903671788     0.038874211300    12.000000000000
         H           -0.295053149236    -2.510595328212    -0.027463788700     1.007825032230
         H           -0.295054149236     2.505228671788    -0.027452788700     1.007825032230
         H            3.167180850764    -0.002693328212     1.289811211300     1.007825032230
         H            3.857690850764    -0.002679328212    -0.387225788700     1.007825032230
         H           -2.643244149236    -2.544289328212     0.026046211300     1.007825032230
         H           -3.403754149236    -1.233969328212     0.939117211300     1.007825032230
         H           -3.454492149236    -1.221404328212    -0.822968788700     1.007825032230
         H           -3.403742149236     1.228646671788     0.939128211300     1.007825032230
         H           -2.643247149236     2.538921671788     0.025979211300     1.007825032230
         H           -3.454504149236     1.215990671788    -0.822957788700     1.007825032230

  Basis Set: AUG-CC-PVTZ
    Blend: AUG-CC-PVTZ
  Basis Set: (AUG-CC-PVTZ AUX)
    Blend: AUG-CC-PVTZ-JKFIT
	 Reference Energy          =    -496.5021971367593210 [Eh]
	 Singles Energy            =      -0.0000000000000000 [Eh]
	 Same-Spin Energy          =      -0.5243180554944513 [Eh]
	 Opposite-Spin Energy      =      -1.6334952939768050 [Eh]
	 Correlation Energy        =      -2.1578133494712564 [Eh]
	 Total Energy              =    -498.6600104862305898 [Eh]

	 ================> DF-SCS-MP2 Energies <==================
	-----------------------------------------------------------
	 SCS Same-Spin Scale       =       0.3333333333333333 [-]
	 SCS Opposite-Spin Scale   =       1.2000000000000000 [-]
	 SCS Same-Spin Energy      =      -0.1747726851648171 [Eh]
	 SCS Opposite-Spin Energy  =      -1.9601943527721659 [Eh]
	 SCS Correlation Energy    =      -2.1349670379369829 [Eh]
	 SCS Total Energy          =    -498.6371641746962950 [Eh]
	-----------------------------------------------------------

  Dipole Moment: [D]
     X:    -1.1252      Y:     0.0846      Z:     0.5843     Total:     1.2707

*** Psi4 exiting successfully. Buy a developer a beer!
