                               Psi4 1.4a3.dev225

  ==> Input File <==

--------------------------------------------------------------------------
#psi4
#
memory 32 gb

molecule  {
0 1
  O        2.2381840    -1.1587810    -0.1175950
  O        2.2381840     1.1587830    -0.1175780
  C       -1.4506090    -0.7058110    -0.0005310
  C       -1.4506100     0.7058110    -0.0005190
  C        0.9370840    -0.6945160    -0.0405820
  C        0.9370830     0.6945180    -0.0405590
  C       -0.2384000    -1.4209720    -0.0261700
  C       -0.2384020     1.4209720    -0.0261890
  C        3.0186620    -0.0000010     0.2058680
  C       -2.7532520    -1.4635880     0.0322900
  C       -2.7532530     1.4635870     0.0322790
  H       -0.2243070    -2.5079120    -0.0340590
  H       -0.2243080     2.5079120    -0.0340480
  H        3.2379270    -0.0000100     1.2832160
  H        3.9284370     0.0000040    -0.3938210
  H       -2.5724980    -2.5416060     0.0194510
  H       -3.3182871    -1.2370427     0.9432848
  H       -3.3837460    -1.2187210    -0.8295640
  H       -3.3329960     1.2313300     0.9325330
  H       -2.5725010     2.5416050     0.0193840
  H       -3.3837580     1.2186740    -0.8295530
units angstrom
no_reorient  #important for SAPT in psi4, default
symmetry c1  #important for SAPT in psi4, default
}

set PROPERTIES_ORIGIN ["COM"]
properties('MP2/aug-cc-pvtz', properties = ['dipole'])
--------------------------------------------------------------------------

    Molecular point group: c1
  Charge       = 0
  Multiplicity = 1
  Basis Set: AUG-CC-PVTZ
    Blend: AUG-CC-PVTZ
  Basis Set: (AUG-CC-PVTZ AUX)
    Blend: AUG-CC-PVTZ-JKFIT

    Orbital Energies [Eh]
    ---------------------

    Doubly Occupied:

       1A    -20.596066     2A    -20.596045     3A    -11.352303
       4A    -11.292075     5A    -11.290803     6A    -11.242221
       7A    -11.241121     8A    -11.238247     9A    -11.238190
      10A    -11.225322    11A    -11.225262    12A     -1.467156
      13A     -1.364639    14A     -1.158465    15A     -1.053250
      16A     -1.038314    17A     -0.952351    18A     -0.942891
      19A     -0.882415    20A     -0.836946    21A     -0.795473
      22A     -0.716097    23A     -0.712664    24A     -0.674865
      25A     -0.648158    26A     -0.615010    27A     -0.611025
      28A     -0.596127    29A     -0.574064    30A     -0.565596
      31A     -0.552477    32A     -0.540808    33A     -0.534949
      34A     -0.533093    35A     -0.530343    36A     -0.500307
      37A     -0.491250    38A     -0.441731    39A     -0.334359
      40A     -0.293201

  @DF-RHF Final Energy:  -496.51431493658686

   => Energetics <=

    Nuclear Repulsion Energy =            601.2979574112198407
    One-Electron Energy =               -1868.6331833745923632
    Two-Electron Energy =                 770.8209110267856659
    Total Energy =                       -496.5143149365868567
  Basis Set: (AUG-CC-PVTZ AUX)
    Blend: AUG-CC-PVTZ-RI
    Molecular point group: c1

    Geometry (in Angstrom), charge = 0, multiplicity = 1:

       Center              X                  Y                   Z               Mass
    ------------   -----------------  -----------------  -----------------  -----------------
         O            2.159819385233    -1.158742485249    -0.110626975368    15.994914619570
         O            2.159819385233     1.158821514751    -0.110609975368    15.994914619570
         C           -1.528973614767    -0.705772485249     0.006437024632    12.000000000000
         C           -1.528974614767     0.705849514751     0.006449024632    12.000000000000
         C            0.858719385233    -0.694477485249    -0.033613975368    12.000000000000
         C            0.858718385233     0.694556514751    -0.033590975368    12.000000000000
         C           -0.316764614767    -1.420933485249    -0.019201975368    12.000000000000
         C           -0.316766614767     1.421010514751    -0.019220975368    12.000000000000
         C            2.940297385233     0.000037514751     0.212836024632    12.000000000000
         C           -2.831616614767    -1.463549485249     0.039258024632    12.000000000000
         C           -2.831617614767     1.463625514751     0.039247024632    12.000000000000
         H           -0.302671614767    -2.507873485249    -0.027090975368     1.007825032230
         H           -0.302672614767     2.507950514751    -0.027079975368     1.007825032230
         H            3.159562385233     0.000028514751     1.290184024632     1.007825032230
         H            3.850072385233     0.000042514751    -0.386852975368     1.007825032230
         H           -2.650862614767    -2.541567485249     0.026419024632     1.007825032230
         H           -3.396651714767    -1.237004185249     0.950252824632     1.007825032230
         H           -3.462110614767    -1.218682485249    -0.822595975368     1.007825032230
         H           -3.411360614767     1.231368514751     0.939501024632     1.007825032230
         H           -2.650865614767     2.541643514751     0.026352024632     1.007825032230
         H           -3.462122614767     1.218712514751    -0.822584975368     1.007825032230

  Basis Set: AUG-CC-PVTZ
    Blend: AUG-CC-PVTZ
  Basis Set: (AUG-CC-PVTZ AUX)
    Blend: AUG-CC-PVTZ-JKFIT
	 Reference Energy          =    -496.5143149365868567 [Eh]
	 Singles Energy            =      -0.0000000000000000 [Eh]
	 Same-Spin Energy          =      -0.5240411196372047 [Eh]
	 Opposite-Spin Energy      =      -1.6322497098774806 [Eh]
	 Correlation Energy        =      -2.1562908295146852 [Eh]
	 Total Energy              =    -498.6706057661015166 [Eh]

	 ================> DF-SCS-MP2 Energies <==================
	-----------------------------------------------------------
	 SCS Same-Spin Scale       =       0.3333333333333333 [-]
	 SCS Opposite-Spin Scale   =       1.2000000000000000 [-]
	 SCS Same-Spin Energy      =      -0.1746803732124015 [Eh]
	 SCS Opposite-Spin Energy  =      -1.9586996518529767 [Eh]
	 SCS Correlation Energy    =      -2.1333800250653780 [Eh]
	 SCS Total Energy          =    -498.6476949616522347 [Eh]
	-----------------------------------------------------------

  Dipole Moment: [D]
     X:    -0.5686      Y:    -0.0047      Z:     0.5665     Total:     0.8026

*** Psi4 exiting successfully. Buy a developer a beer!
