                               Psi4 1.4a3.dev225

  ==> Input File <==

--------------------------------------------------------------------------
#psi4
#
memory 32 gb

molecule  {
0 1
  O        2.2381840    -1.1587810    -0.1175950
  O        2.2381840     1.1587830    -0.1175780
  C       -1.4506090    -0.7058110    -0.0005310
  C       -1.4506100     0.7058110    -0.0005190
  C        0.9370840    -0.6945160    -0.0405820
  C        0.9370830     0.6945180    -0.0405590
  C       -0.2384000    -1.4209720    -0.0261700
  C       -0.2384020     1.4209720    -0.0261890
  C        3.0186620    -0.0000010     0.2058680
  C       -2.7532520    -1.4635880     0.0322900
  C       -2.7532530     1.4635870     0.0322790
  H       -0.2243070    -2.5079120    -0.0340590
  H       -0.2243080     2.5079120    -0.0340480
  H        3.2379270    -0.0000100     1.2832160
  H        3.9284370     0.0000040    -0.3938210
  H       -2.5346098    -2.5317730    -0.0460434
  H       -3.3330080    -1.2312860     0.9325220
  H       -3.3837460    -1.2187210    -0.8295640
  H       -3.3329960     1.2313300     0.9325330
  H       -2.5725010     2.5416050     0.0193840
  H       -3.3837580     1.2186740    -0.8295530
units angstrom
no_reorient  #important for SAPT in psi4, default
symmetry c1  #important for SAPT in psi4, default
}

set PROPERTIES_ORIGIN ["COM"]
properties('MP2/aug-cc-pvtz', properties = ['dipole'])
--------------------------------------------------------------------------

    Molecular point group: c1
  Charge       = 0
  Multiplicity = 1
  Basis Set: AUG-CC-PVTZ
    Blend: AUG-CC-PVTZ
  Basis Set: (AUG-CC-PVTZ AUX)
    Blend: AUG-CC-PVTZ-JKFIT

    Orbital Energies [Eh]
    ---------------------

    Doubly Occupied:

       1A    -20.596109     2A    -20.596063     3A    -11.352328
       4A    -11.292120     5A    -11.290845     6A    -11.241982
       7A    -11.240878     8A    -11.238293     9A    -11.238192
      10A    -11.225398    11A    -11.225372    12A     -1.467186
      13A     -1.364670    14A     -1.158508    15A     -1.053345
      16A     -1.038565    17A     -0.952410    18A     -0.942889
      19A     -0.882345    20A     -0.836938    21A     -0.795363
      22A     -0.716263    23A     -0.712891    24A     -0.674737
      25A     -0.647748    26A     -0.615319    27A     -0.612104
      28A     -0.595438    29A     -0.574092    30A     -0.565849
      31A     -0.553123    32A     -0.539367    33A     -0.535425
      34A     -0.533700    35A     -0.530065    36A     -0.501099
      37A     -0.490521    38A     -0.441676    39A     -0.334401
      40A     -0.293141

  @DF-RHF Final Energy:  -496.51372772231883

   => Energetics <=

    Nuclear Repulsion Energy =            601.3629645874434573
    One-Electron Energy =               -1868.7598617004243806
    Two-Electron Energy =                 770.8831693906620330
    Total Energy =                       -496.5137277223188903
  Basis Set: (AUG-CC-PVTZ AUX)
    Blend: AUG-CC-PVTZ-RI
    Molecular point group: c1

    Geometry (in Angstrom), charge = 0, multiplicity = 1:

       Center              X                  Y                   Z               Mass
    ------------   -----------------  -----------------  -----------------  -----------------
         O            2.159663798616    -1.158847182330    -0.110114848370    15.994914619570
         O            2.159663798616     1.158716817670    -0.110097848370    15.994914619570
         C           -1.529129201384    -0.705877182330     0.006949151630    12.000000000000
         C           -1.529130201384     0.705744817670     0.006961151630    12.000000000000
         C            0.858563798616    -0.694582182330    -0.033101848370    12.000000000000
         C            0.858562798616     0.694451817670    -0.033078848370    12.000000000000
         C           -0.316920201384    -1.421038182330    -0.018689848370    12.000000000000
         C           -0.316922201384     1.420905817670    -0.018708848370    12.000000000000
         C            2.940141798616    -0.000067182330     0.213348151630    12.000000000000
         C           -2.831772201384    -1.463654182330     0.039770151630    12.000000000000
         C           -2.831773201384     1.463520817670     0.039759151630    12.000000000000
         H           -0.302827201384    -2.507978182330    -0.026578848370     1.007825032230
         H           -0.302828201384     2.507845817670    -0.026567848370     1.007825032230
         H            3.159406798616    -0.000076182330     1.290696151630     1.007825032230
         H            3.849916798616    -0.000062182330    -0.386340848370     1.007825032230
         H           -2.613130001384    -2.531839182330    -0.038563248370     1.007825032230
         H           -3.411528201384    -1.231352182330     0.940002151630     1.007825032230
         H           -3.462266201384    -1.218787182330    -0.822083848370     1.007825032230
         H           -3.411516201384     1.231263817670     0.940013151630     1.007825032230
         H           -2.651021201384     2.541538817670     0.026864151630     1.007825032230
         H           -3.462278201384     1.218607817670    -0.822072848370     1.007825032230

  Basis Set: AUG-CC-PVTZ
    Blend: AUG-CC-PVTZ
  Basis Set: (AUG-CC-PVTZ AUX)
    Blend: AUG-CC-PVTZ-JKFIT
	 Reference Energy          =    -496.5137277223188335 [Eh]
	 Singles Energy            =      -0.0000000000000000 [Eh]
	 Same-Spin Energy          =      -0.5241029853152348 [Eh]
	 Opposite-Spin Energy      =      -1.6323194864775239 [Eh]
	 Correlation Energy        =      -2.1564224717927587 [Eh]
	 Total Energy              =    -498.6701501941116135 [Eh]

	 ================> DF-SCS-MP2 Energies <==================
	-----------------------------------------------------------
	 SCS Same-Spin Scale       =       0.3333333333333333 [-]
	 SCS Opposite-Spin Scale   =       1.2000000000000000 [-]
	 SCS Same-Spin Energy      =      -0.1747009951050782 [Eh]
	 SCS Opposite-Spin Energy  =      -1.9587833837730286 [Eh]
	 SCS Correlation Energy    =      -2.1334843788781068 [Eh]
	 SCS Total Energy          =    -498.6472121011969421 [Eh]
	-----------------------------------------------------------

  Dipole Moment: [D]
     X:    -0.5645      Y:     0.0129      Z:     0.5423     Total:     0.7829

*** Psi4 exiting successfully. Buy a developer a beer!
