                               Psi4 1.4a3.dev225

  ==> Input File <==

--------------------------------------------------------------------------
#psi4
#
memory 32 gb

molecule  {
0 1
  O        2.2381840    -1.1587810    -0.1175950
  O        2.2381840     1.1587830    -0.1175780
  C       -1.4506090    -0.7058110    -0.0005310
  C       -1.4506100     0.7058110    -0.0005190
  C        0.9370840    -0.6945160    -0.0405820
  C        0.9370830     0.6945180    -0.0405590
  C       -0.2384000    -1.4209720    -0.0261700
  C       -0.2640893     1.4628509    -0.0254502
  C        3.0186620    -0.0000010     0.2058680
  C       -2.7532520    -1.4635880     0.0322900
  C       -2.7532530     1.4635870     0.0322790
  H       -0.2243070    -2.5079120    -0.0340590
  H       -0.2243080     2.5079120    -0.0340480
  H        3.2379270    -0.0000100     1.2832160
  H        3.9284370     0.0000040    -0.3938210
  H       -2.5724980    -2.5416060     0.0194510
  H       -3.3330080    -1.2312860     0.9325220
  H       -3.3837460    -1.2187210    -0.8295640
  H       -3.3329960     1.2313300     0.9325330
  H       -2.5725010     2.5416050     0.0193840
  H       -3.3837580     1.2186740    -0.8295530
units angstrom
no_reorient  #important for SAPT in psi4, default
symmetry c1  #important for SAPT in psi4, default
}

set PROPERTIES_ORIGIN ["COM"]
properties('MP2/aug-cc-pvtz', properties = ['dipole'])
--------------------------------------------------------------------------

    Molecular point group: c1
  Charge       = 0
  Multiplicity = 1
  Basis Set: AUG-CC-PVTZ
    Blend: AUG-CC-PVTZ
  Basis Set: (AUG-CC-PVTZ AUX)
    Blend: AUG-CC-PVTZ-JKFIT

    Orbital Energies [Eh]
    ---------------------

    Doubly Occupied:

       1A    -20.595991     2A    -20.595458     3A    -11.351997
       4A    -11.296094     5A    -11.290504     6A    -11.243422
       7A    -11.241817     8A    -11.240166     9A    -11.239772
      10A    -11.225636    11A    -11.224319    12A     -1.466740
      13A     -1.364246    14A     -1.155619    15A     -1.051580
      16A     -1.038039    17A     -0.950068    18A     -0.942161
      19A     -0.881843    20A     -0.839522    21A     -0.793986
      22A     -0.715661    23A     -0.712282    24A     -0.675445
      25A     -0.649578    26A     -0.621869    27A     -0.610003
      28A     -0.595069    29A     -0.573621    30A     -0.565296
      31A     -0.551413    32A     -0.541438    33A     -0.534798
      34A     -0.532115    35A     -0.528020    36A     -0.499813
      37A     -0.493626    38A     -0.440610    39A     -0.332469
      40A     -0.292006

  @DF-RHF Final Energy:  -496.51017050124830

   => Energetics <=

    Nuclear Repulsion Energy =            600.4334760539899207
    One-Electron Energy =               -1866.8990648252256506
    Two-Electron Energy =                 769.9554182699873763
    Total Energy =                       -496.5101705012482398
  Basis Set: (AUG-CC-PVTZ AUX)
    Blend: AUG-CC-PVTZ-RI
    Molecular point group: c1

    Geometry (in Angstrom), charge = 0, multiplicity = 1:

       Center              X                  Y                   Z               Mass
    ------------   -----------------  -----------------  -----------------  -----------------
         O            2.161972299380    -1.162129938116    -0.110613771899    15.994914619570
         O            2.161972299380     1.155434061884    -0.110596771899    15.994914619570
         C           -1.526820700620    -0.709159938116     0.006450228101    12.000000000000
         C           -1.526821700620     0.702462061884     0.006462228101    12.000000000000
         C            0.860872299380    -0.697864938116    -0.033600771899    12.000000000000
         C            0.860871299380     0.691169061884    -0.033577771899    12.000000000000
         C           -0.314611700620    -1.424320938116    -0.019188771899    12.000000000000
         C           -0.340301000620     1.459501961884    -0.018468971899    12.000000000000
         C            2.942450299380    -0.003349938116     0.212849228101    12.000000000000
         C           -2.829463700620    -1.466936938116     0.039271228101    12.000000000000
         C           -2.829464700620     1.460238061884     0.039260228101    12.000000000000
         H           -0.300518700620    -2.511260938116    -0.027077771899     1.007825032230
         H           -0.300519700620     2.504563061884    -0.027066771899     1.007825032230
         H            3.161715299380    -0.003358938116     1.290197228101     1.007825032230
         H            3.852225299380    -0.003344938116    -0.386839771899     1.007825032230
         H           -2.648709700620    -2.544954938116     0.026432228101     1.007825032230
         H           -3.409219700620    -1.234634938116     0.939503228101     1.007825032230
         H           -3.459957700620    -1.222069938116    -0.822582771899     1.007825032230
         H           -3.409207700620     1.227981061884     0.939514228101     1.007825032230
         H           -2.648712700620     2.538256061884     0.026365228101     1.007825032230
         H           -3.459969700620     1.215325061884    -0.822571771899     1.007825032230

  Basis Set: AUG-CC-PVTZ
    Blend: AUG-CC-PVTZ
  Basis Set: (AUG-CC-PVTZ AUX)
    Blend: AUG-CC-PVTZ-JKFIT
	 Reference Energy          =    -496.5101705012482967 [Eh]
	 Singles Energy            =      -0.0000000000000000 [Eh]
	 Same-Spin Energy          =      -0.5241643104252816 [Eh]
	 Opposite-Spin Energy      =      -1.6328017316823584 [Eh]
	 Correlation Energy        =      -2.1569660421076398 [Eh]
	 Total Energy              =    -498.6671365433559231 [Eh]

	 ================> DF-SCS-MP2 Energies <==================
	-----------------------------------------------------------
	 SCS Same-Spin Scale       =       0.3333333333333333 [-]
	 SCS Opposite-Spin Scale   =       1.2000000000000000 [-]
	 SCS Same-Spin Energy      =      -0.1747214368084272 [Eh]
	 SCS Opposite-Spin Energy  =      -1.9593620780188301 [Eh]
	 SCS Correlation Energy    =      -2.1340835148272572 [Eh]
	 SCS Total Energy          =    -498.6442540160755357 [Eh]
	-----------------------------------------------------------

  Dipole Moment: [D]
     X:    -0.5570      Y:     0.0082      Z:     0.5585     Total:     0.7888

*** Psi4 exiting successfully. Buy a developer a beer!
