                               Psi4 1.4a3.dev225

  ==> Input File <==

--------------------------------------------------------------------------
#psi4
#
memory 32 gb

molecule  {
0 1
  O        2.2381840    -1.1587810    -0.1175950
  O        2.2212172     1.2039874    -0.1165728
  C       -1.4506090    -0.7058110    -0.0005310
  C       -1.4506100     0.7058110    -0.0005190
  C        0.9370840    -0.6945160    -0.0405820
  C        0.9370830     0.6945180    -0.0405590
  C       -0.2384000    -1.4209720    -0.0261700
  C       -0.2384020     1.4209720    -0.0261890
  C        3.0186620    -0.0000010     0.2058680
  C       -2.7532520    -1.4635880     0.0322900
  C       -2.7532530     1.4635870     0.0322790
  H       -0.2243070    -2.5079120    -0.0340590
  H       -0.2243080     2.5079120    -0.0340480
  H        3.2379270    -0.0000100     1.2832160
  H        3.9284370     0.0000040    -0.3938210
  H       -2.5724980    -2.5416060     0.0194510
  H       -3.3330080    -1.2312860     0.9325220
  H       -3.3837460    -1.2187210    -0.8295640
  H       -3.3329960     1.2313300     0.9325330
  H       -2.5725010     2.5416050     0.0193840
  H       -3.3837580     1.2186740    -0.8295530
units angstrom
no_reorient  #important for SAPT in psi4, default
symmetry c1  #important for SAPT in psi4, default
}

set PROPERTIES_ORIGIN ["COM"]
properties('MP2/aug-cc-pvtz', properties = ['dipole'])
--------------------------------------------------------------------------

    Molecular point group: c1
  Charge       = 0
  Multiplicity = 1
  Basis Set: AUG-CC-PVTZ
    Blend: AUG-CC-PVTZ
  Basis Set: (AUG-CC-PVTZ AUX)
    Blend: AUG-CC-PVTZ-JKFIT

    Orbital Energies [Eh]
    ---------------------

    Doubly Occupied:

       1A    -20.599030     2A    -20.597051     3A    -11.356705
       4A    -11.292139     5A    -11.289984     6A    -11.241760
       7A    -11.240665     8A    -11.238547     9A    -11.236247
      10A    -11.225021    11A    -11.224826    12A     -1.459602
      13A     -1.362612    14A     -1.157365    15A     -1.051326
      16A     -1.037554    17A     -0.951706    18A     -0.941270
      19A     -0.885186    20A     -0.836305    21A     -0.792593
      22A     -0.713566    23A     -0.709348    24A     -0.671111
      25A     -0.648901    26A     -0.614360    27A     -0.606798
      28A     -0.594962    29A     -0.573943    30A     -0.566514
      31A     -0.551169    32A     -0.540969    33A     -0.536363
      34A     -0.534259    35A     -0.530049    36A     -0.499692
      37A     -0.491449    38A     -0.442563    39A     -0.333564
      40A     -0.293183

  @DF-RHF Final Energy:  -496.51059640545174

   => Energetics <=

    Nuclear Repulsion Energy =            600.3486703884591407
    One-Electron Energy =               -1866.7780235666150475
    Two-Electron Energy =                 769.9187567727041142
    Total Energy =                       -496.5105964054517926
  Basis Set: (AUG-CC-PVTZ AUX)
    Blend: AUG-CC-PVTZ-RI
    Molecular point group: c1

    Geometry (in Angstrom), charge = 0, multiplicity = 1:

       Center              X                  Y                   Z               Mass
    ------------   -----------------  -----------------  -----------------  -----------------
         O            2.161726643657    -1.163599229380    -0.110661833340    15.994914619570
         O            2.144759843657     1.199169170620    -0.109639633340    15.994914619570
         C           -1.527066356343    -0.710629229380     0.006402166660    12.000000000000
         C           -1.527067356343     0.700992770620     0.006414166660    12.000000000000
         C            0.860626643657    -0.699334229380    -0.033648833340    12.000000000000
         C            0.860625643657     0.689699770620    -0.033625833340    12.000000000000
         C           -0.314857356343    -1.425790229380    -0.019236833340    12.000000000000
         C           -0.314859356343     1.416153770620    -0.019255833340    12.000000000000
         C            2.942204643657    -0.004819229380     0.212801166660    12.000000000000
         C           -2.829709356343    -1.468406229380     0.039223166660    12.000000000000
         C           -2.829710356343     1.458768770620     0.039212166660    12.000000000000
         H           -0.300764356343    -2.512730229380    -0.027125833340     1.007825032230
         H           -0.300765356343     2.503093770620    -0.027114833340     1.007825032230
         H            3.161469643657    -0.004828229380     1.290149166660     1.007825032230
         H            3.851979643657    -0.004814229380    -0.386887833340     1.007825032230
         H           -2.648955356343    -2.546424229380     0.026384166660     1.007825032230
         H           -3.409465356343    -1.236104229380     0.939455166660     1.007825032230
         H           -3.460203356343    -1.223539229380    -0.822630833340     1.007825032230
         H           -3.409453356343     1.226511770620     0.939466166660     1.007825032230
         H           -2.648958356343     2.536786770620     0.026317166660     1.007825032230
         H           -3.460215356343     1.213855770620    -0.822619833340     1.007825032230

  Basis Set: AUG-CC-PVTZ
    Blend: AUG-CC-PVTZ
  Basis Set: (AUG-CC-PVTZ AUX)
    Blend: AUG-CC-PVTZ-JKFIT
	 Reference Energy          =    -496.5105964054517358 [Eh]
	 Singles Energy            =      -0.0000000000000000 [Eh]
	 Same-Spin Energy          =      -0.5244337445213956 [Eh]
	 Opposite-Spin Energy      =      -1.6337480796097597 [Eh]
	 Correlation Energy        =      -2.1581818241311552 [Eh]
	 Total Energy              =    -498.6687782295828697 [Eh]

	 ================> DF-SCS-MP2 Energies <==================
	-----------------------------------------------------------
	 SCS Same-Spin Scale       =       0.3333333333333333 [-]
	 SCS Opposite-Spin Scale   =       1.2000000000000000 [-]
	 SCS Same-Spin Energy      =      -0.1748112481737985 [Eh]
	 SCS Opposite-Spin Energy  =      -1.9604976955317115 [Eh]
	 SCS Correlation Energy    =      -2.1353089437055099 [Eh]
	 SCS Total Energy          =    -498.6459053491572604 [Eh]
	-----------------------------------------------------------

  Dipole Moment: [D]
     X:    -0.4827      Y:    -0.1061      Z:     0.5860     Total:     0.7666

*** Psi4 exiting successfully. Buy a developer a beer!
