                               Psi4 1.4a3.dev225

  ==> Input File <==

--------------------------------------------------------------------------
#psi4
#
memory 32 gb

molecule  {
0 1
  O        2.2381840    -1.1587810    -0.1175950
  O        2.2381840     1.1587830    -0.1175780
  C       -1.4506090    -0.7058110    -0.0005310
  C       -1.4246520     0.7538452     0.0894183
  C        0.9370840    -0.6945160    -0.0405820
  C        0.9370830     0.6945180    -0.0405590
  C       -0.2384000    -1.4209720    -0.0261700
  C       -0.2384020     1.4209720    -0.0261890
  C        3.0186620    -0.0000010     0.2058680
  C       -2.7532520    -1.4635880     0.0322900
  C       -2.7532530     1.4635870     0.0322790
  H       -0.2243070    -2.5079120    -0.0340590
  H       -0.2243080     2.5079120    -0.0340480
  H        3.2379270    -0.0000100     1.2832160
  H        3.9284370     0.0000040    -0.3938210
  H       -2.5724980    -2.5416060     0.0194510
  H       -3.3330080    -1.2312860     0.9325220
  H       -3.3837460    -1.2187210    -0.8295640
  H       -3.3329960     1.2313300     0.9325330
  H       -2.5725010     2.5416050     0.0193840
  H       -3.3837580     1.2186740    -0.8295530
units angstrom
no_reorient  #important for SAPT in psi4, default
symmetry c1  #important for SAPT in psi4, default
}

set PROPERTIES_ORIGIN ["COM"]
properties('MP2/aug-cc-pvtz', properties = ['dipole'])
--------------------------------------------------------------------------

    Molecular point group: c1
  Charge       = 0
  Multiplicity = 1
  Basis Set: AUG-CC-PVTZ
    Blend: AUG-CC-PVTZ
  Basis Set: (AUG-CC-PVTZ AUX)
    Blend: AUG-CC-PVTZ-JKFIT

    Orbital Energies [Eh]
    ---------------------

    Doubly Occupied:

       1A    -20.595305     2A    -20.595078     3A    -11.351829
       4A    -11.291005     5A    -11.289631     6A    -11.247659
       7A    -11.242744     8A    -11.238260     9A    -11.235272
      10A    -11.226622    11A    -11.225696    12A     -1.466213
      13A     -1.363824    14A     -1.157918    15A     -1.050322
      16A     -1.043205    17A     -0.953602    18A     -0.943378
      19A     -0.881257    20A     -0.829230    21A     -0.799525
      22A     -0.716626    23A     -0.711956    24A     -0.675823
      25A     -0.646961    26A     -0.615875    27A     -0.610810
      28A     -0.595323    29A     -0.573522    30A     -0.564487
      31A     -0.552406    32A     -0.541048    33A     -0.534411
      34A     -0.533092    35A     -0.532220    36A     -0.508358
      37A     -0.480647    38A     -0.441301    39A     -0.339576
      40A     -0.287957

  @DF-RHF Final Energy:  -496.50764998013369

   => Energetics <=

    Nuclear Repulsion Energy =            601.0794015174573133
    One-Electron Energy =               -1868.1941484639571627
    Two-Electron Energy =                 770.6070969663662709
    Total Energy =                       -496.5076499801336922
  Basis Set: (AUG-CC-PVTZ AUX)
    Blend: AUG-CC-PVTZ-RI
    Molecular point group: c1

    Geometry (in Angstrom), charge = 0, multiplicity = 1:

       Center              X                  Y                   Z               Mass
    ------------   -----------------  -----------------  -----------------  -----------------
         O            2.157842549724    -1.162622138724    -0.117746414651    15.994914619570
         O            2.157842549724     1.154941861276    -0.117729414651    15.994914619570
         C           -1.530950450276    -0.709652138724    -0.000682414651    12.000000000000
         C           -1.504993450276     0.750004061276     0.089266885349    12.000000000000
         C            0.856742549724    -0.698357138724    -0.040733414651    12.000000000000
         C            0.856741549724     0.690676861276    -0.040710414651    12.000000000000
         C           -0.318741450276    -1.424813138724    -0.026321414651    12.000000000000
         C           -0.318743450276     1.417130861276    -0.026340414651    12.000000000000
         C            2.938320549724    -0.003842138724     0.205716585349    12.000000000000
         C           -2.833593450276    -1.467429138724     0.032138585349    12.000000000000
         C           -2.833594450276     1.459745861276     0.032127585349    12.000000000000
         H           -0.304648450276    -2.511753138724    -0.034210414651     1.007825032230
         H           -0.304649450276     2.504070861276    -0.034199414651     1.007825032230
         H            3.157585549724    -0.003851138724     1.283064585349     1.007825032230
         H            3.848095549724    -0.003837138724    -0.393972414651     1.007825032230
         H           -2.652839450276    -2.545447138724     0.019299585349     1.007825032230
         H           -3.413349450276    -1.235127138724     0.932370585349     1.007825032230
         H           -3.464087450276    -1.222562138724    -0.829715414651     1.007825032230
         H           -3.413337450276     1.227488861276     0.932381585349     1.007825032230
         H           -2.652842450276     2.537763861276     0.019232585349     1.007825032230
         H           -3.464099450276     1.214832861276    -0.829704414651     1.007825032230

  Basis Set: AUG-CC-PVTZ
    Blend: AUG-CC-PVTZ
  Basis Set: (AUG-CC-PVTZ AUX)
    Blend: AUG-CC-PVTZ-JKFIT
	 Reference Energy          =    -496.5076499801336922 [Eh]
	 Singles Energy            =      -0.0000000000000000 [Eh]
	 Same-Spin Energy          =      -0.5242886862292293 [Eh]
	 Opposite-Spin Energy      =      -1.6327578068890041 [Eh]
	 Correlation Energy        =      -2.1570464931182336 [Eh]
	 Total Energy              =    -498.6646964732519223 [Eh]

	 ================> DF-SCS-MP2 Energies <==================
	-----------------------------------------------------------
	 SCS Same-Spin Scale       =       0.3333333333333333 [-]
	 SCS Opposite-Spin Scale   =       1.2000000000000000 [-]
	 SCS Same-Spin Energy      =      -0.1747628954097431 [Eh]
	 SCS Opposite-Spin Energy  =      -1.9593093682668048 [Eh]
	 SCS Correlation Energy    =      -2.1340722636765479 [Eh]
	 SCS Total Energy          =    -498.6417222438102499 [Eh]
	-----------------------------------------------------------

  Dipole Moment: [D]
     X:    -0.6022      Y:    -0.0201      Z:     0.5210     Total:     0.7965

*** Psi4 exiting successfully. Buy a developer a beer!
