                               Psi4 1.4a3.dev225

  ==> Input File <==

--------------------------------------------------------------------------
#psi4
#
memory 32 gb

molecule  {
0 1
  O        2.2381840    -1.1587810    -0.1175950
  O        2.2381840     1.1587830    -0.1175780
  C       -1.4506090    -0.7058110    -0.0005310
  C       -1.4506100     0.7058110    -0.0005190
  C        0.9370840    -0.6945160    -0.0405820
  C        0.9370830     0.6945180    -0.0405590
  C       -0.2384000    -1.4209720    -0.0261700
  C       -0.2384020     1.4209720    -0.0261890
  C        3.0077772    -0.0161618     0.2013569
  C       -2.7532520    -1.4635880     0.0322900
  C       -2.7532530     1.4635870     0.0322790
  H       -0.2243070    -2.5079120    -0.0340590
  H       -0.2243080     2.5079120    -0.0340480
  H        3.2379270    -0.0000100     1.2832160
  H        3.9284370     0.0000040    -0.3938210
  H       -2.5724980    -2.5416060     0.0194510
  H       -3.3330080    -1.2312860     0.9325220
  H       -3.3837460    -1.2187210    -0.8295640
  H       -3.3329960     1.2313300     0.9325330
  H       -2.5725010     2.5416050     0.0193840
  H       -3.3837580     1.2186740    -0.8295530
units angstrom
no_reorient  #important for SAPT in psi4, default
symmetry c1  #important for SAPT in psi4, default
}

set PROPERTIES_ORIGIN ["COM"]
properties('MP2/aug-cc-pvtz', properties = ['dipole'])
--------------------------------------------------------------------------

    Molecular point group: c1
  Charge       = 0
  Multiplicity = 1
  Basis Set: AUG-CC-PVTZ
    Blend: AUG-CC-PVTZ
  Basis Set: (AUG-CC-PVTZ AUX)
    Blend: AUG-CC-PVTZ-JKFIT

    Orbital Energies [Eh]
    ---------------------

    Doubly Occupied:

       1A    -20.598281     2A    -20.595228     3A    -11.352001
       4A    -11.292685     5A    -11.291322     6A    -11.242749
       7A    -11.241607     8A    -11.239064     9A    -11.238312
      10A    -11.225603    11A    -11.225578    12A     -1.470461
      13A     -1.367046    14A     -1.158994    15A     -1.053678
      16A     -1.038766    17A     -0.952873    18A     -0.942174
      19A     -0.882215    20A     -0.837600    21A     -0.796916
      22A     -0.716503    23A     -0.713246    24A     -0.676257
      25A     -0.647793    26A     -0.615806    27A     -0.611124
      28A     -0.595547    29A     -0.575729    30A     -0.566095
      31A     -0.551831    32A     -0.541544    33A     -0.537000
      34A     -0.533049    35A     -0.528232    36A     -0.501253
      37A     -0.491792    38A     -0.440938    39A     -0.334802
      40A     -0.293669

  @DF-RHF Final Energy:  -496.51410567768824

   => Energetics <=

    Nuclear Repulsion Energy =            601.5785270140810326
    One-Electron Energy =               -1869.1545318938203764
    Two-Electron Energy =                 771.0618992020509950
    Total Energy =                       -496.5141056776882351
  Basis Set: (AUG-CC-PVTZ AUX)
    Blend: AUG-CC-PVTZ-RI
    Molecular point group: c1

    Geometry (in Angstrom), charge = 0, multiplicity = 1:

       Center              X                  Y                   Z               Mass
    ------------   -----------------  -----------------  -----------------  -----------------
         O            2.160788636602    -1.157488868529    -0.110193970431    15.994914619570
         O            2.160788636602     1.160075131471    -0.110176970431    15.994914619570
         C           -1.528004363398    -0.704518868529     0.006870029569    12.000000000000
         C           -1.528005363398     0.707103131471     0.006882029569    12.000000000000
         C            0.859688636602    -0.693223868529    -0.033180970431    12.000000000000
         C            0.859687636602     0.695810131471    -0.033157970431    12.000000000000
         C           -0.315795363398    -1.419679868529    -0.018768970431    12.000000000000
         C           -0.315797363398     1.422264131471    -0.018787970431    12.000000000000
         C            2.930381836602    -0.014869668529     0.208757929569    12.000000000000
         C           -2.830647363398    -1.462295868529     0.039691029569    12.000000000000
         C           -2.830648363398     1.464879131471     0.039680029569    12.000000000000
         H           -0.301702363398    -2.506619868529    -0.026657970431     1.007825032230
         H           -0.301703363398     2.509204131471    -0.026646970431     1.007825032230
         H            3.160531636602     0.001282131471     1.290617029569     1.007825032230
         H            3.851041636602     0.001296131471    -0.386419970431     1.007825032230
         H           -2.649893363398    -2.540313868529     0.026852029569     1.007825032230
         H           -3.410403363398    -1.229993868529     0.939923029569     1.007825032230
         H           -3.461141363398    -1.217428868529    -0.822162970431     1.007825032230
         H           -3.410391363398     1.232622131471     0.939934029569     1.007825032230
         H           -2.649896363398     2.542897131471     0.026785029569     1.007825032230
         H           -3.461153363398     1.219966131471    -0.822151970431     1.007825032230

  Basis Set: AUG-CC-PVTZ
    Blend: AUG-CC-PVTZ
  Basis Set: (AUG-CC-PVTZ AUX)
    Blend: AUG-CC-PVTZ-JKFIT
	 Reference Energy          =    -496.5141056776882351 [Eh]
	 Singles Energy            =      -0.0000000000000000 [Eh]
	 Same-Spin Energy          =      -0.5240847622200029 [Eh]
	 Opposite-Spin Energy      =      -1.6321423691212047 [Eh]
	 Correlation Energy        =      -2.1562271313412076 [Eh]
	 Total Energy              =    -498.6703328090294463 [Eh]

	 ================> DF-SCS-MP2 Energies <==================
	-----------------------------------------------------------
	 SCS Same-Spin Scale       =       0.3333333333333333 [-]
	 SCS Opposite-Spin Scale   =       1.2000000000000000 [-]
	 SCS Same-Spin Energy      =      -0.1746949207400010 [Eh]
	 SCS Opposite-Spin Energy  =      -1.9585708429454456 [Eh]
	 SCS Correlation Energy    =      -2.1332657636854466 [Eh]
	 SCS Total Energy          =    -498.6473714413737071 [Eh]
	-----------------------------------------------------------

  Dipole Moment: [D]
     X:    -0.6382      Y:    -0.0524      Z:     0.5404     Total:     0.8379

*** Psi4 exiting successfully. Buy a developer a beer!
