                               Psi4 1.4a3.dev225

  ==> Input File <==

--------------------------------------------------------------------------
#psi4
#
memory 32 gb

molecule  {
0 1
  O        2.2381840    -1.1587810    -0.1175950
  O        2.2381840     1.1587830    -0.1175780
  C       -1.4506090    -0.7058110    -0.0005310
  C       -1.4580967     0.6943705    -0.0229955
  C        0.9370840    -0.6945160    -0.0405820
  C        0.9370830     0.6945180    -0.0405590
  C       -0.2384000    -1.4209720    -0.0261700
  C       -0.2384020     1.4209720    -0.0261890
  C        3.0186620    -0.0000010     0.2058680
  C       -2.7532520    -1.4635880     0.0322900
  C       -2.7532530     1.4635870     0.0322790
  H       -0.2243070    -2.5079120    -0.0340590
  H       -0.2243080     2.5079120    -0.0340480
  H        3.2379270    -0.0000100     1.2832160
  H        3.9284370     0.0000040    -0.3938210
  H       -2.5724980    -2.5416060     0.0194510
  H       -3.3330080    -1.2312860     0.9325220
  H       -3.3837460    -1.2187210    -0.8295640
  H       -3.3329960     1.2313300     0.9325330
  H       -2.5725010     2.5416050     0.0193840
  H       -3.3837580     1.2186740    -0.8295530
units angstrom
no_reorient  #important for SAPT in psi4, default
symmetry c1  #important for SAPT in psi4, default
}

set PROPERTIES_ORIGIN ["COM"]
properties('MP2/aug-cc-pvtz', properties = ['dipole'])
--------------------------------------------------------------------------

    Molecular point group: c1
  Charge       = 0
  Multiplicity = 1
  Basis Set: AUG-CC-PVTZ
    Blend: AUG-CC-PVTZ
  Basis Set: (AUG-CC-PVTZ AUX)
    Blend: AUG-CC-PVTZ-JKFIT

    Orbital Energies [Eh]
    ---------------------

    Doubly Occupied:

       1A    -20.596405     2A    -20.596336     3A    -11.352489
       4A    -11.292490     5A    -11.291214     6A    -11.241867
       7A    -11.240299     8A    -11.239130     9A    -11.238199
      10A    -11.225230    11A    -11.224984    12A     -1.467484
      13A     -1.364934    14A     -1.158585    15A     -1.054098
      16A     -1.036985    17A     -0.952087    18A     -0.942795
      19A     -0.882895    20A     -0.838707    21A     -0.794573
      22A     -0.716090    23A     -0.712783    24A     -0.674807
      25A     -0.648419    26A     -0.614890    27A     -0.611309
      28A     -0.595387    29A     -0.574288    30A     -0.566490
      31A     -0.551240    32A     -0.541087    33A     -0.535262
      34A     -0.533499    35A     -0.529948    36A     -0.498693
      37A     -0.493008    38A     -0.441676    39A     -0.333097
      40A     -0.294590

  @DF-RHF Final Energy:  -496.51401822361169

   => Energetics <=

    Nuclear Repulsion Energy =            601.2956107689191185
    One-Electron Energy =               -1868.6225588744923698
    Two-Electron Energy =                 770.8129298819615087
    Total Energy =                       -496.5140182236116289
  Basis Set: (AUG-CC-PVTZ AUX)
    Blend: AUG-CC-PVTZ-RI
    Molecular point group: c1

    Geometry (in Angstrom), charge = 0, multiplicity = 1:

       Center              X                  Y                   Z               Mass
    ------------   -----------------  -----------------  -----------------  -----------------
         O            2.160516911928    -1.157866321217    -0.108757390443    15.994914619570
         O            2.160516911928     1.159697678783    -0.108740390443    15.994914619570
         C           -1.528276088072    -0.704896321217     0.008306609557    12.000000000000
         C           -1.535763788072     0.695285178783    -0.014157890443    12.000000000000
         C            0.859416911928    -0.693601321217    -0.031744390443    12.000000000000
         C            0.859415911928     0.695432678783    -0.031721390443    12.000000000000
         C           -0.316067088072    -1.420057321217    -0.017332390443    12.000000000000
         C           -0.316069088072     1.421886678783    -0.017351390443    12.000000000000
         C            2.940994911928     0.000913678783     0.214705609557    12.000000000000
         C           -2.830919088072    -1.462673321217     0.041127609557    12.000000000000
         C           -2.830920088072     1.464501678783     0.041116609557    12.000000000000
         H           -0.301974088072    -2.506997321217    -0.025221390443     1.007825032230
         H           -0.301975088072     2.508826678783    -0.025210390443     1.007825032230
         H            3.160259911928     0.000904678783     1.292053609557     1.007825032230
         H            3.850769911928     0.000918678783    -0.384983390443     1.007825032230
         H           -2.650165088072    -2.540691321217     0.028288609557     1.007825032230
         H           -3.410675088072    -1.230371321217     0.941359609557     1.007825032230
         H           -3.461413088072    -1.217806321217    -0.820726390443     1.007825032230
         H           -3.410663088072     1.232244678783     0.941370609557     1.007825032230
         H           -2.650168088072     2.542519678783     0.028221609557     1.007825032230
         H           -3.461425088072     1.219588678783    -0.820715390443     1.007825032230

  Basis Set: AUG-CC-PVTZ
    Blend: AUG-CC-PVTZ
  Basis Set: (AUG-CC-PVTZ AUX)
    Blend: AUG-CC-PVTZ-JKFIT
	 Reference Energy          =    -496.5140182236116857 [Eh]
	 Singles Energy            =      -0.0000000000000000 [Eh]
	 Same-Spin Energy          =      -0.5240034168699630 [Eh]
	 Opposite-Spin Energy      =      -1.6322537239912476 [Eh]
	 Correlation Energy        =      -2.1562571408612108 [Eh]
	 Total Energy              =    -498.6702753644729000 [Eh]

	 ================> DF-SCS-MP2 Energies <==================
	-----------------------------------------------------------
	 SCS Same-Spin Scale       =       0.3333333333333333 [-]
	 SCS Opposite-Spin Scale   =       1.2000000000000000 [-]
	 SCS Same-Spin Energy      =      -0.1746678056233210 [Eh]
	 SCS Opposite-Spin Energy  =      -1.9587044687894970 [Eh]
	 SCS Correlation Energy    =      -2.1333722744128178 [Eh]
	 SCS Total Energy          =    -498.6473904980244924 [Eh]
	-----------------------------------------------------------

  Dipole Moment: [D]
     X:    -0.5572      Y:     0.0013      Z:     0.5748     Total:     0.8006

*** Psi4 exiting successfully. Buy a developer a beer!
