                               Psi4 1.4a3.dev225

  ==> Input File <==

--------------------------------------------------------------------------
#psi4
#
memory 32 gb

molecule  {
0 1
  O        2.2381840    -1.1587810    -0.1175950
  O        2.2381840     1.1587830    -0.1175780
  C       -1.4506090    -0.7058110    -0.0005310
  C       -1.4506100     0.7058110    -0.0005190
  C        0.9370840    -0.6945160    -0.0405820
  C        0.9370830     0.6945180    -0.0405590
  C       -0.2384000    -1.4209720    -0.0261700
  C       -0.2384020     1.4209720    -0.0261890
  C        3.0186620    -0.0000010     0.2058680
  C       -2.7532520    -1.4635880     0.0322900
  C       -2.7532530     1.4635870     0.0322790
  H       -0.2230106    -2.6079010    -0.0347847
  H       -0.2243080     2.5079120    -0.0340480
  H        3.2379270    -0.0000100     1.2832160
  H        3.9284370     0.0000040    -0.3938210
  H       -2.5724980    -2.5416060     0.0194510
  H       -3.3330080    -1.2312860     0.9325220
  H       -3.3837460    -1.2187210    -0.8295640
  H       -3.3329960     1.2313300     0.9325330
  H       -2.5725010     2.5416050     0.0193840
  H       -3.3837580     1.2186740    -0.8295530
units angstrom
no_reorient  #important for SAPT in psi4, default
symmetry c1  #important for SAPT in psi4, default
}

set PROPERTIES_ORIGIN ["COM"]
properties('MP2/aug-cc-pvtz', properties = ['dipole'])
--------------------------------------------------------------------------

    Molecular point group: c1
  Charge       = 0
  Multiplicity = 1
  Basis Set: AUG-CC-PVTZ
    Blend: AUG-CC-PVTZ
  Basis Set: (AUG-CC-PVTZ AUX)
    Blend: AUG-CC-PVTZ-JKFIT

    Orbital Energies [Eh]
    ---------------------

    Doubly Occupied:

       1A    -20.596491     2A    -20.596247     3A    -11.352506
       4A    -11.292995     5A    -11.291701     6A    -11.249348
       7A    -11.243083     8A    -11.241965     9A    -11.238631
      10A    -11.225691    11A    -11.225167    12A     -1.467475
      13A     -1.364914    14A     -1.158630    15A     -1.053693
      16A     -1.036647    17A     -0.951725    18A     -0.942946
      19A     -0.882605    20A     -0.832832    21A     -0.795681
      22A     -0.715268    23A     -0.711831    24A     -0.674204
      25A     -0.645928    26A     -0.611965    27A     -0.601253
      28A     -0.595565    29A     -0.574027    30A     -0.566101
      31A     -0.551615    32A     -0.540370    33A     -0.534983
      34A     -0.532941    35A     -0.530444    36A     -0.501340
      37A     -0.487480    38A     -0.442126    39A     -0.334836
      40A     -0.293774

  @DF-RHF Final Energy:  -496.50684264100880

   => Energetics <=

    Nuclear Repulsion Energy =            600.7639164188344694
    One-Electron Energy =               -1867.5674683264767282
    Two-Electron Energy =                 770.2967092666334565
    Total Energy =                       -496.5068426410088023
  Basis Set: (AUG-CC-PVTZ AUX)
    Blend: AUG-CC-PVTZ-RI
    Molecular point group: c1

    Geometry (in Angstrom), charge = 0, multiplicity = 1:

       Center              X                  Y                   Z               Mass
    ------------   -----------------  -----------------  -----------------  -----------------
         O            2.159909541295    -1.158109641335    -0.110549821066    15.994914619570
         O            2.159909541295     1.159454358665    -0.110532821066    15.994914619570
         C           -1.528883458705    -0.705139641335     0.006514178934    12.000000000000
         C           -1.528884458705     0.706482358665     0.006526178934    12.000000000000
         C            0.858809541295    -0.693844641335    -0.033536821066    12.000000000000
         C            0.858808541295     0.695189358665    -0.033513821066    12.000000000000
         C           -0.316674458705    -1.420300641335    -0.019124821066    12.000000000000
         C           -0.316676458705     1.421643358665    -0.019143821066    12.000000000000
         C            2.940387541295     0.000670358665     0.212913178934    12.000000000000
         C           -2.831526458705    -1.462916641335     0.039335178934    12.000000000000
         C           -2.831527458705     1.464258358665     0.039324178934    12.000000000000
         H           -0.301285058705    -2.607229641335    -0.027739521066     1.007825032230
         H           -0.302582458705     2.508583358665    -0.027002821066     1.007825032230
         H            3.159652541295     0.000661358665     1.290261178934     1.007825032230
         H            3.850162541295     0.000675358665    -0.386775821066     1.007825032230
         H           -2.650772458705    -2.540934641335     0.026496178934     1.007825032230
         H           -3.411282458705    -1.230614641335     0.939567178934     1.007825032230
         H           -3.462020458705    -1.218049641335    -0.822518821066     1.007825032230
         H           -3.411270458705     1.232001358665     0.939578178934     1.007825032230
         H           -2.650775458705     2.542276358665     0.026429178934     1.007825032230
         H           -3.462032458705     1.219345358665    -0.822507821066     1.007825032230

  Basis Set: AUG-CC-PVTZ
    Blend: AUG-CC-PVTZ
  Basis Set: (AUG-CC-PVTZ AUX)
    Blend: AUG-CC-PVTZ-JKFIT
	 Reference Energy          =    -496.5068426410088023 [Eh]
	 Singles Energy            =      -0.0000000000000000 [Eh]
	 Same-Spin Energy          =      -0.5243382924945532 [Eh]
	 Opposite-Spin Energy      =      -1.6332026258887393 [Eh]
	 Correlation Energy        =      -2.1575409183832925 [Eh]
	 Total Energy              =    -498.6643835593920926 [Eh]

	 ================> DF-SCS-MP2 Energies <==================
	-----------------------------------------------------------
	 SCS Same-Spin Scale       =       0.3333333333333333 [-]
	 SCS Opposite-Spin Scale   =       1.2000000000000000 [-]
	 SCS Same-Spin Energy      =      -0.1747794308315177 [Eh]
	 SCS Opposite-Spin Energy  =      -1.9598431510664871 [Eh]
	 SCS Correlation Energy    =      -2.1346225818980047 [Eh]
	 SCS Total Energy          =    -498.6414652229067883 [Eh]
	-----------------------------------------------------------

  Dipole Moment: [D]
     X:    -0.5697      Y:     0.0281      Z:     0.5644     Total:     0.8024

*** Psi4 exiting successfully. Buy a developer a beer!
