                               Psi4 1.4a3.dev225

  ==> Input File <==

--------------------------------------------------------------------------
#psi4
#
memory 32 gb

molecule  {
0 1
  O        2.2381840    -1.1587810    -0.1175950
  O        2.2381840     1.1587830    -0.1175780
  C       -1.4506090    -0.7058110    -0.0005310
  C       -1.4506100     0.7058110    -0.0005190
  C        0.9370840    -0.6945160    -0.0405820
  C        0.9370830     0.6945180    -0.0405590
  C       -0.2384000    -1.4209720    -0.0261700
  C       -0.2384020     1.4209720    -0.0261890
  C        3.0186620    -0.0000010     0.2058680
  C       -2.7532520    -1.4635880     0.0322900
  C       -2.7532530     1.4635870     0.0322790
  H       -0.2243070    -2.5079120    -0.0340590
  H       -0.2243080     2.5079120    -0.0340480
  H        3.2419157    -0.0000102     1.3028142
  H        3.9284370     0.0000040    -0.3938210
  H       -2.5724980    -2.5416060     0.0194510
  H       -3.3330080    -1.2312860     0.9325220
  H       -3.3837460    -1.2187210    -0.8295640
  H       -3.3329960     1.2313300     0.9325330
  H       -2.5725010     2.5416050     0.0193840
  H       -3.3837580     1.2186740    -0.8295530
units angstrom
no_reorient  #important for SAPT in psi4, default
symmetry c1  #important for SAPT in psi4, default
}

set PROPERTIES_ORIGIN ["COM"]
properties('MP2/aug-cc-pvtz', properties = ['dipole'])
--------------------------------------------------------------------------

    Molecular point group: c1
  Charge       = 0
  Multiplicity = 1
  Basis Set: AUG-CC-PVTZ
    Blend: AUG-CC-PVTZ
  Basis Set: (AUG-CC-PVTZ AUX)
    Blend: AUG-CC-PVTZ-JKFIT

    Orbital Energies [Eh]
    ---------------------

    Doubly Occupied:

       1A    -20.596501     2A    -20.596481     3A    -11.354643
       4A    -11.292257     5A    -11.290985     6A    -11.242416
       7A    -11.241317     8A    -11.238400     9A    -11.238381
      10A    -11.225383    11A    -11.225377    12A     -1.467365
      13A     -1.364946    14A     -1.158573    15A     -1.053174
      16A     -1.038424    17A     -0.952449    18A     -0.941970
      19A     -0.881642    20A     -0.837087    21A     -0.795756
      22A     -0.715816    23A     -0.710934    24A     -0.675182
      25A     -0.648258    26A     -0.615169    27A     -0.610883
      28A     -0.595383    29A     -0.574233    30A     -0.565768
      31A     -0.551581    32A     -0.541088    33A     -0.535321
      34A     -0.533022    35A     -0.529537    36A     -0.500908
      37A     -0.491406    38A     -0.441241    39A     -0.334479
      40A     -0.293331

  @DF-RHF Final Energy:  -496.51369544618399

   => Energetics <=

    Nuclear Repulsion Energy =            601.1821965063004427
    One-Electron Energy =               -1868.3976495352312668
    Two-Electron Energy =                 770.7017575827468363
    Total Energy =                       -496.5136954461839878
  Basis Set: (AUG-CC-PVTZ AUX)
    Blend: AUG-CC-PVTZ-RI
    Molecular point group: c1

    Geometry (in Angstrom), charge = 0, multiplicity = 1:

       Center              X                  Y                   Z               Mass
    ------------   -----------------  -----------------  -----------------  -----------------
         O            2.159891460386    -1.158781144668    -0.110686312019    15.994914619570
         O            2.159891460386     1.158782855332    -0.110669312019    15.994914619570
         C           -1.528901539614    -0.705811144668     0.006377687981    12.000000000000
         C           -1.528902539614     0.705810855332     0.006389687981    12.000000000000
         C            0.858791460386    -0.694516144668    -0.033673312019    12.000000000000
         C            0.858790460386     0.694517855332    -0.033650312019    12.000000000000
         C           -0.316692539614    -1.420972144668    -0.019261312019    12.000000000000
         C           -0.316694539614     1.420971855332    -0.019280312019    12.000000000000
         C            2.940369460386    -0.000001144668     0.212776687981    12.000000000000
         C           -2.831544539614    -1.463588144668     0.039198687981    12.000000000000
         C           -2.831545539614     1.463586855332     0.039187687981    12.000000000000
         H           -0.302599539614    -2.507912144668    -0.027150312019     1.007825032230
         H           -0.302600539614     2.507911855332    -0.027139312019     1.007825032230
         H            3.163623160386    -0.000010344668     1.309722887981     1.007825032230
         H            3.850144460386     0.000003855332    -0.386912312019     1.007825032230
         H           -2.650790539614    -2.541606144668     0.026359687981     1.007825032230
         H           -3.411300539614    -1.231286144668     0.939430687981     1.007825032230
         H           -3.462038539614    -1.218721144668    -0.822655312019     1.007825032230
         H           -3.411288539614     1.231329855332     0.939441687981     1.007825032230
         H           -2.650793539614     2.541604855332     0.026292687981     1.007825032230
         H           -3.462050539614     1.218673855332    -0.822644312019     1.007825032230

  Basis Set: AUG-CC-PVTZ
    Blend: AUG-CC-PVTZ
  Basis Set: (AUG-CC-PVTZ AUX)
    Blend: AUG-CC-PVTZ-JKFIT
	 Reference Energy          =    -496.5136954461839878 [Eh]
	 Singles Energy            =      -0.0000000000000000 [Eh]
	 Same-Spin Energy          =      -0.5241016823466893 [Eh]
	 Opposite-Spin Energy      =      -1.6324266385093551 [Eh]
	 Correlation Energy        =      -2.1565283208560446 [Eh]
	 Total Energy              =    -498.6702237670400564 [Eh]

	 ================> DF-SCS-MP2 Energies <==================
	-----------------------------------------------------------
	 SCS Same-Spin Scale       =       0.3333333333333333 [-]
	 SCS Opposite-Spin Scale   =       1.2000000000000000 [-]
	 SCS Same-Spin Energy      =      -0.1747005607822298 [Eh]
	 SCS Opposite-Spin Energy  =      -1.9589119662112260 [Eh]
	 SCS Correlation Energy    =      -2.1336125269934558 [Eh]
	 SCS Total Energy          =    -498.6473079731774192 [Eh]
	-----------------------------------------------------------

  Dipole Moment: [D]
     X:    -0.5882      Y:    -0.0000      Z:     0.5477     Total:     0.8037

*** Psi4 exiting successfully. Buy a developer a beer!
