                               Psi4 1.4a3.dev225

  ==> Input File <==

--------------------------------------------------------------------------
#psi4
#
memory 32 gb

molecule  {
0 1
  O        2.2381840    -1.1587810    -0.1175950
  O        2.2381840     1.1587830    -0.1175780
  C       -1.4506090    -0.7058110    -0.0005310
  C       -1.4506100     0.7058110    -0.0005190
  C        0.9370840    -0.6945160    -0.0405820
  C        0.9370830     0.6945180    -0.0405590
  C       -0.2384000    -1.4209720    -0.0261700
  C       -0.2384020     1.4209720    -0.0261890
  C        3.0186620    -0.0000010     0.2058680
  C       -2.5804161    -1.3630455     0.0279353
  C       -2.7532530     1.4635870     0.0322790
  H       -0.2243070    -2.5079120    -0.0340590
  H       -0.2243080     2.5079120    -0.0340480
  H        3.2379270    -0.0000100     1.2832160
  H        3.9284370     0.0000040    -0.3938210
  H       -2.5724980    -2.5416060     0.0194510
  H       -3.3330080    -1.2312860     0.9325220
  H       -3.3837460    -1.2187210    -0.8295640
  H       -3.3329960     1.2313300     0.9325330
  H       -2.5725010     2.5416050     0.0193840
  H       -3.3837580     1.2186740    -0.8295530
units angstrom
no_reorient  #important for SAPT in psi4, default
symmetry c1  #important for SAPT in psi4, default
}

set PROPERTIES_ORIGIN ["COM"]
properties('MP2/aug-cc-pvtz', properties = ['dipole'])
--------------------------------------------------------------------------

    Molecular point group: c1
  Charge       = 0
  Multiplicity = 1
  Basis Set: AUG-CC-PVTZ
    Blend: AUG-CC-PVTZ
  Basis Set: (AUG-CC-PVTZ AUX)
    Blend: AUG-CC-PVTZ-JKFIT

    Orbital Energies [Eh]
    ---------------------

    Doubly Occupied:

       1A    -20.597577     2A    -20.597155     3A    -11.353320
       4A    -11.293761     5A    -11.292197     6A    -11.243667
       7A    -11.239600     8A    -11.239401     9A    -11.236083
      10A    -11.229130    11A    -11.225701    12A     -1.468444
      13A     -1.365905    14A     -1.171675    15A     -1.074710
      16A     -1.045081    17A     -0.955983    18A     -0.942829
      19A     -0.879499    20A     -0.836820    21A     -0.793095
      22A     -0.719494    23A     -0.715443    24A     -0.687312
      25A     -0.656021    26A     -0.617429    27A     -0.613503
      28A     -0.595519    29A     -0.587208    30A     -0.575121
      31A     -0.544566    32A     -0.541310    33A     -0.535871
      34A     -0.525478    35A     -0.519117    36A     -0.508395
      37A     -0.471255    38A     -0.434435    39A     -0.333543
      40A     -0.289976

  @DF-RHF Final Energy:  -496.46197088410781

   => Energetics <=

    Nuclear Repulsion Energy =            605.2751770424264350
    One-Electron Energy =               -1876.3690374704192436
    Two-Electron Energy =                 774.6318895438848813
    Total Energy =                       -496.4619708841078136
  Basis Set: (AUG-CC-PVTZ AUX)
    Blend: AUG-CC-PVTZ-RI
    Molecular point group: c1

    Geometry (in Angstrom), charge = 0, multiplicity = 1:

       Center              X                  Y                   Z               Mass
    ------------   -----------------  -----------------  -----------------  -----------------
         O            2.146097648309    -1.166820897059    -0.110206476755    15.994914619570
         O            2.146097648309     1.150743102941    -0.110189476755    15.994914619570
         C           -1.542695351691    -0.713850897059     0.006857523245    12.000000000000
         C           -1.542696351691     0.697771102941     0.006869523245    12.000000000000
         C            0.844997648309    -0.702555897059    -0.033193476755    12.000000000000
         C            0.844996648309     0.686478102941    -0.033170476755    12.000000000000
         C           -0.330486351691    -1.429011897059    -0.018781476755    12.000000000000
         C           -0.330488351691     1.412932102941    -0.018800476755    12.000000000000
         C            2.926575648309    -0.008040897059     0.213256523245    12.000000000000
         C           -2.672502451691    -1.371085397059     0.035323823245    12.000000000000
         C           -2.845339351691     1.455547102941     0.039667523245    12.000000000000
         H           -0.316393351691    -2.515951897059    -0.026670476755     1.007825032230
         H           -0.316394351691     2.499872102941    -0.026659476755     1.007825032230
         H            3.145840648309    -0.008049897059     1.290604523245     1.007825032230
         H            3.836350648309    -0.008035897059    -0.386432476755     1.007825032230
         H           -2.664584351691    -2.549645897059     0.026839523245     1.007825032230
         H           -3.425094351691    -1.239325897059     0.939910523245     1.007825032230
         H           -3.475832351691    -1.226760897059    -0.822175476755     1.007825032230
         H           -3.425082351691     1.223290102941     0.939921523245     1.007825032230
         H           -2.664587351691     2.533565102941     0.026772523245     1.007825032230
         H           -3.475844351691     1.210634102941    -0.822164476755     1.007825032230

  Basis Set: AUG-CC-PVTZ
    Blend: AUG-CC-PVTZ
  Basis Set: (AUG-CC-PVTZ AUX)
    Blend: AUG-CC-PVTZ-JKFIT
	 Reference Energy          =    -496.4619708841078136 [Eh]
	 Singles Energy            =      -0.0000000000000000 [Eh]
	 Same-Spin Energy          =      -0.5278621503224210 [Eh]
	 Opposite-Spin Energy      =      -1.6370792328768831 [Eh]
	 Correlation Energy        =      -2.1649413831993041 [Eh]
	 Total Energy              =    -498.6269122673070910 [Eh]

	 ================> DF-SCS-MP2 Energies <==================
	-----------------------------------------------------------
	 SCS Same-Spin Scale       =       0.3333333333333333 [-]
	 SCS Opposite-Spin Scale   =       1.2000000000000000 [-]
	 SCS Same-Spin Energy      =      -0.1759540501074737 [Eh]
	 SCS Opposite-Spin Energy  =      -1.9644950794522595 [Eh]
	 SCS Correlation Energy    =      -2.1404491295597330 [Eh]
	 SCS Total Energy          =    -498.6024200136675404 [Eh]
	-----------------------------------------------------------

  Dipole Moment: [D]
     X:    -0.4755      Y:     0.0567      Z:     0.5621     Total:     0.7384

*** Psi4 exiting successfully. Buy a developer a beer!
