                               Psi4 1.4a3.dev225

  ==> Input File <==

--------------------------------------------------------------------------
#psi4
#
memory 32 gb

molecule  {
0 1
  O        2.2381840    -1.1587810    -0.1175950
  O        2.2381840     1.1587830    -0.1175780
  C       -1.4506090    -0.7058110    -0.0005310
  C       -1.4506100     0.7058110    -0.0005190
  C        0.9370840    -0.6945160    -0.0405820
  C        0.9370830     0.6945180    -0.0405590
  C       -0.2384000    -1.4209720    -0.0261700
  C       -0.2384020     1.4209720    -0.0261890
  C        3.0186620    -0.0000010     0.2058680
  C       -2.7532520    -1.4635880     0.0322900
  C       -2.7532530     1.4635870     0.0322790
  H       -0.2243070    -2.5079120    -0.0340590
  H       -0.2243080     2.5079120    -0.0340480
  H        3.2379270    -0.0000100     1.2832160
  H        3.9701835     0.0000042    -0.4213387
  H       -2.5724980    -2.5416060     0.0194510
  H       -3.3330080    -1.2312860     0.9325220
  H       -3.3837460    -1.2187210    -0.8295640
  H       -3.3329960     1.2313300     0.9325330
  H       -2.5725010     2.5416050     0.0193840
  H       -3.3837580     1.2186740    -0.8295530
units angstrom
no_reorient  #important for SAPT in psi4, default
symmetry c1  #important for SAPT in psi4, default
}

set PROPERTIES_ORIGIN ["COM"]
properties('MP2/aug-cc-pvtz', properties = ['dipole'])
--------------------------------------------------------------------------

    Molecular point group: c1
  Charge       = 0
  Multiplicity = 1
  Basis Set: AUG-CC-PVTZ
    Blend: AUG-CC-PVTZ
  Basis Set: (AUG-CC-PVTZ AUX)
    Blend: AUG-CC-PVTZ-JKFIT

    Orbital Energies [Eh]
    ---------------------

    Doubly Occupied:

       1A    -20.596691     2A    -20.596671     3A    -11.357949
       4A    -11.292424     5A    -11.291153     6A    -11.242523
       7A    -11.241425     8A    -11.238529     9A    -11.238509
      10A    -11.225461    11A    -11.225454    12A     -1.467517
      13A     -1.365154    14A     -1.158613    15A     -1.052814
      16A     -1.038533    17A     -0.952546    18A     -0.939993
      19A     -0.880977    20A     -0.836986    21A     -0.795839
      22A     -0.713467    23A     -0.712901    24A     -0.675274
      25A     -0.645785    26A     -0.615295    27A     -0.609125
      28A     -0.595189    29A     -0.574536    30A     -0.565996
      31A     -0.551660    32A     -0.541167    33A     -0.535388
      34A     -0.533254    35A     -0.527135    36A     -0.500987
      37A     -0.491492    38A     -0.441216    39A     -0.334606
      40A     -0.293434

  @DF-RHF Final Energy:  -496.51194265604147

   => Energetics <=

    Nuclear Repulsion Energy =            601.0159554946517346
    One-Electron Energy =               -1868.0684620435602028
    Two-Electron Energy =                 770.5405638928669987
    Total Energy =                       -496.5119426560414695
  Basis Set: (AUG-CC-PVTZ AUX)
    Blend: AUG-CC-PVTZ-RI
    Molecular point group: c1

    Geometry (in Angstrom), charge = 0, multiplicity = 1:

       Center              X                  Y                   Z               Mass
    ------------   -----------------  -----------------  -----------------  -----------------
         O            2.159637887100    -1.158781147354    -0.110369891741    15.994914619570
         O            2.159637887100     1.158782852646    -0.110352891741    15.994914619570
         C           -1.529155112900    -0.705811147354     0.006694108259    12.000000000000
         C           -1.529156112900     0.705810852646     0.006706108259    12.000000000000
         C            0.858537887100    -0.694516147354    -0.033356891741    12.000000000000
         C            0.858536887100     0.694517852646    -0.033333891741    12.000000000000
         C           -0.316946112900    -1.420972147354    -0.018944891741    12.000000000000
         C           -0.316948112900     1.420971852646    -0.018963891741    12.000000000000
         C            2.940115887100    -0.000001147354     0.213093108259    12.000000000000
         C           -2.831798112900    -1.463588147354     0.039515108259    12.000000000000
         C           -2.831799112900     1.463586852646     0.039504108259    12.000000000000
         H           -0.302853112900    -2.507912147354    -0.026833891741     1.007825032230
         H           -0.302854112900     2.507911852646    -0.026822891741     1.007825032230
         H            3.159380887100    -0.000010147354     1.290441108259     1.007825032230
         H            3.891637387100     0.000004052646    -0.414113591741     1.007825032230
         H           -2.651044112900    -2.541606147354     0.026676108259     1.007825032230
         H           -3.411554112900    -1.231286147354     0.939747108259     1.007825032230
         H           -3.462292112900    -1.218721147354    -0.822338891741     1.007825032230
         H           -3.411542112900     1.231329852646     0.939758108259     1.007825032230
         H           -2.651047112900     2.541604852646     0.026609108259     1.007825032230
         H           -3.462304112900     1.218673852646    -0.822327891741     1.007825032230

  Basis Set: AUG-CC-PVTZ
    Blend: AUG-CC-PVTZ
  Basis Set: (AUG-CC-PVTZ AUX)
    Blend: AUG-CC-PVTZ-JKFIT
	 Reference Energy          =    -496.5119426560414695 [Eh]
	 Singles Energy            =      -0.0000000000000000 [Eh]
	 Same-Spin Energy          =      -0.5241486524635254 [Eh]
	 Opposite-Spin Energy      =      -1.6326902582479497 [Eh]
	 Correlation Energy        =      -2.1568389107114752 [Eh]
	 Total Energy              =    -498.6687815667529549 [Eh]

	 ================> DF-SCS-MP2 Energies <==================
	-----------------------------------------------------------
	 SCS Same-Spin Scale       =       0.3333333333333333 [-]
	 SCS Opposite-Spin Scale   =       1.2000000000000000 [-]
	 SCS Same-Spin Energy      =      -0.1747162174878418 [Eh]
	 SCS Opposite-Spin Energy  =      -1.9592283098975396 [Eh]
	 SCS Correlation Energy    =      -2.1339445273853812 [Eh]
	 SCS Total Energy          =    -498.6458871834268507 [Eh]
	-----------------------------------------------------------

  Dipole Moment: [D]
     X:    -0.6024      Y:    -0.0000      Z:     0.5666     Total:     0.8270

*** Psi4 exiting successfully. Buy a developer a beer!
