                               Psi4 1.4a3.dev225

  ==> Input File <==

--------------------------------------------------------------------------
#psi4
#
memory 32 gb

molecule  {
0 1
  O        2.2381840    -1.1587810    -0.1175950
  O        2.2381840     1.1587830    -0.1175780
  C       -1.4506090    -0.7058110    -0.0005310
  C       -1.4506100     0.7058110    -0.0005190
  C        0.9370840    -0.6945160    -0.0405820
  C        0.9370830     0.6945180    -0.0405590
  C       -0.2384000    -1.4209720    -0.0261700
  C       -0.2384020     1.4209720    -0.0261890
  C        3.0186620    -0.0000010     0.2058680
  C       -2.7532520    -1.4635880     0.0322900
  C       -2.7532530     1.4635870     0.0322790
  H       -0.2243070    -2.5079120    -0.0340590
  H       -0.2243080     2.5079120    -0.0340480
  H        3.2379270    -0.0000100     1.2832160
  H        3.9284370     0.0000040    -0.3938210
  H       -2.5724980    -2.5416060     0.0194510
  H       -3.3330080    -1.2312860     0.9325220
  H       -3.3837460    -1.2187210    -0.8295640
  H       -3.2800840     1.2525276     0.8503686
  H       -2.5725010     2.5416050     0.0193840
  H       -3.3837580     1.2186740    -0.8295530
units angstrom
no_reorient  #important for SAPT in psi4, default
symmetry c1  #important for SAPT in psi4, default
}

set PROPERTIES_ORIGIN ["COM"]
properties('MP2/aug-cc-pvtz', properties = ['dipole'])
--------------------------------------------------------------------------

    Molecular point group: c1
  Charge       = 0
  Multiplicity = 1
  Basis Set: AUG-CC-PVTZ
    Blend: AUG-CC-PVTZ
  Basis Set: (AUG-CC-PVTZ AUX)
    Blend: AUG-CC-PVTZ-JKFIT

    Orbital Energies [Eh]
    ---------------------

    Doubly Occupied:

       1A    -20.595844     2A    -20.595796     3A    -11.352108
       4A    -11.291767     5A    -11.290494     6A    -11.241819
       7A    -11.240667     8A    -11.238041     9A    -11.237720
      10A    -11.225471    11A    -11.212970    12A     -1.466922
      13A     -1.364406    14A     -1.158404    15A     -1.054688
      16A     -1.038980    17A     -0.957167    18A     -0.944371
      19A     -0.883834    20A     -0.837426    21A     -0.796924
      22A     -0.716193    23A     -0.712583    24A     -0.676033
      25A     -0.648148    26A     -0.615027    27A     -0.612860
      28A     -0.600363    29A     -0.573831    30A     -0.568766
      31A     -0.558061    32A     -0.540894    33A     -0.535503
      34A     -0.533739    35A     -0.530090    36A     -0.501504
      37A     -0.490845    38A     -0.442038    39A     -0.334207
      40A     -0.293158

  @DF-RHF Final Energy:  -496.50845867196557

   => Energetics <=

    Nuclear Repulsion Energy =            601.7553522111091979
    One-Electron Energy =               -1869.5083026011684524
    Two-Electron Energy =                 771.2444917180935136
    Total Energy =                       -496.5084586719656272
  Basis Set: (AUG-CC-PVTZ AUX)
    Blend: AUG-CC-PVTZ-RI
    Molecular point group: c1

    Geometry (in Angstrom), charge = 0, multiplicity = 1:

       Center              X                  Y                   Z               Mass
    ------------   -----------------  -----------------  -----------------  -----------------
         O            2.159562901997    -1.158923504546    -0.110002896226    15.994914619570
         O            2.159562901997     1.158640495454    -0.109985896226    15.994914619570
         C           -1.529230098003    -0.705953504546     0.007061103774    12.000000000000
         C           -1.529231098003     0.705668495454     0.007073103774    12.000000000000
         C            0.858462901997    -0.694658504546    -0.032989896226    12.000000000000
         C            0.858461901997     0.694375495454    -0.032966896226    12.000000000000
         C           -0.317021098003    -1.421114504546    -0.018577896226    12.000000000000
         C           -0.317023098003     1.420829495454    -0.018596896226    12.000000000000
         C            2.940040901997    -0.000143504546     0.213460103774    12.000000000000
         C           -2.831873098003    -1.463730504546     0.039882103774    12.000000000000
         C           -2.831874098003     1.463444495454     0.039871103774    12.000000000000
         H           -0.302928098003    -2.508054504546    -0.026466896226     1.007825032230
         H           -0.302929098003     2.507769495454    -0.026455896226     1.007825032230
         H            3.159305901997    -0.000152504546     1.290808103774     1.007825032230
         H            3.849815901997    -0.000138504546    -0.386228896226     1.007825032230
         H           -2.651119098003    -2.541748504546     0.027043103774     1.007825032230
         H           -3.411629098003    -1.231428504546     0.940114103774     1.007825032230
         H           -3.462367098003    -1.218863504546    -0.821971896226     1.007825032230
         H           -3.358705098003     1.252385095454     0.857960703774     1.007825032230
         H           -2.651122098003     2.541462495454     0.026976103774     1.007825032230
         H           -3.462379098003     1.218531495454    -0.821960896226     1.007825032230

  Basis Set: AUG-CC-PVTZ
    Blend: AUG-CC-PVTZ
  Basis Set: (AUG-CC-PVTZ AUX)
    Blend: AUG-CC-PVTZ-JKFIT
	 Reference Energy          =    -496.5084586719655704 [Eh]
	 Singles Energy            =      -0.0000000000000000 [Eh]
	 Same-Spin Energy          =      -0.5240174852771745 [Eh]
	 Opposite-Spin Energy      =      -1.6317265946327966 [Eh]
	 Correlation Energy        =      -2.1557440799099710 [Eh]
	 Total Energy              =    -498.6642027518755640 [Eh]

	 ================> DF-SCS-MP2 Energies <==================
	-----------------------------------------------------------
	 SCS Same-Spin Scale       =       0.3333333333333333 [-]
	 SCS Opposite-Spin Scale   =       1.2000000000000000 [-]
	 SCS Same-Spin Energy      =      -0.1746724950923915 [Eh]
	 SCS Opposite-Spin Energy  =      -1.9580719135593558 [Eh]
	 SCS Correlation Energy    =      -2.1327444086517473 [Eh]
	 SCS Total Energy          =    -498.6412030806173448 [Eh]
	-----------------------------------------------------------

  Dipole Moment: [D]
     X:    -0.6149      Y:     0.0057      Z:     0.5934     Total:     0.8545

*** Psi4 exiting successfully. Buy a developer a beer!
