                               Psi4 1.4a3.dev225

  ==> Input File <==

--------------------------------------------------------------------------
#psi4
#
memory 32 gb

molecule  {
0 1
  O        2.2381840    -1.1587810    -0.1175950
  O        2.2381840     1.1587830    -0.1175780
  C       -1.4506090    -0.7058110    -0.0005310
  C       -1.4506100     0.7058110    -0.0005190
  C        0.9370840    -0.6945160    -0.0405820
  C        0.9370830     0.6945180    -0.0405590
  C       -0.2384000    -1.4209720    -0.0261700
  C       -0.2384020     1.4209720    -0.0261890
  C        3.0186620    -0.0000010     0.2058680
  C       -2.7532520    -1.4635880     0.0322900
  C       -2.7532530     1.4635870     0.0322790
  H       -0.2243070    -2.5079120    -0.0340590
  H       -0.2243080     2.5079120    -0.0340480
  H        3.2379270    -0.0000100     1.2832160
  H        3.9284370     0.0000040    -0.3938210
  H       -2.5724980    -2.5416060     0.0194510
  H       -3.3065514    -1.2418869     0.8914408
  H       -3.3837460    -1.2187210    -0.8295640
  H       -3.3329960     1.2313300     0.9325330
  H       -2.5725010     2.5416050     0.0193840
  H       -3.3837580     1.2186740    -0.8295530
units angstrom
no_reorient  #important for SAPT in psi4, default
symmetry c1  #important for SAPT in psi4, default
}

set PROPERTIES_ORIGIN ["COM"]
properties('MP2/aug-cc-pvtz', properties = ['dipole'])
--------------------------------------------------------------------------

    Molecular point group: c1
  Charge       = 0
  Multiplicity = 1
  Basis Set: AUG-CC-PVTZ
    Blend: AUG-CC-PVTZ
  Basis Set: (AUG-CC-PVTZ AUX)
    Blend: AUG-CC-PVTZ-JKFIT

    Orbital Energies [Eh]
    ---------------------

    Doubly Occupied:

       1A    -20.595956     2A    -20.595921     3A    -11.352205
       4A    -11.291925     5A    -11.290652     6A    -11.242035
       7A    -11.240924     8A    -11.238146     9A    -11.237970
      10A    -11.225392    11A    -11.219194    12A     -1.467040
      13A     -1.364523    14A     -1.158417    15A     -1.053839
      16A     -1.038592    17A     -0.954370    18A     -0.943754
      19A     -0.883117    20A     -0.837174    21A     -0.796202
      22A     -0.716151    23A     -0.712634    24A     -0.675437
      25A     -0.648132    26A     -0.614943    27A     -0.611826
      28A     -0.597719    29A     -0.573947    30A     -0.566981
      31A     -0.555314    32A     -0.540986    33A     -0.535334
      34A     -0.533674    35A     -0.530240    36A     -0.501217
      37A     -0.491049    38A     -0.441879    39A     -0.334282
      40A     -0.293172

  @DF-RHF Final Energy:  -496.51341201601156

   => Energetics <=

    Nuclear Repulsion Energy =            601.5131262623990551
    One-Electron Energy =               -1869.0485464081496048
    Two-Electron Energy =                 771.0220081297389925
    Total Energy =                       -496.5134120160115572
  Basis Set: (AUG-CC-PVTZ AUX)
    Blend: AUG-CC-PVTZ-RI
    Molecular point group: c1

    Geometry (in Angstrom), charge = 0, multiplicity = 1:

       Center              X                  Y                   Z               Mass
    ------------   -----------------  -----------------  -----------------  -----------------
         O            2.159740570789    -1.158709952640    -0.110278802185    15.994914619570
         O            2.159740570789     1.158854047360    -0.110261802185    15.994914619570
         C           -1.529052429211    -0.705739952640     0.006785197815    12.000000000000
         C           -1.529053429211     0.705882047360     0.006797197815    12.000000000000
         C            0.858640570789    -0.694444952640    -0.033265802185    12.000000000000
         C            0.858639570789     0.694589047360    -0.033242802185    12.000000000000
         C           -0.316843429211    -1.420900952640    -0.018853802185    12.000000000000
         C           -0.316845429211     1.421043047360    -0.018872802185    12.000000000000
         C            2.940218570789     0.000070047360     0.213184197815    12.000000000000
         C           -2.831695429211    -1.463516952640     0.039606197815    12.000000000000
         C           -2.831696429211     1.463658047360     0.039595197815    12.000000000000
         H           -0.302750429211    -2.507840952640    -0.026742802185     1.007825032230
         H           -0.302751429211     2.507983047360    -0.026731802185     1.007825032230
         H            3.159483570789     0.000061047360     1.290532197815     1.007825032230
         H            3.849993570789     0.000075047360    -0.386504802185     1.007825032230
         H           -2.650941429211    -2.541534952640     0.026767197815     1.007825032230
         H           -3.384994829211    -1.241815852640     0.898756997815     1.007825032230
         H           -3.462189429211    -1.218649952640    -0.822247802185     1.007825032230
         H           -3.411439429211     1.231401047360     0.939849197815     1.007825032230
         H           -2.650944429211     2.541676047360     0.026700197815     1.007825032230
         H           -3.462201429211     1.218745047360    -0.822236802185     1.007825032230

  Basis Set: AUG-CC-PVTZ
    Blend: AUG-CC-PVTZ
  Basis Set: (AUG-CC-PVTZ AUX)
    Blend: AUG-CC-PVTZ-JKFIT
	 Reference Energy          =    -496.5134120160115572 [Eh]
	 Singles Energy            =      -0.0000000000000000 [Eh]
	 Same-Spin Energy          =      -0.5240250102446908 [Eh]
	 Opposite-Spin Energy      =      -1.6319475227122282 [Eh]
	 Correlation Energy        =      -2.1559725329569188 [Eh]
	 Total Energy              =    -498.6693845489684804 [Eh]

	 ================> DF-SCS-MP2 Energies <==================
	-----------------------------------------------------------
	 SCS Same-Spin Scale       =       0.3333333333333333 [-]
	 SCS Opposite-Spin Scale   =       1.2000000000000000 [-]
	 SCS Same-Spin Energy      =      -0.1746750034148969 [Eh]
	 SCS Opposite-Spin Energy  =      -1.9583370272546738 [Eh]
	 SCS Correlation Energy    =      -2.1330120306695708 [Eh]
	 SCS Total Energy          =    -498.6464240466811475 [Eh]
	-----------------------------------------------------------

  Dipole Moment: [D]
     X:    -0.5948      Y:    -0.0032      Z:     0.5802     Total:     0.8310

*** Psi4 exiting successfully. Buy a developer a beer!
