                               Psi4 1.4a3.dev225

  ==> Input File <==

--------------------------------------------------------------------------
#psi4
#
memory 32 gb

molecule  {
0 1
  O        2.2381840    -1.1587810    -0.1175950
  O        2.2381840     1.1587830    -0.1175780
  C       -1.4506090    -0.7058110    -0.0005310
  C       -1.4506100     0.7058110    -0.0005190
  C        0.9370840    -0.6945160    -0.0405820
  C        0.9370830     0.6945180    -0.0405590
  C       -0.2384000    -1.4209720    -0.0261700
  C       -0.2384020     1.4209720    -0.0261890
  C        3.0186620    -0.0000010     0.2058680
  C       -2.7532520    -1.4635880     0.0322900
  C       -2.7532530     1.4635870     0.0322790
  H       -0.2243070    -2.5079120    -0.0340590
  H       -0.2243080     2.5079120    -0.0340480
  H        3.2379270    -0.0000100     1.2832160
  H        3.9284370     0.0000040    -0.3938210
  H       -2.5821150    -2.5432449     0.0358469
  H       -3.3330080    -1.2312860     0.9325220
  H       -3.3837460    -1.2187210    -0.8295640
  H       -3.3329960     1.2313300     0.9325330
  H       -2.5725010     2.5416050     0.0193840
  H       -3.3837580     1.2186740    -0.8295530
units angstrom
no_reorient  #important for SAPT in psi4, default
symmetry c1  #important for SAPT in psi4, default
}

set PROPERTIES_ORIGIN ["COM"]
properties('MP2/aug-cc-pvtz', properties = ['dipole'])
--------------------------------------------------------------------------

    Molecular point group: c1
  Charge       = 0
  Multiplicity = 1
  Basis Set: AUG-CC-PVTZ
    Blend: AUG-CC-PVTZ
  Basis Set: (AUG-CC-PVTZ AUX)
    Blend: AUG-CC-PVTZ-JKFIT

    Orbital Energies [Eh]
    ---------------------

    Doubly Occupied:

       1A    -20.596101     2A    -20.596078     3A    -11.352328
       4A    -11.292125     5A    -11.290853     6A    -11.242398
       7A    -11.241297     8A    -11.238299     9A    -11.238268
      10A    -11.225296    11A    -11.225287    12A     -1.467190
      13A     -1.364672    14A     -1.158497    15A     -1.053240
      16A     -1.038268    17A     -0.952351    18A     -0.942966
      19A     -0.882530    20A     -0.837016    21A     -0.795649
      22A     -0.716147    23A     -0.712681    24A     -0.675100
      25A     -0.648312    26A     -0.615017    27A     -0.611069
      28A     -0.595376    29A     -0.574095    30A     -0.565972
      31A     -0.551501    32A     -0.541047    33A     -0.534955
      34A     -0.533138    35A     -0.530471    36A     -0.500708
      37A     -0.491438    38A     -0.441697    39A     -0.334380
      40A     -0.293237

  @DF-RHF Final Energy:  -496.51432162742844

   => Energetics <=

    Nuclear Repulsion Energy =            601.2671018517677339
    One-Electron Energy =               -1868.5687506968665730
    Two-Electron Energy =                 770.7873272176705086
    Total Energy =                       -496.5143216274284441
  Basis Set: (AUG-CC-PVTZ AUX)
    Blend: AUG-CC-PVTZ-RI
    Molecular point group: c1

    Geometry (in Angstrom), charge = 0, multiplicity = 1:

       Center              X                  Y                   Z               Mass
    ------------   -----------------  -----------------  -----------------  -----------------
         O            2.159982833349    -1.158770139510    -0.110664806059    15.994914619570
         O            2.159982833349     1.158793860490    -0.110647806059    15.994914619570
         C           -1.528810166651    -0.705800139510     0.006399193941    12.000000000000
         C           -1.528811166651     0.705821860490     0.006411193941    12.000000000000
         C            0.858882833349    -0.694505139510    -0.033651806059    12.000000000000
         C            0.858881833349     0.694528860490    -0.033628806059    12.000000000000
         C           -0.316601166651    -1.420961139510    -0.019239806059    12.000000000000
         C           -0.316603166651     1.420982860490    -0.019258806059    12.000000000000
         C            2.940460833349     0.000009860490     0.212798193941    12.000000000000
         C           -2.831453166651    -1.463577139510     0.039220193941    12.000000000000
         C           -2.831454166651     1.463597860490     0.039209193941    12.000000000000
         H           -0.302508166651    -2.507901139510    -0.027128806059     1.007825032230
         H           -0.302509166651     2.507922860490    -0.027117806059     1.007825032230
         H            3.159725833349     0.000000860490     1.290146193941     1.007825032230
         H            3.850235833349     0.000014860490    -0.386890806059     1.007825032230
         H           -2.660316166651    -2.543234039510     0.042777093941     1.007825032230
         H           -3.411209166651    -1.231275139510     0.939452193941     1.007825032230
         H           -3.461947166651    -1.218710139510    -0.822633806059     1.007825032230
         H           -3.411197166651     1.231340860490     0.939463193941     1.007825032230
         H           -2.650702166651     2.541615860490     0.026314193941     1.007825032230
         H           -3.461959166651     1.218684860490    -0.822622806059     1.007825032230

  Basis Set: AUG-CC-PVTZ
    Blend: AUG-CC-PVTZ
  Basis Set: (AUG-CC-PVTZ AUX)
    Blend: AUG-CC-PVTZ-JKFIT
	 Reference Energy          =    -496.5143216274284441 [Eh]
	 Singles Energy            =      -0.0000000000000000 [Eh]
	 Same-Spin Energy          =      -0.5240382004490334 [Eh]
	 Opposite-Spin Energy      =      -1.6322294494151248 [Eh]
	 Correlation Energy        =      -2.1562676498641582 [Eh]
	 Total Energy              =    -498.6705892772926063 [Eh]

	 ================> DF-SCS-MP2 Energies <==================
	-----------------------------------------------------------
	 SCS Same-Spin Scale       =       0.3333333333333333 [-]
	 SCS Opposite-Spin Scale   =       1.2000000000000000 [-]
	 SCS Same-Spin Energy      =      -0.1746794001496778 [Eh]
	 SCS Opposite-Spin Energy  =      -1.9586753392981497 [Eh]
	 SCS Correlation Energy    =      -2.1333547394478276 [Eh]
	 SCS Total Energy          =    -498.6476763668762828 [Eh]
	-----------------------------------------------------------

  Dipole Moment: [D]
     X:    -0.5717      Y:    -0.0028      Z:     0.5697     Total:     0.8071

*** Psi4 exiting successfully. Buy a developer a beer!
