                               Psi4 1.4a3.dev225

  ==> Input File <==

--------------------------------------------------------------------------
#psi4
#
memory 32 gb

molecule  {
0 1
  O        2.2381840    -1.1587810    -0.1175950
  O        2.2798736     1.0201772    -0.1126506
  C       -1.4506090    -0.7058110    -0.0005310
  C       -1.4506100     0.7058110    -0.0005190
  C        0.9370840    -0.6945160    -0.0405820
  C        0.9370830     0.6945180    -0.0405590
  C       -0.2384000    -1.4209720    -0.0261700
  C       -0.2384020     1.4209720    -0.0261890
  C        3.0186620    -0.0000010     0.2058680
  C       -2.7532520    -1.4635880     0.0322900
  C       -2.7532530     1.4635870     0.0322790
  H       -0.2243070    -2.5079120    -0.0340590
  H       -0.2243080     2.5079120    -0.0340480
  H        3.2379270    -0.0000100     1.2832160
  H        3.9284370     0.0000040    -0.3938210
  H       -2.5724980    -2.5416060     0.0194510
  H       -3.3330080    -1.2312860     0.9325220
  H       -3.3837460    -1.2187210    -0.8295640
  H       -3.3329960     1.2313300     0.9325330
  H       -2.5725010     2.5416050     0.0193840
  H       -3.3837580     1.2186740    -0.8295530
units angstrom
no_reorient  #important for SAPT in psi4, default
symmetry c1  #important for SAPT in psi4, default
}

set PROPERTIES_ORIGIN ["COM"]
properties('MP2/aug-cc-pvtz', properties = ['dipole'])
--------------------------------------------------------------------------

    Molecular point group: c1
  Charge       = 0
  Multiplicity = 1
  Basis Set: AUG-CC-PVTZ
    Blend: AUG-CC-PVTZ
  Basis Set: (AUG-CC-PVTZ AUX)
    Blend: AUG-CC-PVTZ-JKFIT

    Orbital Energies [Eh]
    ---------------------

    Doubly Occupied:

       1A    -20.591203     2A    -20.586160     3A    -11.339284
       4A    -11.296587     5A    -11.290310     6A    -11.245279
       7A    -11.244137     8A    -11.242771     9A    -11.237395
      10A    -11.226879    11A    -11.226331    12A     -1.502801
      13A     -1.366954    14A     -1.162646    15A     -1.061813
      16A     -1.040239    17A     -0.956519    18A     -0.949014
      19A     -0.874156    20A     -0.839739    21A     -0.804748
      22A     -0.731785    23A     -0.723814    24A     -0.689603
      25A     -0.647415    26A     -0.626723    27A     -0.616325
      28A     -0.596803    29A     -0.571713    30A     -0.562910
      31A     -0.552531    32A     -0.541718    33A     -0.534872
      34A     -0.526176    35A     -0.523809    36A     -0.503140
      37A     -0.490211    38A     -0.437607    39A     -0.336925
      40A     -0.293223

  @DF-RHF Final Energy:  -496.50457887927530

   => Energetics <=

    Nuclear Repulsion Energy =            604.5172946716322713
    One-Electron Energy =               -1874.8592116881980019
    Two-Electron Energy =                 773.8373381372904305
    Total Energy =                       -496.5045788792753001
  Basis Set: (AUG-CC-PVTZ AUX)
    Blend: AUG-CC-PVTZ-RI
    Molecular point group: c1

    Geometry (in Angstrom), charge = 0, multiplicity = 1:

       Center              X                  Y                   Z               Mass
    ------------   -----------------  -----------------  -----------------  -----------------
         O            2.155474787082    -1.144007931459    -0.111079878632    15.994914619570
         O            2.197164387082     1.034950268541    -0.106135478632    15.994914619570
         C           -1.533318212918    -0.691037931459     0.005984121368    12.000000000000
         C           -1.533319212918     0.720584068541     0.005996121368    12.000000000000
         C            0.854374787082    -0.679742931459    -0.034066878632    12.000000000000
         C            0.854373787082     0.709291068541    -0.034043878632    12.000000000000
         C           -0.321109212918    -1.406198931459    -0.019654878632    12.000000000000
         C           -0.321111212918     1.435745068541    -0.019673878632    12.000000000000
         C            2.935952787082     0.014772068541     0.212383121368    12.000000000000
         C           -2.835961212918    -1.448814931459     0.038805121368    12.000000000000
         C           -2.835962212918     1.478360068541     0.038794121368    12.000000000000
         H           -0.307016212918    -2.493138931459    -0.027543878632     1.007825032230
         H           -0.307017212918     2.522685068541    -0.027532878632     1.007825032230
         H            3.155217787082     0.014763068541     1.289731121368     1.007825032230
         H            3.845727787082     0.014777068541    -0.387305878632     1.007825032230
         H           -2.655207212918    -2.526832931459     0.025966121368     1.007825032230
         H           -3.415717212918    -1.216512931459     0.939037121368     1.007825032230
         H           -3.466455212918    -1.203947931459    -0.823048878632     1.007825032230
         H           -3.415705212918     1.246103068541     0.939048121368     1.007825032230
         H           -2.655210212918     2.556378068541     0.025899121368     1.007825032230
         H           -3.466467212918     1.233447068541    -0.823037878632     1.007825032230

  Basis Set: AUG-CC-PVTZ
    Blend: AUG-CC-PVTZ
  Basis Set: (AUG-CC-PVTZ AUX)
    Blend: AUG-CC-PVTZ-JKFIT
	 Reference Energy          =    -496.5045788792753001 [Eh]
	 Singles Energy            =      -0.0000000000000000 [Eh]
	 Same-Spin Energy          =      -0.5236642248139449 [Eh]
	 Opposite-Spin Energy      =      -1.6290365893220160 [Eh]
	 Correlation Energy        =      -2.1527008141359607 [Eh]
	 Total Energy              =    -498.6572796934112830 [Eh]

	 ================> DF-SCS-MP2 Energies <==================
	-----------------------------------------------------------
	 SCS Same-Spin Scale       =       0.3333333333333333 [-]
	 SCS Opposite-Spin Scale   =       1.2000000000000000 [-]
	 SCS Same-Spin Energy      =      -0.1745547416046483 [Eh]
	 SCS Opposite-Spin Energy  =      -1.9548439071864192 [Eh]
	 SCS Correlation Energy    =      -2.1293986487910677 [Eh]
	 SCS Total Energy          =    -498.6339775280663957 [Eh]
	-----------------------------------------------------------

  Dipole Moment: [D]
     X:    -0.8717      Y:     0.3595      Z:     0.4674     Total:     1.0524

*** Psi4 exiting successfully. Buy a developer a beer!
