                               Psi4 1.4a3.dev225

  ==> Input File <==

--------------------------------------------------------------------------
#psi4
#
memory 32 gb

molecule  {
0 1
  O        2.2381840    -1.1587810    -0.1175950
  O        2.2298352     1.1814297    -0.1183185
  C       -1.4506090    -0.7058110    -0.0005310
  C       -1.4506100     0.7058110    -0.0005190
  C        0.9370840    -0.6945160    -0.0405820
  C        0.9370830     0.6945180    -0.0405590
  C       -0.2384000    -1.4209720    -0.0261700
  C       -0.2384020     1.4209720    -0.0261890
  C        3.0186620    -0.0000010     0.2058680
  C       -2.7532520    -1.4635880     0.0322900
  C       -2.7532530     1.4635870     0.0322790
  H       -0.2243070    -2.5079120    -0.0340590
  H       -0.2243080     2.5079120    -0.0340480
  H        3.2379270    -0.0000100     1.2832160
  H        3.9284370     0.0000040    -0.3938210
  H       -2.5724980    -2.5416060     0.0194510
  H       -3.3330080    -1.2312860     0.9325220
  H       -3.3837460    -1.2187210    -0.8295640
  H       -3.3329960     1.2313300     0.9325330
  H       -2.5725010     2.5416050     0.0193840
  H       -3.3837580     1.2186740    -0.8295530
units angstrom
no_reorient  #important for SAPT in psi4, default
symmetry c1  #important for SAPT in psi4, default
}

set PROPERTIES_ORIGIN ["COM"]
properties('MP2/aug-cc-pvtz', properties = ['dipole'])
--------------------------------------------------------------------------

    Molecular point group: c1
  Charge       = 0
  Multiplicity = 1
  Basis Set: AUG-CC-PVTZ
    Blend: AUG-CC-PVTZ
  Basis Set: (AUG-CC-PVTZ AUX)
    Blend: AUG-CC-PVTZ-JKFIT

    Orbital Energies [Eh]
    ---------------------

    Doubly Occupied:

       1A    -20.597578     2A    -20.596617     3A    -11.354546
       4A    -11.292031     5A    -11.290473     6A    -11.242030
       7A    -11.240931     8A    -11.238413     9A    -11.237251
      10A    -11.225164    11A    -11.225065    12A     -1.463116
      13A     -1.363683    14A     -1.157912    15A     -1.052229
      16A     -1.037944    17A     -0.952001    18A     -0.942062
      19A     -0.883865    20A     -0.836632    21A     -0.794044
      22A     -0.714744    23A     -0.710987    24A     -0.672972
      25A     -0.648513    26A     -0.614666    27A     -0.608981
      28A     -0.595149    29A     -0.574114    30A     -0.566242
      31A     -0.551340    32A     -0.540958    33A     -0.535678
      34A     -0.533769    35A     -0.530460    36A     -0.500261
      37A     -0.491379    38A     -0.442179    39A     -0.333969
      40A     -0.293209

  @DF-RHF Final Energy:  -496.51278651950764

   => Energetics <=

    Nuclear Repulsion Energy =            600.8055765489831401
    One-Electron Energy =               -1867.6704132026770822
    Two-Electron Energy =                 770.3520501341863564
    Total Energy =                       -496.5127865195076993
  Basis Set: (AUG-CC-PVTZ AUX)
    Blend: AUG-CC-PVTZ-RI
    Molecular point group: c1

    Geometry (in Angstrom), charge = 0, multiplicity = 1:

       Center              X                  Y                   Z               Mass
    ------------   -----------------  -----------------  -----------------  -----------------
         O            2.160808099389    -1.161194930701    -0.110475768971    15.994914619570
         O            2.152459299389     1.179015769299    -0.111199268971    15.994914619570
         C           -1.527984900611    -0.708224930701     0.006588231029    12.000000000000
         C           -1.527985900611     0.703397069299     0.006600231029    12.000000000000
         C            0.859708099389    -0.696929930701    -0.033462768971    12.000000000000
         C            0.859707099389     0.692104069299    -0.033439768971    12.000000000000
         C           -0.315775900611    -1.423385930701    -0.019050768971    12.000000000000
         C           -0.315777900611     1.418558069299    -0.019069768971    12.000000000000
         C            2.941286099389    -0.002414930701     0.212987231029    12.000000000000
         C           -2.830627900611    -1.466001930701     0.039409231029    12.000000000000
         C           -2.830628900611     1.461173069299     0.039398231029    12.000000000000
         H           -0.301682900611    -2.510325930701    -0.026939768971     1.007825032230
         H           -0.301683900611     2.505498069299    -0.026928768971     1.007825032230
         H            3.160551099389    -0.002423930701     1.290335231029     1.007825032230
         H            3.851061099389    -0.002409930701    -0.386701768971     1.007825032230
         H           -2.649873900611    -2.544019930701     0.026570231029     1.007825032230
         H           -3.410383900611    -1.233699930701     0.939641231029     1.007825032230
         H           -3.461121900611    -1.221134930701    -0.822444768971     1.007825032230
         H           -3.410371900611     1.228916069299     0.939652231029     1.007825032230
         H           -2.649876900611     2.539191069299     0.026503231029     1.007825032230
         H           -3.461133900611     1.216260069299    -0.822433768971     1.007825032230

  Basis Set: AUG-CC-PVTZ
    Blend: AUG-CC-PVTZ
  Basis Set: (AUG-CC-PVTZ AUX)
    Blend: AUG-CC-PVTZ-JKFIT
	 Reference Energy          =    -496.5127865195076424 [Eh]
	 Singles Energy            =      -0.0000000000000000 [Eh]
	 Same-Spin Energy          =      -0.5242275508790015 [Eh]
	 Opposite-Spin Energy      =      -1.6329770014504967 [Eh]
	 Correlation Energy        =      -2.1572045523294983 [Eh]
	 Total Energy              =    -498.6699910718371598 [Eh]

	 ================> DF-SCS-MP2 Energies <==================
	-----------------------------------------------------------
	 SCS Same-Spin Scale       =       0.3333333333333333 [-]
	 SCS Opposite-Spin Scale   =       1.2000000000000000 [-]
	 SCS Same-Spin Energy      =      -0.1747425169596672 [Eh]
	 SCS Opposite-Spin Energy  =      -1.9595724017405960 [Eh]
	 SCS Correlation Energy    =      -2.1343149187002632 [Eh]
	 SCS Total Energy          =    -498.6471014382079261 [Eh]
	-----------------------------------------------------------

  Dipole Moment: [D]
     X:    -0.5255      Y:    -0.0541      Z:     0.5769     Total:     0.7822

*** Psi4 exiting successfully. Buy a developer a beer!
