                               Psi4 1.4a3.dev225

  ==> Input File <==

--------------------------------------------------------------------------
#psi4
#
memory 32 gb

molecule  {
0 1
  O        2.2381840    -1.1587810    -0.1175950
  O        2.2381840     1.1587830    -0.1175780
  C       -1.4506090    -0.7058110    -0.0005310
  C       -1.4506100     0.7058110    -0.0005190
  C        0.9370840    -0.6945160    -0.0405820
  C        0.9370830     0.6945180    -0.0405590
  C       -0.2384000    -1.4209720    -0.0261700
  C       -0.2384020     1.4209720    -0.0261890
  C        3.0186620    -0.0000010     0.2058680
  C       -2.7532520    -1.4635880     0.0322900
  C       -2.7532530     1.4635870     0.0322790
  H       -0.2243070    -2.5079120    -0.0340590
  H       -0.2243080     2.5079120    -0.0340480
  H        3.2379270    -0.0000100     1.2832160
  H        3.9284370     0.0000040    -0.3938210
  H       -2.5724980    -2.5416060     0.0194510
  H       -3.3330080    -1.2312860     0.9325220
  H       -3.3837460    -1.2187210    -0.8295640
  H       -3.3033817     1.2429136     0.9537801
  H       -2.5725010     2.5416050     0.0193840
  H       -3.3837580     1.2186740    -0.8295530
units angstrom
no_reorient  #important for SAPT in psi4, default
symmetry c1  #important for SAPT in psi4, default
}

set PROPERTIES_ORIGIN ["COM"]
properties('MP2/aug-cc-pvtz', properties = ['dipole'])
--------------------------------------------------------------------------

    Molecular point group: c1
  Charge       = 0
  Multiplicity = 1
  Basis Set: AUG-CC-PVTZ
    Blend: AUG-CC-PVTZ
  Basis Set: (AUG-CC-PVTZ AUX)
    Blend: AUG-CC-PVTZ-JKFIT

    Orbital Energies [Eh]
    ---------------------

    Doubly Occupied:

       1A    -20.596035     2A    -20.596009     3A    -11.352277
       4A    -11.292026     5A    -11.290754     6A    -11.242133
       7A    -11.241029     8A    -11.238215     9A    -11.238106
      10A    -11.225336    11A    -11.225212    12A     -1.467123
      13A     -1.364606    14A     -1.158434    15A     -1.053245
      16A     -1.038307    17A     -0.952353    18A     -0.942837
      19A     -0.882342    20A     -0.836895    21A     -0.795358
      22A     -0.716027    23A     -0.712606    24A     -0.674712
      25A     -0.648122    26A     -0.614957    27A     -0.610799
      28A     -0.596936    29A     -0.574034    30A     -0.565302
      31A     -0.553410    32A     -0.540641    33A     -0.534852
      34A     -0.532813    35A     -0.530202    36A     -0.499787
      37A     -0.491208    38A     -0.441759    39A     -0.334333
      40A     -0.293181

  @DF-RHF Final Energy:  -496.51421705000996

   => Energetics <=

    Nuclear Repulsion Energy =            601.3108376249225557
    One-Electron Energy =               -1868.6614882567816949
    Two-Electron Energy =                 770.8364335818490645
    Total Energy =                       -496.5142170500099610
  Basis Set: (AUG-CC-PVTZ AUX)
    Blend: AUG-CC-PVTZ-RI
    Molecular point group: c1

    Geometry (in Angstrom), charge = 0, multiplicity = 1:

       Center              X                  Y                   Z               Mass
    ------------   -----------------  -----------------  -----------------  -----------------
         O            2.159719364353    -1.158858938984    -0.110697385678    15.994914619570
         O            2.159719364353     1.158705061016    -0.110680385678    15.994914619570
         C           -1.529073635647    -0.705888938984     0.006366614322    12.000000000000
         C           -1.529074635647     0.705733061016     0.006378614322    12.000000000000
         C            0.858619364353    -0.694593938984    -0.033684385678    12.000000000000
         C            0.858618364353     0.694440061016    -0.033661385678    12.000000000000
         C           -0.316864635647    -1.421049938984    -0.019272385678    12.000000000000
         C           -0.316866635647     1.420894061016    -0.019291385678    12.000000000000
         C            2.940197364353    -0.000078938984     0.212765614322    12.000000000000
         C           -2.831716635647    -1.463665938984     0.039187614322    12.000000000000
         C           -2.831717635647     1.463509061016     0.039176614322    12.000000000000
         H           -0.302771635647    -2.507989938984    -0.027161385678     1.007825032230
         H           -0.302772635647     2.507834061016    -0.027150385678     1.007825032230
         H            3.159462364353    -0.000087938984     1.290113614322     1.007825032230
         H            3.849972364353    -0.000073938984    -0.386923385678     1.007825032230
         H           -2.650962635647    -2.541683938984     0.026348614322     1.007825032230
         H           -3.411472635647    -1.231363938984     0.939419614322     1.007825032230
         H           -3.462210635647    -1.218798938984    -0.822666385678     1.007825032230
         H           -3.381846335647     1.242835661016     0.960677714322     1.007825032230
         H           -2.650965635647     2.541527061016     0.026281614322     1.007825032230
         H           -3.462222635647     1.218596061016    -0.822655385678     1.007825032230

  Basis Set: AUG-CC-PVTZ
    Blend: AUG-CC-PVTZ
  Basis Set: (AUG-CC-PVTZ AUX)
    Blend: AUG-CC-PVTZ-JKFIT
	 Reference Energy          =    -496.5142170500099610 [Eh]
	 Singles Energy            =      -0.0000000000000000 [Eh]
	 Same-Spin Energy          =      -0.5240415740731235 [Eh]
	 Opposite-Spin Energy      =      -1.6322656258648418 [Eh]
	 Correlation Energy        =      -2.1563071999379653 [Eh]
	 Total Energy              =    -498.6705242499479027 [Eh]

	 ================> DF-SCS-MP2 Energies <==================
	-----------------------------------------------------------
	 SCS Same-Spin Scale       =       0.3333333333333333 [-]
	 SCS Opposite-Spin Scale   =       1.2000000000000000 [-]
	 SCS Same-Spin Energy      =      -0.1746805246910411 [Eh]
	 SCS Opposite-Spin Energy  =      -1.9587187510378101 [Eh]
	 SCS Correlation Energy    =      -2.1333992757288511 [Eh]
	 SCS Total Energy          =    -498.6476163257387952 [Eh]
	-----------------------------------------------------------

  Dipole Moment: [D]
     X:    -0.5671      Y:     0.0095      Z:     0.5689     Total:     0.8033

*** Psi4 exiting successfully. Buy a developer a beer!
