                               Psi4 1.4a3.dev225

  ==> Input File <==

--------------------------------------------------------------------------
#psi4
#
memory 32 gb

molecule  {
0 1
  O        2.2381840    -1.1587810    -0.1175950
  O        2.2673434     1.0667330    -0.1193058
  C       -1.4506090    -0.7058110    -0.0005310
  C       -1.4506100     0.7058110    -0.0005190
  C        0.9370840    -0.6945160    -0.0405820
  C        0.9370830     0.6945180    -0.0405590
  C       -0.2384000    -1.4209720    -0.0261700
  C       -0.2384020     1.4209720    -0.0261890
  C        3.0186620    -0.0000010     0.2058680
  C       -2.7532520    -1.4635880     0.0322900
  C       -2.7532530     1.4635870     0.0322790
  H       -0.2243070    -2.5079120    -0.0340590
  H       -0.2243080     2.5079120    -0.0340480
  H        3.2379270    -0.0000100     1.2832160
  H        3.9284370     0.0000040    -0.3938210
  H       -2.5724980    -2.5416060     0.0194510
  H       -3.3330080    -1.2312860     0.9325220
  H       -3.3837460    -1.2187210    -0.8295640
  H       -3.3329960     1.2313300     0.9325330
  H       -2.5725010     2.5416050     0.0193840
  H       -3.3837580     1.2186740    -0.8295530
units angstrom
no_reorient  #important for SAPT in psi4, default
symmetry c1  #important for SAPT in psi4, default
}

set PROPERTIES_ORIGIN ["COM"]
properties('MP2/aug-cc-pvtz', properties = ['dipole'])
--------------------------------------------------------------------------

    Molecular point group: c1
  Charge       = 0
  Multiplicity = 1
  Basis Set: AUG-CC-PVTZ
    Blend: AUG-CC-PVTZ
  Basis Set: (AUG-CC-PVTZ AUX)
    Blend: AUG-CC-PVTZ-JKFIT

    Orbital Energies [Eh]
    ---------------------

    Doubly Occupied:

       1A    -20.593156     2A    -20.589699     3A    -11.343690
       4A    -11.294635     5A    -11.290579     6A    -11.243625
       7A    -11.242919     8A    -11.241958     9A    -11.237674
      10A    -11.226321    11A    -11.225959    12A     -1.488451
      13A     -1.366728    14A     -1.161082    15A     -1.058404
      16A     -1.039626    17A     -0.954501    18A     -0.947002
      19A     -0.876920    20A     -0.838717    21A     -0.801649
      22A     -0.725131    23A     -0.719810    24A     -0.684211
      25A     -0.647349    26A     -0.621947    27A     -0.615642
      28A     -0.596268    29A     -0.572819    30A     -0.564128
      31A     -0.552175    32A     -0.541365    33A     -0.534393
      34A     -0.529723    35A     -0.526581    36A     -0.502490
      37A     -0.490663    38A     -0.439379    39A     -0.336046
      40A     -0.293274

  @DF-RHF Final Energy:  -496.51216747998063

   => Energetics <=

    Nuclear Repulsion Energy =            603.3539842351533480
    One-Electron Energy =               -1872.6189251846146817
    Two-Electron Energy =                 772.7527734694807577
    Total Energy =                       -496.5121674799805760
  Basis Set: (AUG-CC-PVTZ AUX)
    Blend: AUG-CC-PVTZ-RI
    Molecular point group: c1

    Geometry (in Angstrom), charge = 0, multiplicity = 1:

       Center              X                  Y                   Z               Mass
    ------------   -----------------  -----------------  -----------------  -----------------
         O            2.156810310797    -1.148970052972    -0.110370538204    15.994914619570
         O            2.185969710797     1.076543947028    -0.112081338204    15.994914619570
         C           -1.531982689203    -0.696000052972     0.006693461796    12.000000000000
         C           -1.531983689203     0.715621947028     0.006705461796    12.000000000000
         C            0.855710310797    -0.684705052972    -0.033357538204    12.000000000000
         C            0.855709310797     0.704328947028    -0.033334538204    12.000000000000
         C           -0.319773689203    -1.411161052972    -0.018945538204    12.000000000000
         C           -0.319775689203     1.430782947028    -0.018964538204    12.000000000000
         C            2.937288310797     0.009809947028     0.213092461796    12.000000000000
         C           -2.834625689203    -1.453777052972     0.039514461796    12.000000000000
         C           -2.834626689203     1.473397947028     0.039503461796    12.000000000000
         H           -0.305680689203    -2.498101052972    -0.026834538204     1.007825032230
         H           -0.305681689203     2.517722947028    -0.026823538204     1.007825032230
         H            3.156553310797     0.009800947028     1.290440461796     1.007825032230
         H            3.847063310797     0.009814947028    -0.386596538204     1.007825032230
         H           -2.653871689203    -2.531795052972     0.026675461796     1.007825032230
         H           -3.414381689203    -1.221475052972     0.939746461796     1.007825032230
         H           -3.465119689203    -1.208910052972    -0.822339538204     1.007825032230
         H           -3.414369689203     1.241140947028     0.939757461796     1.007825032230
         H           -2.653874689203     2.551415947028     0.026608461796     1.007825032230
         H           -3.465131689203     1.228484947028    -0.822328538204     1.007825032230

  Basis Set: AUG-CC-PVTZ
    Blend: AUG-CC-PVTZ
  Basis Set: (AUG-CC-PVTZ AUX)
    Blend: AUG-CC-PVTZ-JKFIT
	 Reference Energy          =    -496.5121674799806328 [Eh]
	 Singles Energy            =      -0.0000000000000000 [Eh]
	 Same-Spin Energy          =      -0.5236544868051645 [Eh]
	 Opposite-Spin Energy      =      -1.6298897856374384 [Eh]
	 Correlation Energy        =      -2.1535442724426028 [Eh]
	 Total Energy              =    -498.6657117524232490 [Eh]

	 ================> DF-SCS-MP2 Energies <==================
	-----------------------------------------------------------
	 SCS Same-Spin Scale       =       0.3333333333333333 [-]
	 SCS Opposite-Spin Scale   =       1.2000000000000000 [-]
	 SCS Same-Spin Energy      =      -0.1745514956017215 [Eh]
	 SCS Opposite-Spin Energy  =      -1.9558677427649260 [Eh]
	 SCS Correlation Energy    =      -2.1304192383666476 [Eh]
	 SCS Total Energy          =    -498.6425867183472747 [Eh]
	-----------------------------------------------------------

  Dipole Moment: [D]
     X:    -0.7623      Y:     0.2304      Z:     0.5101     Total:     0.9457

*** Psi4 exiting successfully. Buy a developer a beer!
