                               Psi4 1.4a3.dev225

  ==> Input File <==

--------------------------------------------------------------------------
#psi4
#
memory 32 gb

molecule  {
0 1
  O        2.2381840    -1.1587810    -0.1175950
  O        2.2381840     1.1587830    -0.1175780
  C       -1.4506090    -0.7058110    -0.0005310
  C       -1.4506100     0.7058110    -0.0005190
  C        0.9370840    -0.6945160    -0.0405820
  C        0.9370830     0.6945180    -0.0405590
  C       -0.2384000    -1.4209720    -0.0261700
  C       -0.2384020     1.4209720    -0.0261890
  C        3.0186620    -0.0000010     0.2058680
  C       -2.7532520    -1.4635880     0.0322900
  C       -2.7532530     1.4635870     0.0322790
  H       -0.2243070    -2.5079120    -0.0340590
  H       -0.2243080     2.5079120    -0.0340480
  H        3.2379270    -0.0000100     1.2832160
  H        3.9284370     0.0000040    -0.3938210
  H       -2.5724980    -2.5416060     0.0194510
  H       -3.3619157    -1.2199866     0.9101771
  H       -3.3837460    -1.2187210    -0.8295640
  H       -3.3329960     1.2313300     0.9325330
  H       -2.5725010     2.5416050     0.0193840
  H       -3.3837580     1.2186740    -0.8295530
units angstrom
no_reorient  #important for SAPT in psi4, default
symmetry c1  #important for SAPT in psi4, default
}

set PROPERTIES_ORIGIN ["COM"]
properties('MP2/aug-cc-pvtz', properties = ['dipole'])
--------------------------------------------------------------------------

    Molecular point group: c1
  Charge       = 0
  Multiplicity = 1
  Basis Set: AUG-CC-PVTZ
    Blend: AUG-CC-PVTZ
  Basis Set: (AUG-CC-PVTZ AUX)
    Blend: AUG-CC-PVTZ-JKFIT

    Orbital Energies [Eh]
    ---------------------

    Doubly Occupied:

       1A    -20.596162     2A    -20.596139     3A    -11.352374
       4A    -11.292215     5A    -11.290943     6A    -11.242506
       7A    -11.241394     8A    -11.238440     9A    -11.238336
      10A    -11.225411    11A    -11.225301    12A     -1.467249
      13A     -1.364732    14A     -1.158562    15A     -1.053280
      16A     -1.038346    17A     -0.952377    18A     -0.943066
      19A     -0.882643    20A     -0.837105    21A     -0.795823
      22A     -0.716311    23A     -0.712836    24A     -0.675336
      25A     -0.648270    26A     -0.615172    27A     -0.611731
      28A     -0.593917    29A     -0.574153    30A     -0.566535
      31A     -0.549494    32A     -0.541405    33A     -0.535381
      34A     -0.533910    35A     -0.530448    36A     -0.501729
      37A     -0.491381    38A     -0.441596    39A     -0.334423
      40A     -0.293234

  @DF-RHF Final Energy:  -496.51419269541759

   => Energetics <=

    Nuclear Repulsion Energy =            601.2616177261895700
    One-Electron Energy =               -1868.5522896015208971
    Two-Electron Energy =                 770.7764791799137356
    Total Energy =                       -496.5141926954175915
  Basis Set: (AUG-CC-PVTZ AUX)
    Blend: AUG-CC-PVTZ-RI
    Molecular point group: c1

    Geometry (in Angstrom), charge = 0, multiplicity = 1:

       Center              X                  Y                   Z               Mass
    ------------   -----------------  -----------------  -----------------  -----------------
         O            2.160112385552    -1.158857030358    -0.110404631156    15.994914619570
         O            2.160112385552     1.158706969642    -0.110387631156    15.994914619570
         C           -1.528680614448    -0.705887030358     0.006659368844    12.000000000000
         C           -1.528681614448     0.705734969642     0.006671368844    12.000000000000
         C            0.859012385552    -0.694592030358    -0.033391631156    12.000000000000
         C            0.859011385552     0.694441969642    -0.033368631156    12.000000000000
         C           -0.316471614448    -1.421048030358    -0.018979631156    12.000000000000
         C           -0.316473614448     1.420895969642    -0.018998631156    12.000000000000
         C            2.940590385552    -0.000077030358     0.213058368844    12.000000000000
         C           -2.831323614448    -1.463664030358     0.039480368844    12.000000000000
         C           -2.831324614448     1.463510969642     0.039469368844    12.000000000000
         H           -0.302378614448    -2.507988030358    -0.026868631156     1.007825032230
         H           -0.302379614448     2.507835969642    -0.026857631156     1.007825032230
         H            3.159855385552    -0.000086030358     1.290406368844     1.007825032230
         H            3.850365385552    -0.000072030358    -0.386630631156     1.007825032230
         H           -2.650569614448    -2.541682030358     0.026641368844     1.007825032230
         H           -3.439987314448    -1.220062630358     0.917367468844     1.007825032230
         H           -3.461817614448    -1.218797030358    -0.822373631156     1.007825032230
         H           -3.411067614448     1.231253969642     0.939723368844     1.007825032230
         H           -2.650572614448     2.541528969642     0.026574368844     1.007825032230
         H           -3.461829614448     1.218597969642    -0.822362631156     1.007825032230

  Basis Set: AUG-CC-PVTZ
    Blend: AUG-CC-PVTZ
  Basis Set: (AUG-CC-PVTZ AUX)
    Blend: AUG-CC-PVTZ-JKFIT
	 Reference Energy          =    -496.5141926954175915 [Eh]
	 Singles Energy            =      -0.0000000000000000 [Eh]
	 Same-Spin Energy          =      -0.5240606106111918 [Eh]
	 Opposite-Spin Energy      =      -1.6322292079322767 [Eh]
	 Correlation Energy        =      -2.1562898185434687 [Eh]
	 Total Energy              =    -498.6704825139610762 [Eh]

	 ================> DF-SCS-MP2 Energies <==================
	-----------------------------------------------------------
	 SCS Same-Spin Scale       =       0.3333333333333333 [-]
	 SCS Opposite-Spin Scale   =       1.2000000000000000 [-]
	 SCS Same-Spin Energy      =      -0.1746868702037306 [Eh]
	 SCS Opposite-Spin Energy  =      -1.9586750495187319 [Eh]
	 SCS Correlation Energy    =      -2.1333619197224625 [Eh]
	 SCS Total Energy          =    -498.6475546151400522 [Eh]
	-----------------------------------------------------------

  Dipole Moment: [D]
     X:    -0.5740      Y:     0.0092      Z:     0.5584     Total:     0.8009

*** Psi4 exiting successfully. Buy a developer a beer!
