                               Psi4 1.4a3.dev225

  ==> Input File <==

--------------------------------------------------------------------------
#psi4
#
memory 32 gb

molecule  {
0 1
  N        0.8160970    -0.2990240    -0.0443680
  N        1.3585440    -1.5263750    -0.2734470
  N       -1.0817850     0.9875590    -0.4601130
  N       -1.2686320    -1.2431920     0.4227390
  C        1.7597130     0.6951090     0.1272320
  C        2.9786120     0.0532150     0.0016160
  C       -0.5903530    -0.1795160    -0.0248380
  C        1.4539390     2.1247050     0.4316710
  C        2.6793880    -1.2992810    -0.2463060
  C       -2.4210880     1.0928180    -0.4382200
  C       -2.6039190    -1.1175230     0.3972460
  C       -3.2414650     0.0469210    -0.0276130
  H        3.9528590     0.5149220     0.0929350
  H        1.0131890     2.6387050    -0.4244530
  H        0.7544440     2.2203260     1.2670250
  H        2.3864280     2.6245280     0.7070350
  H        3.3561510    -2.1272050    -0.4162310
  H       -2.8116738     1.9979297    -0.7640007
  H       -3.1684390    -1.9801170     0.7461500
  H       -4.3226790     0.1358530    -0.0311710
units angstrom
no_reorient  #important for SAPT in psi4, default
symmetry c1  #important for SAPT in psi4, default
}

set PROPERTIES_ORIGIN ["COM"]
properties('MP2/aug-cc-pvtz', properties = ['dipole'])
--------------------------------------------------------------------------

    Molecular point group: c1
  Charge       = 0
  Multiplicity = 1
  Basis Set: AUG-CC-PVTZ
    Blend: AUG-CC-PVTZ
  Basis Set: (AUG-CC-PVTZ AUX)
    Blend: AUG-CC-PVTZ-JKFIT

    Orbital Energies [Eh]
    ---------------------

    Doubly Occupied:

       1A    -15.641973     2A    -15.582019     3A    -15.581359
       4A    -15.578568     5A    -11.367036     6A    -11.309228
       7A    -11.305838     8A    -11.286638     9A    -11.254430
      10A    -11.252328    11A    -11.234639    12A    -11.217220
      13A     -1.386178    14A     -1.312403    15A     -1.206143
      16A     -1.129610    17A     -1.084148    18A     -1.045234
      19A     -0.958722    20A     -0.912896    21A     -0.896682
      22A     -0.802635    23A     -0.795443    24A     -0.714989
      25A     -0.707609    26A     -0.682809    27A     -0.638071
      28A     -0.636255    29A     -0.609625    30A     -0.590759
      31A     -0.587512    32A     -0.575174    33A     -0.563885
      34A     -0.552580    35A     -0.535820    36A     -0.491451
      37A     -0.455067    38A     -0.430337    39A     -0.420499
      40A     -0.407557    41A     -0.337892    42A     -0.332280

  @DF-RHF Final Energy:  -525.54287391406274

   => Energetics <=

    Nuclear Repulsion Energy =            658.5529443931569631
    One-Electron Energy =               -2019.3685542241339590
    Two-Electron Energy =                 835.2727359169141437
    Total Energy =                       -525.5428739140627385
  Basis Set: (AUG-CC-PVTZ AUX)
    Blend: AUG-CC-PVTZ-RI
    Molecular point group: c1

    Geometry (in Angstrom), charge = 0, multiplicity = 1:

       Center              X                  Y                   Z               Mass
    ------------   -----------------  -----------------  -----------------  -----------------
         N            0.823057003973    -0.261095616600    -0.037260200762    14.003074004430
         N            1.365504003973    -1.488446616600    -0.266339200762    14.003074004430
         N           -1.074824996027     1.025487383400    -0.453005200762    14.003074004430
         N           -1.261671996027    -1.205263616600     0.429846799238    14.003074004430
         C            1.766673003973     0.733037383400     0.134339799238    12.000000000000
         C            2.985572003973     0.091143383400     0.008723799238    12.000000000000
         C           -0.583392996027    -0.141587616600    -0.017730200762    12.000000000000
         C            1.460899003973     2.162633383400     0.438778799238    12.000000000000
         C            2.686348003973    -1.261352616600    -0.239198200762    12.000000000000
         C           -2.414127996027     1.130746383400    -0.431112200762    12.000000000000
         C           -2.596958996027    -1.079594616600     0.404353799238    12.000000000000
         C           -3.234504996027     0.084849383400    -0.020505200762    12.000000000000
         H            3.959819003973     0.552850383400     0.100042799238     1.007825032230
         H            1.020149003973     2.676633383400    -0.417345200762     1.007825032230
         H            0.761404003973     2.258254383400     1.274132799238     1.007825032230
         H            2.393388003973     2.662456383400     0.714142799238     1.007825032230
         H            3.363111003973    -2.089276616600    -0.409123200762     1.007825032230
         H           -2.804713796027     2.035858083400    -0.756892900762     1.007825032230
         H           -3.161478996027    -1.942188616600     0.753257799238     1.007825032230
         H           -4.315718996027     0.173781383400    -0.024063200762     1.007825032230

  Basis Set: AUG-CC-PVTZ
    Blend: AUG-CC-PVTZ
  Basis Set: (AUG-CC-PVTZ AUX)
    Blend: AUG-CC-PVTZ-JKFIT
	 Reference Energy          =    -525.5428739140627385 [Eh]
	 Singles Energy            =      -0.0000000000000000 [Eh]
	 Same-Spin Energy          =      -0.5774596819898825 [Eh]
	 Opposite-Spin Energy      =      -1.7383078188827845 [Eh]
	 Correlation Energy        =      -2.3157675008726670 [Eh]
	 Total Energy              =    -527.8586414149353914 [Eh]

	 ================> DF-SCS-MP2 Energies <==================
	-----------------------------------------------------------
	 SCS Same-Spin Scale       =       0.3333333333333333 [-]
	 SCS Opposite-Spin Scale   =       1.2000000000000000 [-]
	 SCS Same-Spin Energy      =      -0.1924865606632942 [Eh]
	 SCS Opposite-Spin Energy  =      -2.0859693826593415 [Eh]
	 SCS Correlation Energy    =      -2.2784559433226357 [Eh]
	 SCS Total Energy          =    -527.8213298573854217 [Eh]
	-----------------------------------------------------------

  Dipole Moment: [D]
     X:    -2.5943      Y:     2.5623      Z:     0.4376     Total:     3.6724

*** Psi4 exiting successfully. Buy a developer a beer!
