                               Psi4 1.4a3.dev225

  ==> Input File <==

--------------------------------------------------------------------------
#psi4
#
memory 32 gb

molecule  {
0 1
  N        0.8160970    -0.2990240    -0.0443680
  N        1.3505744    -1.5083429    -0.2700814
  N       -1.0817850     0.9875590    -0.4601130
  N       -1.2686320    -1.2431920     0.4227390
  C        1.7597130     0.6951090     0.1272320
  C        2.9786120     0.0532150     0.0016160
  C       -0.5903530    -0.1795160    -0.0248380
  C        1.4539390     2.1247050     0.4316710
  C        2.6793880    -1.2992810    -0.2463060
  C       -2.4210880     1.0928180    -0.4382200
  C       -2.6039190    -1.1175230     0.3972460
  C       -3.2414650     0.0469210    -0.0276130
  H        3.9528590     0.5149220     0.0929350
  H        1.0131890     2.6387050    -0.4244530
  H        0.7544440     2.2203260     1.2670250
  H        2.3864280     2.6245280     0.7070350
  H        3.3561510    -2.1272050    -0.4162310
  H       -2.8304840     2.0415190    -0.7796900
  H       -3.1684390    -1.9801170     0.7461500
  H       -4.3226790     0.1358530    -0.0311710
units angstrom
no_reorient  #important for SAPT in psi4, default
symmetry c1  #important for SAPT in psi4, default
}

set PROPERTIES_ORIGIN ["COM"]
properties('MP2/aug-cc-pvtz', properties = ['dipole'])
--------------------------------------------------------------------------

    Molecular point group: c1
  Charge       = 0
  Multiplicity = 1
  Basis Set: AUG-CC-PVTZ
    Blend: AUG-CC-PVTZ
  Basis Set: (AUG-CC-PVTZ AUX)
    Blend: AUG-CC-PVTZ-JKFIT

    Orbital Energies [Eh]
    ---------------------

    Doubly Occupied:

       1A    -15.643743     2A    -15.583091     3A    -15.580016
       4A    -15.579363     5A    -11.367886     6A    -11.311946
       7A    -11.309941     8A    -11.284419     9A    -11.253474
      10A    -11.253294    11A    -11.233835    12A    -11.217340
      13A     -1.392505    14A     -1.314305    15A     -1.206607
      16A     -1.128434    17A     -1.084174    18A     -1.046018
      19A     -0.957601    20A     -0.909546    21A     -0.897658
      22A     -0.801702    23A     -0.796887    24A     -0.713304
      25A     -0.707792    26A     -0.682474    27A     -0.640147
      28A     -0.634061    29A     -0.607488    30A     -0.590906
      31A     -0.587122    32A     -0.575808    33A     -0.563755
      34A     -0.553735    35A     -0.535152    36A     -0.492117
      37A     -0.453445    38A     -0.430878    39A     -0.420361
      40A     -0.407170    41A     -0.338219    42A     -0.330686

  @DF-RHF Final Energy:  -525.54360730957194

   => Energetics <=

    Nuclear Repulsion Energy =            658.8225754890861481
    One-Electron Energy =               -2019.8955493569640112
    Two-Electron Energy =                 835.5293665583059237
    Total Energy =                       -525.5436073095719394
  Basis Set: (AUG-CC-PVTZ AUX)
    Blend: AUG-CC-PVTZ-RI
    Molecular point group: c1

    Geometry (in Angstrom), charge = 0, multiplicity = 1:

       Center              X                  Y                   Z               Mass
    ------------   -----------------  -----------------  -----------------  -----------------
         N            0.823872598998    -0.262947469860    -0.037455838412    14.003074004430
         N            1.358349998998    -1.472266369860    -0.263169238412    14.003074004430
         N           -1.074009401002     1.023635530140    -0.453200838412    14.003074004430
         N           -1.260856401002    -1.207115469860     0.429651161588    14.003074004430
         C            1.767488598998     0.731185530140     0.134144161588    12.000000000000
         C            2.986387598998     0.089291530140     0.008528161588    12.000000000000
         C           -0.582577401002    -0.143439469860    -0.017925838412    12.000000000000
         C            1.461714598998     2.160781530140     0.438583161588    12.000000000000
         C            2.687163598998    -1.263204469860    -0.239393838412    12.000000000000
         C           -2.413312401002     1.128894530140    -0.431307838412    12.000000000000
         C           -2.596143401002    -1.081446469860     0.404158161588    12.000000000000
         C           -3.233689401002     0.082997530140    -0.020700838412    12.000000000000
         H            3.960634598998     0.550998530140     0.099847161588     1.007825032230
         H            1.020964598998     2.674781530140    -0.417540838412     1.007825032230
         H            0.762219598998     2.256402530140     1.273937161588     1.007825032230
         H            2.394203598998     2.660604530140     0.713947161588     1.007825032230
         H            3.363926598998    -2.091128469860    -0.409318838412     1.007825032230
         H           -2.822708401002     2.077595530140    -0.772777838412     1.007825032230
         H           -3.160663401002    -1.944040469860     0.753062161588     1.007825032230
         H           -4.314903401002     0.171929530140    -0.024258838412     1.007825032230

  Basis Set: AUG-CC-PVTZ
    Blend: AUG-CC-PVTZ
  Basis Set: (AUG-CC-PVTZ AUX)
    Blend: AUG-CC-PVTZ-JKFIT
	 Reference Energy          =    -525.5436073095719394 [Eh]
	 Singles Energy            =      -0.0000000000000000 [Eh]
	 Same-Spin Energy          =      -0.5777830966099686 [Eh]
	 Opposite-Spin Energy      =      -1.7385145239737438 [Eh]
	 Correlation Energy        =      -2.3162976205837125 [Eh]
	 Total Energy              =    -527.8599049301556079 [Eh]

	 ================> DF-SCS-MP2 Energies <==================
	-----------------------------------------------------------
	 SCS Same-Spin Scale       =       0.3333333333333333 [-]
	 SCS Opposite-Spin Scale   =       1.2000000000000000 [-]
	 SCS Same-Spin Energy      =      -0.1925943655366562 [Eh]
	 SCS Opposite-Spin Energy  =      -2.0862174287684927 [Eh]
	 SCS Correlation Energy    =      -2.2788117943051489 [Eh]
	 SCS Total Energy          =    -527.8224191038771096 [Eh]
	-----------------------------------------------------------

  Dipole Moment: [D]
     X:    -2.6270      Y:     2.5359      Z:     0.4362     Total:     3.6773

*** Psi4 exiting successfully. Buy a developer a beer!
