                               Psi4 1.3.2 release

  ==> Input File <==

--------------------------------------------------------------------------
#psi4
#
memory 32 gb

molecule  {
0 1
  N        0.8160970    -0.2990240    -0.0443680
  N        1.3585440    -1.5263750    -0.2734470
  N       -1.0817850     0.9875590    -0.4601130
  N       -1.2686320    -1.2431920     0.4227390
  C        1.7484844     0.6740797     0.1234156
  C        2.9786120     0.0532150     0.0016160
  C       -0.5903530    -0.1795160    -0.0248380
  C        1.4539390     2.1247050     0.4316710
  C        2.6793880    -1.2992810    -0.2463060
  C       -2.4210880     1.0928180    -0.4382200
  C       -2.6039190    -1.1175230     0.3972460
  C       -3.2414650     0.0469210    -0.0276130
  H        3.9528590     0.5149220     0.0929350
  H        1.0131890     2.6387050    -0.4244530
  H        0.7544440     2.2203260     1.2670250
  H        2.3864280     2.6245280     0.7070350
  H        3.3561510    -2.1272050    -0.4162310
  H       -2.8304840     2.0415190    -0.7796900
  H       -3.1684390    -1.9801170     0.7461500
  H       -4.3226790     0.1358530    -0.0311710
units angstrom
no_reorient  #important for SAPT in psi4, default
symmetry c1  #important for SAPT in psi4, default
}

set PROPERTIES_ORIGIN ["COM"]
properties('MP2/aug-cc-pvtz', properties = ['dipole'])
--------------------------------------------------------------------------

    Molecular point group: c1
  Charge       = 0
  Multiplicity = 1
  Basis Set: AUG-CC-PVTZ
    Blend: AUG-CC-PVTZ
  Basis Set: (AUG-CC-PVTZ AUX)
    Blend: AUG-CC-PVTZ-JKFIT

    Orbital Energies [Eh]
    ---------------------

    Doubly Occupied:

       1A    -15.643096     2A    -15.583425     3A    -15.579711
       4A    -15.579130     5A    -11.368557     6A    -11.312201
       7A    -11.310182     8A    -11.285246     9A    -11.254193
      10A    -11.253590    11A    -11.235131    12A    -11.215575
      13A     -1.390347    14A     -1.314038    15A     -1.206939
      16A     -1.130912    17A     -1.083387    18A     -1.045625
      19A     -0.956198    20A     -0.909857    21A     -0.898949
      22A     -0.801089    23A     -0.797943    24A     -0.713820
      25A     -0.707034    26A     -0.682144    27A     -0.640090
      28A     -0.634152    29A     -0.607470    30A     -0.591047
      31A     -0.586375    32A     -0.574778    33A     -0.563848
      34A     -0.553166    35A     -0.530626    36A     -0.492711
      37A     -0.454633    38A     -0.431127    39A     -0.420843
      40A     -0.408170    41A     -0.340070    42A     -0.331643

  @DF-RHF Final Energy:  -525.54417025060673

   => Energetics <=

    Nuclear Repulsion Energy =            658.6661147826395108
    One-Electron Energy =               -2019.5824334324670417
    Two-Electron Energy =                 835.3721483992209187
    Total Energy =                       -525.5441702506067259
  Basis Set: (AUG-CC-PVTZ AUX)
    Blend: AUG-CC-PVTZ-RI
    Molecular point group: c1

    Geometry (in Angstrom), charge = 0, multiplicity = 1:

       Center              X                  Y                   Z               Mass
    ------------   -----------------  -----------------  -----------------  -----------------
         N            0.824017183202    -0.259793593503    -0.036875325489    14.003074004430
         N            1.366464183202    -1.487144593503    -0.265954325489    14.003074004430
         N           -1.073864816798     1.026789406497    -0.452620325489    14.003074004430
         N           -1.260711816798    -1.203961593503     0.430231674511    14.003074004430
         C            1.756404583202     0.713310106497     0.130908274511    12.000000000000
         C            2.986532183202     0.092445406497     0.009108674511    12.000000000000
         C           -0.582432816798    -0.140285593503    -0.017345325489    12.000000000000
         C            1.461859183202     2.163935406497     0.439163674511    12.000000000000
         C            2.687308183202    -1.260050593503    -0.238813325489    12.000000000000
         C           -2.413167816798     1.132048406497    -0.430727325489    12.000000000000
         C           -2.595998816798    -1.078292593503     0.404738674511    12.000000000000
         C           -3.233544816798     0.086151406497    -0.020120325489    12.000000000000
         H            3.960779183202     0.554152406497     0.100427674511     1.007825032230
         H            1.021109183202     2.677935406497    -0.416960325489     1.007825032230
         H            0.762364183202     2.259556406497     1.274517674511     1.007825032230
         H            2.394348183202     2.663758406497     0.714527674511     1.007825032230
         H            3.364071183202    -2.087974593503    -0.408738325489     1.007825032230
         H           -2.822563816798     2.080749406497    -0.772197325489     1.007825032230
         H           -3.160518816798    -1.940886593503     0.753642674511     1.007825032230
         H           -4.314758816798     0.175083406497    -0.023678325489     1.007825032230

  Basis Set: AUG-CC-PVTZ
    Blend: AUG-CC-PVTZ
  Basis Set: (AUG-CC-PVTZ AUX)
    Blend: AUG-CC-PVTZ-JKFIT
	 Reference Energy          =    -525.5441702506067259 [Eh]
	 Singles Energy            =      -0.0000000000000000 [Eh]
	 Same-Spin Energy          =      -0.5772523215363694 [Eh]
	 Opposite-Spin Energy      =      -1.7380036289559628 [Eh]
	 Correlation Energy        =      -2.3152559504923325 [Eh]
	 Total Energy              =    -527.8594262010990406 [Eh]

	 ================> DF-SCS-MP2 Energies <==================
	-----------------------------------------------------------
	 SCS Same-Spin Scale       =       0.3333333333333333 [-]
	 SCS Opposite-Spin Scale   =       1.2000000000000000 [-]
	 SCS Same-Spin Energy      =      -0.1924174405121231 [Eh]
	 SCS Opposite-Spin Energy  =      -2.0856043547471552 [Eh]
	 SCS Correlation Energy    =      -2.2780217952592783 [Eh]
	 SCS Total Energy          =    -527.8221920458660179 [Eh]
	-----------------------------------------------------------

  Dipole Moment: [D]
     X:    -2.6563      Y:     2.5397      Z:     0.4360     Total:     3.7008

*** Psi4 exiting successfully. Buy a developer a beer!
