                               Psi4 1.3.2 release

  ==> Input File <==

--------------------------------------------------------------------------
#psi4
#
memory 32 gb

molecule  {
0 1
  N        0.8160970    -0.2990240    -0.0443680
  N        1.3585440    -1.5263750    -0.2734470
  N       -1.0817850     0.9875590    -0.4601130
  N       -1.2686320    -1.2431920     0.4227390
  C        1.7597130     0.6951090     0.1272320
  C        2.9786120     0.0532150     0.0016160
  C       -0.7231010    -0.2188903    -0.0031014
  C        1.4539390     2.1247050     0.4316710
  C        2.6793880    -1.2992810    -0.2463060
  C       -2.4210880     1.0928180    -0.4382200
  C       -2.6039190    -1.1175230     0.3972460
  C       -3.2414650     0.0469210    -0.0276130
  H        3.9528590     0.5149220     0.0929350
  H        1.0131890     2.6387050    -0.4244530
  H        0.7544440     2.2203260     1.2670250
  H        2.3864280     2.6245280     0.7070350
  H        3.3561510    -2.1272050    -0.4162310
  H       -2.8304840     2.0415190    -0.7796900
  H       -3.1684390    -1.9801170     0.7461500
  H       -4.3226790     0.1358530    -0.0311710
units angstrom
no_reorient  #important for SAPT in psi4, default
symmetry c1  #important for SAPT in psi4, default
}

set PROPERTIES_ORIGIN ["COM"]
properties('MP2/aug-cc-pvtz', properties = ['dipole'])
--------------------------------------------------------------------------

    Molecular point group: c1
  Charge       = 0
  Multiplicity = 1
  Basis Set: AUG-CC-PVTZ
    Blend: AUG-CC-PVTZ
  Basis Set: (AUG-CC-PVTZ AUX)
    Blend: AUG-CC-PVTZ-JKFIT

    Orbital Energies [Eh]
    ---------------------

    Doubly Occupied:

       1A    -15.626005     2A    -15.594890     3A    -15.586145
       4A    -15.568702     5A    -11.368782     6A    -11.323580
       7A    -11.321991     8A    -11.272891     9A    -11.263797
      10A    -11.239876    11A    -11.228087    12A    -11.204586
      13A     -1.379639    14A     -1.330254    15A     -1.239897
      16A     -1.112502    17A     -1.076048    18A     -1.036453
      19A     -0.948795    20A     -0.929424    21A     -0.893160
      22A     -0.785232    23A     -0.781951    24A     -0.725958
      25A     -0.710540    26A     -0.673560    27A     -0.637558
      28A     -0.635008    29A     -0.615330    30A     -0.589893
      31A     -0.578379    32A     -0.572843    33A     -0.553234
      34A     -0.545300    35A     -0.526392    36A     -0.490807
      37A     -0.455027    38A     -0.449716    39A     -0.434854
      40A     -0.407327    41A     -0.335957    42A     -0.320207

  @DF-RHF Final Energy:  -525.51989602268975

   => Energetics <=

    Nuclear Repulsion Energy =            658.1861857186985389
    One-Electron Energy =               -2018.6710101838739320
    Two-Electron Energy =                 834.9649284424855296
    Total Energy =                       -525.5198960226897498
  Basis Set: (AUG-CC-PVTZ AUX)
    Blend: AUG-CC-PVTZ-RI
    Molecular point group: c1

    Geometry (in Angstrom), charge = 0, multiplicity = 1:

       Center              X                  Y                   Z               Mass
    ------------   -----------------  -----------------  -----------------  -----------------
         N            0.833126873940    -0.258418362251    -0.038790903804    14.003074004430
         N            1.375573873940    -1.485769362251    -0.267869903804    14.003074004430
         N           -1.064755126060     1.028164637749    -0.454535903804    14.003074004430
         N           -1.251602126060    -1.202586362251     0.428316096196    14.003074004430
         C            1.776742873940     0.735714637749     0.132809096196    12.000000000000
         C            2.995641873940     0.093820637749     0.007193096196    12.000000000000
         C           -0.706071126060    -0.178284662251     0.002475696196    12.000000000000
         C            1.470968873940     2.165310637749     0.437248096196    12.000000000000
         C            2.696417873940    -1.258675362251    -0.240728903804    12.000000000000
         C           -2.404058126060     1.133423637749    -0.432642903804    12.000000000000
         C           -2.586889126060    -1.076917362251     0.402823096196    12.000000000000
         C           -3.224435126060     0.087526637749    -0.022035903804    12.000000000000
         H            3.969888873940     0.555527637749     0.098512096196     1.007825032230
         H            1.030218873940     2.679310637749    -0.418875903804     1.007825032230
         H            0.771473873940     2.260931637749     1.272602096196     1.007825032230
         H            2.403457873940     2.665133637749     0.712612096196     1.007825032230
         H            3.373180873940    -2.086599362251    -0.410653903804     1.007825032230
         H           -2.813454126060     2.082124637749    -0.774112903804     1.007825032230
         H           -3.151409126060    -1.939511362251     0.751727096196     1.007825032230
         H           -4.305649126060     0.176458637749    -0.025593903804     1.007825032230

  Basis Set: AUG-CC-PVTZ
    Blend: AUG-CC-PVTZ
  Basis Set: (AUG-CC-PVTZ AUX)
    Blend: AUG-CC-PVTZ-JKFIT
	 Reference Energy          =    -525.5198960226897498 [Eh]
	 Singles Energy            =      -0.0000000000000000 [Eh]
	 Same-Spin Energy          =      -0.5778861053664182 [Eh]
	 Opposite-Spin Energy      =      -1.7392831992750317 [Eh]
	 Correlation Energy        =      -2.3171693046414497 [Eh]
	 Total Energy              =    -527.8370653273311746 [Eh]

	 ================> DF-SCS-MP2 Energies <==================
	-----------------------------------------------------------
	 SCS Same-Spin Scale       =       0.3333333333333333 [-]
	 SCS Opposite-Spin Scale   =       1.2000000000000000 [-]
	 SCS Same-Spin Energy      =      -0.1926287017888060 [Eh]
	 SCS Opposite-Spin Energy  =      -2.0871398391300380 [Eh]
	 SCS Correlation Energy    =      -2.2797685409188442 [Eh]
	 SCS Total Energy          =    -527.7996645636086441 [Eh]
	-----------------------------------------------------------

  Dipole Moment: [D]
     X:    -3.9863      Y:     2.5587      Z:     0.4925     Total:     4.7624

*** Psi4 exiting successfully. Buy a developer a beer!
