                               Psi4 1.3.2 release

  ==> Input File <==

--------------------------------------------------------------------------
#psi4
#
memory 32 gb

molecule  {
0 1
  N        0.8160970    -0.2990240    -0.0443680
  N        1.3585440    -1.5263750    -0.2734470
  N       -1.0817850     0.9875590    -0.4601130
  N       -1.2710453    -1.2649935     0.4309242
  C        1.7597130     0.6951090     0.1272320
  C        2.9786120     0.0532150     0.0016160
  C       -0.5903530    -0.1795160    -0.0248380
  C        1.4539390     2.1247050     0.4316710
  C        2.6793880    -1.2992810    -0.2463060
  C       -2.4210880     1.0928180    -0.4382200
  C       -2.6039190    -1.1175230     0.3972460
  C       -3.2414650     0.0469210    -0.0276130
  H        3.9528590     0.5149220     0.0929350
  H        1.0131890     2.6387050    -0.4244530
  H        0.7544440     2.2203260     1.2670250
  H        2.3864280     2.6245280     0.7070350
  H        3.3561510    -2.1272050    -0.4162310
  H       -2.8304840     2.0415190    -0.7796900
  H       -3.1684390    -1.9801170     0.7461500
  H       -4.3226790     0.1358530    -0.0311710
units angstrom
no_reorient  #important for SAPT in psi4, default
symmetry c1  #important for SAPT in psi4, default
}

set PROPERTIES_ORIGIN ["COM"]
properties('MP2/aug-cc-pvtz', properties = ['dipole'])
--------------------------------------------------------------------------

    Molecular point group: c1
  Charge       = 0
  Multiplicity = 1
  Basis Set: AUG-CC-PVTZ
    Blend: AUG-CC-PVTZ
  Basis Set: (AUG-CC-PVTZ AUX)
    Blend: AUG-CC-PVTZ-JKFIT

    Orbital Energies [Eh]
    ---------------------

    Doubly Occupied:

       1A    -15.643039     2A    -15.583258     3A    -15.581919
       4A    -15.581839     5A    -11.370294     6A    -11.311772
       7A    -11.308628     8A    -11.287273     9A    -11.255080
      10A    -11.252354    11A    -11.235055    12A    -11.217846
      13A     -1.386084    14A     -1.310143    15A     -1.205365
      16A     -1.129363    17A     -1.084324    18A     -1.044483
      19A     -0.959223    20A     -0.907207    21A     -0.896407
      22A     -0.800266    23A     -0.794699    24A     -0.713162
      25A     -0.705408    26A     -0.682351    27A     -0.637918
      28A     -0.633321    29A     -0.606794    30A     -0.588234
      31A     -0.586065    32A     -0.574485    33A     -0.564314
      34A     -0.552767    35A     -0.536322    36A     -0.493346
      37A     -0.455636    38A     -0.430988    39A     -0.421493
      40A     -0.407187    41A     -0.337628    42A     -0.332850

  @DF-RHF Final Energy:  -525.54188352733865

   => Energetics <=

    Nuclear Repulsion Energy =            657.6698564425893210
    One-Electron Energy =               -2017.6111013787956381
    Two-Electron Energy =                 834.3993614088675486
    Total Energy =                       -525.5418835273386549
  Basis Set: (AUG-CC-PVTZ AUX)
    Blend: AUG-CC-PVTZ-RI
    Molecular point group: c1

    Geometry (in Angstrom), charge = 0, multiplicity = 1:

       Center              X                  Y                   Z               Mass
    ------------   -----------------  -----------------  -----------------  -----------------
         N            0.823386543521    -0.259462895691    -0.037877448652    14.003074004430
         N            1.365833543521    -1.486813895691    -0.266956448652    14.003074004430
         N           -1.074495456479     1.027120104309    -0.453622448652    14.003074004430
         N           -1.263755756479    -1.225432395691     0.437414751348    14.003074004430
         C            1.767002543521     0.734670104309     0.133722551348    12.000000000000
         C            2.985901543521     0.092776104309     0.008106551348    12.000000000000
         C           -0.583063456479    -0.139954895691    -0.018347448652    12.000000000000
         C            1.461228543521     2.164266104309     0.438161551348    12.000000000000
         C            2.686677543521    -1.259719895691    -0.239815448652    12.000000000000
         C           -2.413798456479     1.132379104309    -0.431729448652    12.000000000000
         C           -2.596629456479    -1.077961895691     0.403736551348    12.000000000000
         C           -3.234175456479     0.086482104309    -0.021122448652    12.000000000000
         H            3.960148543521     0.554483104309     0.099425551348     1.007825032230
         H            1.020478543521     2.678266104309    -0.417962448652     1.007825032230
         H            0.761733543521     2.259887104309     1.273515551348     1.007825032230
         H            2.393717543521     2.664089104309     0.713525551348     1.007825032230
         H            3.363440543521    -2.087643895691    -0.409740448652     1.007825032230
         H           -2.823194456479     2.081080104309    -0.773199448652     1.007825032230
         H           -3.161149456479    -1.940555895691     0.752640551348     1.007825032230
         H           -4.315389456479     0.175414104309    -0.024680448652     1.007825032230

  Basis Set: AUG-CC-PVTZ
    Blend: AUG-CC-PVTZ
  Basis Set: (AUG-CC-PVTZ AUX)
    Blend: AUG-CC-PVTZ-JKFIT
	 Reference Energy          =    -525.5418835273386549 [Eh]
	 Singles Energy            =      -0.0000000000000000 [Eh]
	 Same-Spin Energy          =      -0.5777028682374969 [Eh]
	 Opposite-Spin Energy      =      -1.7392920774671987 [Eh]
	 Correlation Energy        =      -2.3169949457046957 [Eh]
	 Total Energy              =    -527.8588784730433190 [Eh]

	 ================> DF-SCS-MP2 Energies <==================
	-----------------------------------------------------------
	 SCS Same-Spin Scale       =       0.3333333333333333 [-]
	 SCS Opposite-Spin Scale   =       1.2000000000000000 [-]
	 SCS Same-Spin Energy      =      -0.1925676227458323 [Eh]
	 SCS Opposite-Spin Energy  =      -2.0871504929606384 [Eh]
	 SCS Correlation Energy    =      -2.2797181157064705 [Eh]
	 SCS Total Energy          =    -527.8216016430451418 [Eh]
	-----------------------------------------------------------

  Dipole Moment: [D]
     X:    -2.5318      Y:     2.5865      Z:     0.4262     Total:     3.6444

*** Psi4 exiting successfully. Buy a developer a beer!
