                               Psi4 1.3.2 release

  ==> Input File <==

--------------------------------------------------------------------------
#psi4
#
memory 32 gb

molecule  {
0 1
  N        0.8160970    -0.2990240    -0.0443680
  N        1.3585440    -1.5263750    -0.2734470
  N       -1.0985858     0.8572879    -0.4098505
  N       -1.2686320    -1.2431920     0.4227390
  C        1.7597130     0.6951090     0.1272320
  C        2.9786120     0.0532150     0.0016160
  C       -0.5903530    -0.1795160    -0.0248380
  C        1.4539390     2.1247050     0.4316710
  C        2.6793880    -1.2992810    -0.2463060
  C       -2.4210880     1.0928180    -0.4382200
  C       -2.6039190    -1.1175230     0.3972460
  C       -3.2414650     0.0469210    -0.0276130
  H        3.9528590     0.5149220     0.0929350
  H        1.0131890     2.6387050    -0.4244530
  H        0.7544440     2.2203260     1.2670250
  H        2.3864280     2.6245280     0.7070350
  H        3.3561510    -2.1272050    -0.4162310
  H       -2.8304840     2.0415190    -0.7796900
  H       -3.1684390    -1.9801170     0.7461500
  H       -4.3226790     0.1358530    -0.0311710
units angstrom
no_reorient  #important for SAPT in psi4, default
symmetry c1  #important for SAPT in psi4, default
}

set PROPERTIES_ORIGIN ["COM"]
properties('MP2/aug-cc-pvtz', properties = ['dipole'])
--------------------------------------------------------------------------

    Molecular point group: c1
  Charge       = 0
  Multiplicity = 1
  Basis Set: AUG-CC-PVTZ
    Blend: AUG-CC-PVTZ
  Basis Set: (AUG-CC-PVTZ AUX)
    Blend: AUG-CC-PVTZ-JKFIT

    Orbital Energies [Eh]
    ---------------------

    Doubly Occupied:

       1A    -15.636357     2A    -15.578818     3A    -15.572695
       4A    -15.563406     5A    -11.347944     6A    -11.315269
       7A    -11.306050     8A    -11.283890     9A    -11.255307
      10A    -11.251111    11A    -11.235002    12A    -11.214687
      13A     -1.391084    14A     -1.330427    15A     -1.206188
      16A     -1.130205    17A     -1.084114    18A     -1.049187
      19A     -0.957747    20A     -0.923891    21A     -0.891585
      22A     -0.804964    23A     -0.793077    24A     -0.728356
      25A     -0.705293    26A     -0.681778    27A     -0.642842
      28A     -0.634705    29A     -0.608284    30A     -0.598699
      31A     -0.588566    32A     -0.580393    33A     -0.561843
      34A     -0.553127    35A     -0.533728    36A     -0.484218
      37A     -0.451710    38A     -0.429876    39A     -0.409486
      40A     -0.405761    41A     -0.340212    42A     -0.329928

  @DF-RHF Final Energy:  -525.53107923340872

   => Energetics <=

    Nuclear Repulsion Energy =            661.6541984966427208
    One-Electron Energy =               -2025.5869353483485611
    Two-Electron Energy =                 838.4016576182971221
    Total Energy =                       -525.5310792334087182
  Basis Set: (AUG-CC-PVTZ AUX)
    Blend: AUG-CC-PVTZ-RI
    Molecular point group: c1

    Geometry (in Angstrom), charge = 0, multiplicity = 1:

       Center              X                  Y                   Z               Mass
    ------------   -----------------  -----------------  -----------------  -----------------
         N            0.824645137041    -0.249974163408    -0.041558297802    14.003074004430
         N            1.367092137041    -1.477325163408    -0.270637297802    14.003074004430
         N           -1.090037662959     0.906337736592    -0.407040797802    14.003074004430
         N           -1.260083862959    -1.194142163408     0.425548702198    14.003074004430
         C            1.768261137041     0.744158836592     0.130041702198    12.000000000000
         C            2.987160137041     0.102264836592     0.004425702198    12.000000000000
         C           -0.581804862959    -0.130466163408    -0.022028297802    12.000000000000
         C            1.462487137041     2.173754836592     0.434480702198    12.000000000000
         C            2.687936137041    -1.250231163408    -0.243496297802    12.000000000000
         C           -2.412539862959     1.141867836592    -0.435410297802    12.000000000000
         C           -2.595370862959    -1.068473163408     0.400055702198    12.000000000000
         C           -3.232916862959     0.095970836592    -0.024803297802    12.000000000000
         H            3.961407137041     0.563971836592     0.095744702198     1.007825032230
         H            1.021737137041     2.687754836592    -0.421643297802     1.007825032230
         H            0.762992137041     2.269375836592     1.269834702198     1.007825032230
         H            2.394976137041     2.673577836592     0.709844702198     1.007825032230
         H            3.364699137041    -2.078155163408    -0.413421297802     1.007825032230
         H           -2.821935862959     2.090568836592    -0.776880297802     1.007825032230
         H           -3.159890862959    -1.931067163408     0.748959702198     1.007825032230
         H           -4.314130862959     0.184902836592    -0.028361297802     1.007825032230

  Basis Set: AUG-CC-PVTZ
    Blend: AUG-CC-PVTZ
  Basis Set: (AUG-CC-PVTZ AUX)
    Blend: AUG-CC-PVTZ-JKFIT
	 Reference Energy          =    -525.5310792334087182 [Eh]
	 Singles Energy            =      -0.0000000000000000 [Eh]
	 Same-Spin Energy          =      -0.5768626411920730 [Eh]
	 Opposite-Spin Energy      =      -1.7360375408356183 [Eh]
	 Correlation Energy        =      -2.3129001820276915 [Eh]
	 Total Energy              =    -527.8439794154363653 [Eh]

	 ================> DF-SCS-MP2 Energies <==================
	-----------------------------------------------------------
	 SCS Same-Spin Scale       =       0.3333333333333333 [-]
	 SCS Opposite-Spin Scale   =       1.2000000000000000 [-]
	 SCS Same-Spin Energy      =      -0.1922875470640243 [Eh]
	 SCS Opposite-Spin Energy  =      -2.0832450490027421 [Eh]
	 SCS Correlation Energy    =      -2.2755325960667663 [Eh]
	 SCS Total Energy          =    -527.8066118294755142 [Eh]
	-----------------------------------------------------------

  Dipole Moment: [D]
     X:    -2.7609      Y:     2.8447      Z:     0.3368     Total:     3.9785

*** Psi4 exiting successfully. Buy a developer a beer!
