                               Psi4 1.3.2 release

  ==> Input File <==

--------------------------------------------------------------------------
#psi4
#
memory 32 gb

molecule  {
0 1
  N        0.8160970    -0.2990240    -0.0443680
  N        1.3585440    -1.5263750    -0.2734470
  N       -1.0817850     0.9875590    -0.4601130
  N       -1.2686320    -1.2431920     0.4227390
  C        1.7597130     0.6951090     0.1272320
  C        2.9786120     0.0532150     0.0016160
  C       -0.5903530    -0.1795160    -0.0248380
  C        1.4539390     2.1247050     0.4316710
  C        2.7006516    -1.2031693    -0.2286880
  C       -2.4210880     1.0928180    -0.4382200
  C       -2.6039190    -1.1175230     0.3972460
  C       -3.2414650     0.0469210    -0.0276130
  H        3.9528590     0.5149220     0.0929350
  H        1.0131890     2.6387050    -0.4244530
  H        0.7544440     2.2203260     1.2670250
  H        2.3864280     2.6245280     0.7070350
  H        3.3561510    -2.1272050    -0.4162310
  H       -2.8304840     2.0415190    -0.7796900
  H       -3.1684390    -1.9801170     0.7461500
  H       -4.3226790     0.1358530    -0.0311710
units angstrom
no_reorient  #important for SAPT in psi4, default
symmetry c1  #important for SAPT in psi4, default
}

set PROPERTIES_ORIGIN ["COM"]
properties('MP2/aug-cc-pvtz', properties = ['dipole'])
--------------------------------------------------------------------------

    Molecular point group: c1
  Charge       = 0
  Multiplicity = 1
  Basis Set: AUG-CC-PVTZ
    Blend: AUG-CC-PVTZ
  Basis Set: (AUG-CC-PVTZ AUX)
    Blend: AUG-CC-PVTZ-JKFIT

    Orbital Energies [Eh]
    ---------------------

    Doubly Occupied:

       1A    -15.646435     2A    -15.583955     3A    -15.580197
       4A    -15.576825     5A    -11.368064     6A    -11.312419
       7A    -11.310413     8A    -11.288558     9A    -11.254163
      10A    -11.249818    11A    -11.235714    12A    -11.209915
      13A     -1.387028    14A     -1.313379    15A     -1.207199
      16A     -1.128073    17A     -1.086139    18A     -1.051482
      19A     -0.964949    20A     -0.909871    21A     -0.898757
      22A     -0.801993    23A     -0.788134    24A     -0.715555
      25A     -0.708997    26A     -0.684874    27A     -0.638665
      28A     -0.634696    29A     -0.605799    30A     -0.592307
      31A     -0.583731    32A     -0.571043    33A     -0.562919
      34A     -0.553338    35A     -0.522831    36A     -0.492941
      37A     -0.461080    38A     -0.431389    39A     -0.421937
      40A     -0.412679    41A     -0.347533    42A     -0.322109

  @DF-RHF Final Energy:  -525.52402227819846

   => Energetics <=

    Nuclear Repulsion Energy =            659.3556324059828739
    One-Electron Energy =               -2020.9235032315925764
    Two-Electron Energy =                 836.0438485474111303
    Total Energy =                       -525.5240222781984585
  Basis Set: (AUG-CC-PVTZ AUX)
    Blend: AUG-CC-PVTZ-RI
    Molecular point group: c1

    Geometry (in Angstrom), charge = 0, multiplicity = 1:

       Center              X                  Y                   Z               Mass
    ------------   -----------------  -----------------  -----------------  -----------------
         N            0.821581408392    -0.268575057884    -0.038482153330    14.003074004430
         N            1.364028408392    -1.495926057884    -0.267561153330    14.003074004430
         N           -1.076300591608     1.018007942116    -0.454227153330    14.003074004430
         N           -1.263147591608    -1.212743057884     0.428624846670    14.003074004430
         C            1.765197408392     0.725557942116     0.133117846670    12.000000000000
         C            2.984096408392     0.083663942116     0.007501846670    12.000000000000
         C           -0.584868591608    -0.149067057884    -0.018952153330    12.000000000000
         C            1.459423408392     2.155153942116     0.437556846670    12.000000000000
         C            2.706136008392    -1.172720357884    -0.222802153330    12.000000000000
         C           -2.415603591608     1.123266942116    -0.432334153330    12.000000000000
         C           -2.598434591608    -1.087074057884     0.403131846670    12.000000000000
         C           -3.235980591608     0.077369942116    -0.021727153330    12.000000000000
         H            3.958343408392     0.545370942116     0.098820846670     1.007825032230
         H            1.018673408392     2.669153942116    -0.418567153330     1.007825032230
         H            0.759928408392     2.250774942116     1.272910846670     1.007825032230
         H            2.391912408392     2.654976942116     0.712920846670     1.007825032230
         H            3.361635408392    -2.096756057884    -0.410345153330     1.007825032230
         H           -2.824999591608     2.071967942116    -0.773804153330     1.007825032230
         H           -3.162954591608    -1.949668057884     0.752035846670     1.007825032230
         H           -4.317194591608     0.166301942116    -0.025285153330     1.007825032230

  Basis Set: AUG-CC-PVTZ
    Blend: AUG-CC-PVTZ
  Basis Set: (AUG-CC-PVTZ AUX)
    Blend: AUG-CC-PVTZ-JKFIT
	 Reference Energy          =    -525.5240222781984585 [Eh]
	 Singles Energy            =      -0.0000000000000000 [Eh]
	 Same-Spin Energy          =      -0.5801004889588093 [Eh]
	 Opposite-Spin Energy      =      -1.7421989903396180 [Eh]
	 Correlation Energy        =      -2.3222994792984273 [Eh]
	 Total Energy              =    -527.8463217574968667 [Eh]

	 ================> DF-SCS-MP2 Energies <==================
	-----------------------------------------------------------
	 SCS Same-Spin Scale       =       0.3333333333333333 [-]
	 SCS Opposite-Spin Scale   =       1.2000000000000000 [-]
	 SCS Same-Spin Energy      =      -0.1933668296529364 [Eh]
	 SCS Opposite-Spin Energy  =      -2.0906387884075417 [Eh]
	 SCS Correlation Energy    =      -2.2840056180604780 [Eh]
	 SCS Total Energy          =    -527.8080278962589773 [Eh]
	-----------------------------------------------------------

  Dipole Moment: [D]
     X:    -2.7397      Y:     2.7043      Z:     0.4697     Total:     3.8782

*** Psi4 exiting successfully. Buy a developer a beer!
