                               Psi4 1.3.2 release

  ==> Input File <==

--------------------------------------------------------------------------
#psi4
#
memory 32 gb

molecule  {
0 1
  N        0.8160970    -0.2990240    -0.0443680
  N        1.3585440    -1.5263750    -0.2734470
  N       -1.0817850     0.9875590    -0.4601130
  N       -1.2686320    -1.2431920     0.4227390
  C        1.7597130     0.6951090     0.1272320
  C        2.9786120     0.0532150     0.0016160
  C       -0.5903530    -0.1795160    -0.0248380
  C        1.4539390     2.1247050     0.4316710
  C        2.6793880    -1.2992810    -0.2463060
  C       -2.4210880     1.0928180    -0.4382200
  C       -2.6039190    -1.1175230     0.3972460
  C       -3.1084839     0.1013813    -0.0528500
  H        3.9528590     0.5149220     0.0929350
  H        1.0131890     2.6387050    -0.4244530
  H        0.7544440     2.2203260     1.2670250
  H        2.3864280     2.6245280     0.7070350
  H        3.3561510    -2.1272050    -0.4162310
  H       -2.8304840     2.0415190    -0.7796900
  H       -3.1684390    -1.9801170     0.7461500
  H       -4.3226790     0.1358530    -0.0311710
units angstrom
no_reorient  #important for SAPT in psi4, default
symmetry c1  #important for SAPT in psi4, default
}

set PROPERTIES_ORIGIN ["COM"]
properties('MP2/aug-cc-pvtz', properties = ['dipole'])
--------------------------------------------------------------------------

    Molecular point group: c1
  Charge       = 0
  Multiplicity = 1
  Basis Set: AUG-CC-PVTZ
    Blend: AUG-CC-PVTZ
  Basis Set: (AUG-CC-PVTZ AUX)
    Blend: AUG-CC-PVTZ-JKFIT

    Orbital Energies [Eh]
    ---------------------

    Doubly Occupied:

       1A    -15.640788     2A    -15.581895     3A    -15.580617
       4A    -15.577878     5A    -11.364678     6A    -11.315726
       7A    -11.290443     8A    -11.285601     9A    -11.253513
      10A    -11.250212    11A    -11.233599    12A    -11.216236
      13A     -1.386042    14A     -1.318663    15A     -1.209390
      16A     -1.135578    17A     -1.084570    18A     -1.049429
      19A     -0.957629    20A     -0.922033    21A     -0.890400
      22A     -0.800636    23A     -0.796778    24A     -0.721116
      25A     -0.709360    26A     -0.675775    27A     -0.642037
      28A     -0.626248    29A     -0.604237    30A     -0.590612
      31A     -0.586476    32A     -0.579056    33A     -0.561427
      34A     -0.553755    35A     -0.533709    36A     -0.472911
      37A     -0.454855    38A     -0.433935    39A     -0.422662
      40A     -0.414692    41A     -0.339908    42A     -0.331455

  @DF-RHF Final Energy:  -525.51349257537686

   => Energetics <=

    Nuclear Repulsion Energy =            661.2582508391366218
    One-Electron Energy =               -2024.7503688900139878
    Two-Electron Energy =                 837.9786254755003938
    Total Energy =                       -525.5134925753768584
  Basis Set: (AUG-CC-PVTZ AUX)
    Blend: AUG-CC-PVTZ-RI
    Molecular point group: c1

    Geometry (in Angstrom), charge = 0, multiplicity = 1:

       Center              X                  Y                   Z               Mass
    ------------   -----------------  -----------------  -----------------  -----------------
         N            0.813206516193    -0.265452664482    -0.035269532164    14.003074004430
         N            1.355653516193    -1.492803664482    -0.264348532164    14.003074004430
         N           -1.084675483807     1.021130335518    -0.451014532164    14.003074004430
         N           -1.271522483807    -1.209620664482     0.431837467836    14.003074004430
         C            1.756822516193     0.728680335518     0.136330467836    12.000000000000
         C            2.975721516193     0.086786335518     0.010714467836    12.000000000000
         C           -0.593243483807    -0.145944664482    -0.015739532164    12.000000000000
         C            1.451048516193     2.158276335518     0.440769467836    12.000000000000
         C            2.676497516193    -1.265709664482    -0.237207532164    12.000000000000
         C           -2.423978483807     1.126389335518    -0.429121532164    12.000000000000
         C           -2.606809483807    -1.083951664482     0.406344467836    12.000000000000
         C           -3.111374383807     0.134952635518    -0.043751532164    12.000000000000
         H            3.949968516193     0.548493335518     0.102033467836     1.007825032230
         H            1.010298516193     2.672276335518    -0.415354532164     1.007825032230
         H            0.751553516193     2.253897335518     1.276123467836     1.007825032230
         H            2.383537516193     2.658099335518     0.716133467836     1.007825032230
         H            3.353260516193    -2.093633664482    -0.407132532164     1.007825032230
         H           -2.833374483807     2.075090335518    -0.770591532164     1.007825032230
         H           -3.171329483807    -1.946545664482     0.755248467836     1.007825032230
         H           -4.325569483807     0.169424335518    -0.022072532164     1.007825032230

  Basis Set: AUG-CC-PVTZ
    Blend: AUG-CC-PVTZ
  Basis Set: (AUG-CC-PVTZ AUX)
    Blend: AUG-CC-PVTZ-JKFIT
	 Reference Energy          =    -525.5134925753768584 [Eh]
	 Singles Energy            =      -0.0000000000000000 [Eh]
	 Same-Spin Energy          =      -0.5784194386594173 [Eh]
	 Opposite-Spin Energy      =      -1.7400040490867195 [Eh]
	 Correlation Energy        =      -2.3184234877461369 [Eh]
	 Total Energy              =    -527.8319160631230034 [Eh]

	 ================> DF-SCS-MP2 Energies <==================
	-----------------------------------------------------------
	 SCS Same-Spin Scale       =       0.3333333333333333 [-]
	 SCS Opposite-Spin Scale   =       1.2000000000000000 [-]
	 SCS Same-Spin Energy      =      -0.1928064795531391 [Eh]
	 SCS Opposite-Spin Energy  =      -2.0880048589040632 [Eh]
	 SCS Correlation Energy    =      -2.2808113384572022 [Eh]
	 SCS Total Energy          =    -527.7943039138340282 [Eh]
	-----------------------------------------------------------

  Dipole Moment: [D]
     X:    -2.5579      Y:     2.4298      Z:     0.4878     Total:     3.5616

*** Psi4 exiting successfully. Buy a developer a beer!
