                               Psi4 1.4a3.dev225

  ==> Input File <==

--------------------------------------------------------------------------
#psi4
#
memory 32 gb

molecule  {
0 1
  N        0.8160970    -0.2990240    -0.0443680
  N        1.3585440    -1.5263750    -0.2734470
  N       -1.0817850     0.9875590    -0.4601130
  N       -1.2686320    -1.2431920     0.4227390
  C        1.7597130     0.6951090     0.1272320
  C        2.9786120     0.0532150     0.0016160
  C       -0.5903530    -0.1795160    -0.0248380
  C        1.4539390     2.1247050     0.4316710
  C        2.6793880    -1.2992810    -0.2463060
  C       -2.4210880     1.0928180    -0.4382200
  C       -2.6039190    -1.1175230     0.3972460
  C       -3.2414650     0.0469210    -0.0276130
  H        3.9528590     0.5149220     0.0929350
  H        1.0131890     2.6387050    -0.4244530
  H        0.7544440     2.2203260     1.2670250
  H        2.3864280     2.6245280     0.7070350
  H        3.3561510    -2.1272050    -0.4162310
  H       -2.8304840     2.0415190    -0.7796900
  H       -3.1684390    -1.9801170     0.7461500
  H       -4.3426116     0.1374925    -0.0312366
units angstrom
no_reorient  #important for SAPT in psi4, default
symmetry c1  #important for SAPT in psi4, default
}

set PROPERTIES_ORIGIN ["COM"]
properties('MP2/aug-cc-pvtz', properties = ['dipole'])
--------------------------------------------------------------------------

    Molecular point group: c1
  Charge       = 0
  Multiplicity = 1
  Basis Set: AUG-CC-PVTZ
    Blend: AUG-CC-PVTZ
  Basis Set: (AUG-CC-PVTZ AUX)
    Blend: AUG-CC-PVTZ-JKFIT

    Orbital Energies [Eh]
    ---------------------

    Doubly Occupied:

       1A    -15.642161     2A    -15.582553     3A    -15.581495
       4A    -15.578790     5A    -11.367467     6A    -11.311679
       7A    -11.309639     8A    -11.286776     9A    -11.254920
      10A    -11.254567    11A    -11.234734    12A    -11.217343
      13A     -1.386380    14A     -1.312647    15A     -1.206149
      16A     -1.129334    17A     -1.084152    18A     -1.044457
      19A     -0.958821    20A     -0.909159    21A     -0.895945
      22A     -0.800131    23A     -0.795254    24A     -0.712994
      25A     -0.706931    26A     -0.680589    27A     -0.638203
      28A     -0.631254    29A     -0.607240    30A     -0.589529
      31A     -0.586684    32A     -0.575212    33A     -0.563953
      34A     -0.552727    35A     -0.535886    36A     -0.491202
      37A     -0.455125    38A     -0.430616    39A     -0.420310
      40A     -0.407779    41A     -0.338095    42A     -0.332408

  @DF-RHF Final Energy:  -525.54297396030711

   => Energetics <=

    Nuclear Repulsion Energy =            658.1698025724417676
    One-Electron Energy =               -2018.6229739557556968
    Two-Electron Energy =                 834.9101974230068208
    Total Energy =                       -525.5429739603071084
  Basis Set: (AUG-CC-PVTZ AUX)
    Blend: AUG-CC-PVTZ-RI
    Molecular point group: c1

    Geometry (in Angstrom), charge = 0, multiplicity = 1:

       Center              X                  Y                   Z               Mass
    ------------   -----------------  -----------------  -----------------  -----------------
         N            0.823300927065    -0.261380375284    -0.037161008552    14.003074004430
         N            1.365747927065    -1.488731375284    -0.266240008552    14.003074004430
         N           -1.074581072935     1.025202624716    -0.452906008552    14.003074004430
         N           -1.261428072935    -1.205548375284     0.429945991448    14.003074004430
         C            1.766916927065     0.732752624716     0.134438991448    12.000000000000
         C            2.985815927065     0.090858624716     0.008822991448    12.000000000000
         C           -0.583149072935    -0.141872375284    -0.017631008552    12.000000000000
         C            1.461142927065     2.162348624716     0.438877991448    12.000000000000
         C            2.686591927065    -1.261637375284    -0.239099008552    12.000000000000
         C           -2.413884072935     1.130461624716    -0.431013008552    12.000000000000
         C           -2.596715072935    -1.079879375284     0.404452991448    12.000000000000
         C           -3.234261072935     0.084564624716    -0.020406008552    12.000000000000
         H            3.960062927065     0.552565624716     0.100141991448     1.007825032230
         H            1.020392927065     2.676348624716    -0.417246008552     1.007825032230
         H            0.761647927065     2.257969624716     1.274231991448     1.007825032230
         H            2.393631927065     2.662171624716     0.714241991448     1.007825032230
         H            3.363354927065    -2.089561375284    -0.409024008552     1.007825032230
         H           -2.823280072935     2.079162624716    -0.772483008552     1.007825032230
         H           -3.161235072935    -1.942473375284     0.753356991448     1.007825032230
         H           -4.335407672935     0.175136124716    -0.024029608552     1.007825032230

  Basis Set: AUG-CC-PVTZ
    Blend: AUG-CC-PVTZ
  Basis Set: (AUG-CC-PVTZ AUX)
    Blend: AUG-CC-PVTZ-JKFIT
	 Reference Energy          =    -525.5429739603071084 [Eh]
	 Singles Energy            =      -0.0000000000000000 [Eh]
	 Same-Spin Energy          =      -0.5775992767844255 [Eh]
	 Opposite-Spin Energy      =      -1.7387700925296619 [Eh]
	 Correlation Energy        =      -2.3163693693140872 [Eh]
	 Total Energy              =    -527.8593433296211970 [Eh]

	 ================> DF-SCS-MP2 Energies <==================
	-----------------------------------------------------------
	 SCS Same-Spin Scale       =       0.3333333333333333 [-]
	 SCS Opposite-Spin Scale   =       1.2000000000000000 [-]
	 SCS Same-Spin Energy      =      -0.1925330922614751 [Eh]
	 SCS Opposite-Spin Energy  =      -2.0865241110355943 [Eh]
	 SCS Correlation Energy    =      -2.2790572032970693 [Eh]
	 SCS Total Energy          =    -527.8220311636041515 [Eh]
	-----------------------------------------------------------

  Dipole Moment: [D]
     X:    -2.5756      Y:     2.5547      Z:     0.4400     Total:     3.6543

*** Psi4 exiting successfully. Buy a developer a beer!
