                               Psi4 1.3.2 release

  ==> Input File <==

--------------------------------------------------------------------------
#psi4
#
memory 32 gb

molecule  {
0 1
  N        0.8160970    -0.2990240    -0.0443680
  N        1.3585440    -1.5263750    -0.2734470
  N       -1.0817850     0.9875590    -0.4601130
  N       -1.2686320    -1.2431920     0.4227390
  C        1.7597130     0.6951090     0.1272320
  C        2.9786120     0.0532150     0.0016160
  C       -0.5903530    -0.1795160    -0.0248380
  C        1.4539390     2.1247050     0.4316710
  C        2.6793880    -1.2992810    -0.2463060
  C       -2.4210880     1.0928180    -0.4382200
  C       -2.6039190    -1.1175230     0.3972460
  C       -3.3594006    -0.1034349     0.0314150
  H        3.9528590     0.5149220     0.0929350
  H        1.0131890     2.6387050    -0.4244530
  H        0.7544440     2.2203260     1.2670250
  H        2.3864280     2.6245280     0.7070350
  H        3.3561510    -2.1272050    -0.4162310
  H       -2.8304840     2.0415190    -0.7796900
  H       -3.1684390    -1.9801170     0.7461500
  H       -4.3226790     0.1358530    -0.0311710
units angstrom
no_reorient  #important for SAPT in psi4, default
symmetry c1  #important for SAPT in psi4, default
}

set PROPERTIES_ORIGIN ["COM"]
properties('MP2/aug-cc-pvtz', properties = ['dipole'])
--------------------------------------------------------------------------

    Molecular point group: c1
  Charge       = 0
  Multiplicity = 1
  Basis Set: AUG-CC-PVTZ
    Blend: AUG-CC-PVTZ
  Basis Set: (AUG-CC-PVTZ AUX)
    Blend: AUG-CC-PVTZ-JKFIT

    Orbital Energies [Eh]
    ---------------------

    Doubly Occupied:

       1A    -15.643810     2A    -15.590251     3A    -15.582464
       4A    -15.572020     5A    -11.370168     6A    -11.336431
       7A    -11.290798     8A    -11.288256     9A    -11.255749
      10A    -11.255517    11A    -11.236575    12A    -11.218727
      13A     -1.387260    14A     -1.309672    15A     -1.205449
      16A     -1.126775    17A     -1.085693    18A     -1.045520
      19A     -0.960652    20A     -0.914655    21A     -0.887369
      22A     -0.801547    23A     -0.793897    24A     -0.724277
      25A     -0.702318    26A     -0.690027    27A     -0.652929
      28A     -0.637352    29A     -0.600992    30A     -0.589709
      31A     -0.574941    32A     -0.569046    33A     -0.562996
      34A     -0.552138    35A     -0.536649    36A     -0.492533
      37A     -0.454448    38A     -0.437256    39A     -0.412763
      40A     -0.400853    41A     -0.337459    42A     -0.333486

  @DF-RHF Final Energy:  -525.50190795080948

   => Energetics <=

    Nuclear Repulsion Energy =            656.0554686943864908
    One-Electron Energy =               -2014.2719025274868727
    Two-Electron Energy =                 832.7145258822909000
    Total Energy =                       -525.5019079508094819
  Basis Set: (AUG-CC-PVTZ AUX)
    Blend: AUG-CC-PVTZ-RI
    Molecular point group: c1

    Geometry (in Angstrom), charge = 0, multiplicity = 1:

       Center              X                  Y                   Z               Mass
    ------------   -----------------  -----------------  -----------------  -----------------
         N            0.832016463725    -0.250098636729    -0.041586450204    14.003074004430
         N            1.374463463725    -1.477449636729    -0.270665450204    14.003074004430
         N           -1.065865536275     1.036484363271    -0.457331450204    14.003074004430
         N           -1.252712536275    -1.194266636729     0.425520549796    14.003074004430
         C            1.775632463725     0.744034363271     0.130013549796    12.000000000000
         C            2.994531463725     0.102140363271     0.004397549796    12.000000000000
         C           -0.574433536275    -0.130590636729    -0.022056450204    12.000000000000
         C            1.469858463725     2.173630363271     0.434452549796    12.000000000000
         C            2.695307463725    -1.250355636729    -0.243524450204    12.000000000000
         C           -2.405168536275     1.141743363271    -0.435438450204    12.000000000000
         C           -2.587999536275    -1.068597636729     0.400027549796    12.000000000000
         C           -3.343481136275    -0.054509536729     0.034196549796    12.000000000000
         H            3.968778463725     0.563847363271     0.095716549796     1.007825032230
         H            1.029108463725     2.687630363271    -0.421671450204     1.007825032230
         H            0.770363463725     2.269251363271     1.269806549796     1.007825032230
         H            2.402347463725     2.673453363271     0.709816549796     1.007825032230
         H            3.372070463725    -2.078279636729    -0.413449450204     1.007825032230
         H           -2.814564536275     2.090444363271    -0.776908450204     1.007825032230
         H           -3.152519536275    -1.931191636729     0.748931549796     1.007825032230
         H           -4.306759536275     0.184778363271    -0.028389450204     1.007825032230

  Basis Set: AUG-CC-PVTZ
    Blend: AUG-CC-PVTZ
  Basis Set: (AUG-CC-PVTZ AUX)
    Blend: AUG-CC-PVTZ-JKFIT
	 Reference Energy          =    -525.5019079508094819 [Eh]
	 Singles Energy            =      -0.0000000000000000 [Eh]
	 Same-Spin Energy          =      -0.5769893815778517 [Eh]
	 Opposite-Spin Energy      =      -1.7403836266497188 [Eh]
	 Correlation Energy        =      -2.3173730082275705 [Eh]
	 Total Energy              =    -527.8192809590370871 [Eh]

	 ================> DF-SCS-MP2 Energies <==================
	-----------------------------------------------------------
	 SCS Same-Spin Scale       =       0.3333333333333333 [-]
	 SCS Opposite-Spin Scale   =       1.2000000000000000 [-]
	 SCS Same-Spin Energy      =      -0.1923297938592839 [Eh]
	 SCS Opposite-Spin Energy  =      -2.0884603519796623 [Eh]
	 SCS Correlation Energy    =      -2.2807901458389463 [Eh]
	 SCS Total Energy          =    -527.7826980966484598 [Eh]
	-----------------------------------------------------------

  Dipole Moment: [D]
     X:    -2.4340      Y:     2.8375      Z:     0.3278     Total:     3.7527

*** Psi4 exiting successfully. Buy a developer a beer!
