                               Psi4 1.3.2 release

  ==> Input File <==

--------------------------------------------------------------------------
#psi4
#
memory 32 gb

molecule  {
0 1
  N        0.8160970    -0.2990240    -0.0443680
  N        1.3585440    -1.5263750    -0.2734470
  N       -1.0817850     0.9875590    -0.4601130
  N       -1.2686320    -1.2431920     0.4227390
  C        1.7597130     0.6951090     0.1272320
  C        2.9786120     0.0532150     0.0016160
  C       -0.5903530    -0.1795160    -0.0248380
  C        1.4539390     2.1247050     0.4316710
  C        2.6793880    -1.2992810    -0.2463060
  C       -2.4210880     1.0928180    -0.4382200
  C       -2.6039190    -1.1175230     0.3972460
  C       -3.1611256    -0.0048791    -0.0105256
  H        3.9528590     0.5149220     0.0929350
  H        1.0131890     2.6387050    -0.4244530
  H        0.7544440     2.2203260     1.2670250
  H        2.3864280     2.6245280     0.7070350
  H        3.3561510    -2.1272050    -0.4162310
  H       -2.8304840     2.0415190    -0.7796900
  H       -3.1684390    -1.9801170     0.7461500
  H       -4.3226790     0.1358530    -0.0311710
units angstrom
no_reorient  #important for SAPT in psi4, default
symmetry c1  #important for SAPT in psi4, default
}

set PROPERTIES_ORIGIN ["COM"]
properties('MP2/aug-cc-pvtz', properties = ['dipole'])
--------------------------------------------------------------------------

    Molecular point group: c1
  Charge       = 0
  Multiplicity = 1
  Basis Set: AUG-CC-PVTZ
    Blend: AUG-CC-PVTZ
  Basis Set: (AUG-CC-PVTZ AUX)
    Blend: AUG-CC-PVTZ-JKFIT

    Orbital Energies [Eh]
    ---------------------

    Doubly Occupied:

       1A    -15.641042     2A    -15.584568     3A    -15.580634
       4A    -15.575771     5A    -11.364902     6A    -11.315493
       7A    -11.295792     8A    -11.285969     9A    -11.253570
      10A    -11.251017    11A    -11.234712    12A    -11.216564
      13A     -1.385816    14A     -1.316206    15A     -1.207972
      16A     -1.132417    17A     -1.085542    18A     -1.047175
      19A     -0.958541    20A     -0.917814    21A     -0.892390
      22A     -0.801033    23A     -0.795307    24A     -0.718519
      25A     -0.708227    26A     -0.676658    27A     -0.639741
      28A     -0.623278    29A     -0.612923    30A     -0.590004
      31A     -0.586178    32A     -0.577619    33A     -0.562919
      34A     -0.553826    35A     -0.534754    36A     -0.480810
      37A     -0.454379    38A     -0.432625    39A     -0.422294
      40A     -0.411500    41A     -0.338917    42A     -0.331644

  @DF-RHF Final Energy:  -525.53031209784831

   => Energetics <=

    Nuclear Repulsion Energy =            660.1767251800949907
    One-Electron Energy =               -2022.6199507816274945
    Two-Electron Energy =                 836.9129135036841944
    Total Energy =                       -525.5303120978483093
  Basis Set: (AUG-CC-PVTZ AUX)
    Blend: AUG-CC-PVTZ-RI
    Molecular point group: c1

    Geometry (in Angstrom), charge = 0, multiplicity = 1:

       Center              X                  Y                   Z               Mass
    ------------   -----------------  -----------------  -----------------  -----------------
         N            0.817152796433    -0.257486863287    -0.038442376950    14.003074004430
         N            1.359599796433    -1.484837863287    -0.267521376950    14.003074004430
         N           -1.080729203567     1.029096136713    -0.454187376950    14.003074004430
         N           -1.267576203567    -1.201654863287     0.428664623050    14.003074004430
         C            1.760768796433     0.736646136713     0.133157623050    12.000000000000
         C            2.979667796433     0.094752136713     0.007541623050    12.000000000000
         C           -0.589297203567    -0.137978863287    -0.018912376950    12.000000000000
         C            1.454994796433     2.166242136713     0.437596623050    12.000000000000
         C            2.680443796433    -1.257743863287    -0.240380376950    12.000000000000
         C           -2.420032203567     1.134355136713    -0.432294376950    12.000000000000
         C           -2.602863203567    -1.075985863287     0.403171623050    12.000000000000
         C           -3.160069803567     0.036658036713    -0.004599976950    12.000000000000
         H            3.953914796433     0.556459136713     0.098860623050     1.007825032230
         H            1.014244796433     2.680242136713    -0.418527376950     1.007825032230
         H            0.755499796433     2.261863136713     1.272950623050     1.007825032230
         H            2.387483796433     2.666065136713     0.712960623050     1.007825032230
         H            3.357206796433    -2.085667863287    -0.410305376950     1.007825032230
         H           -2.829428203567     2.083056136713    -0.773764376950     1.007825032230
         H           -3.167383203567    -1.938579863287     0.752075623050     1.007825032230
         H           -4.321623203567     0.177390136713    -0.025245376950     1.007825032230

  Basis Set: AUG-CC-PVTZ
    Blend: AUG-CC-PVTZ
  Basis Set: (AUG-CC-PVTZ AUX)
    Blend: AUG-CC-PVTZ-JKFIT
	 Reference Energy          =    -525.5303120978483093 [Eh]
	 Singles Energy            =      -0.0000000000000000 [Eh]
	 Same-Spin Energy          =      -0.5782216266597290 [Eh]
	 Opposite-Spin Energy      =      -1.7394342600540407 [Eh]
	 Correlation Energy        =      -2.3176558867137698 [Eh]
	 Total Energy              =    -527.8479679845620467 [Eh]

	 ================> DF-SCS-MP2 Energies <==================
	-----------------------------------------------------------
	 SCS Same-Spin Scale       =       0.3333333333333333 [-]
	 SCS Opposite-Spin Scale   =       1.2000000000000000 [-]
	 SCS Same-Spin Energy      =      -0.1927405422199097 [Eh]
	 SCS Opposite-Spin Energy  =      -2.0873211120648487 [Eh]
	 SCS Correlation Energy    =      -2.2800616542847583 [Eh]
	 SCS Total Energy          =    -527.8103737521330459 [Eh]
	-----------------------------------------------------------

  Dipole Moment: [D]
     X:    -2.5713      Y:     2.6358      Z:     0.4073     Total:     3.7047

*** Psi4 exiting successfully. Buy a developer a beer!
