                               Psi4 1.3.2 release

  ==> Input File <==

--------------------------------------------------------------------------
#psi4
#
memory 32 gb

molecule  {
0 1
  N        0.8160970    -0.2990240    -0.0443680
  N        1.3585440    -1.5263750    -0.2734470
  N       -1.0817850     0.9875590    -0.4601130
  N       -1.2686320    -1.2431920     0.4227390
  C        1.7597130     0.6951090     0.1272320
  C        2.9786120     0.0532150     0.0016160
  C       -0.5903530    -0.1795160    -0.0248380
  C        1.4539390     2.1247050     0.4316710
  C        2.6793880    -1.2992810    -0.2463060
  C       -2.4210880     1.0928180    -0.4382200
  C       -2.6039190    -1.1175230     0.3972460
  C       -3.2414650     0.0469210    -0.0276130
  H        3.9528590     0.5149220     0.0929350
  H        1.0131890     2.6387050    -0.4244530
  H        0.7544440     2.2203260     1.2670250
  H        2.3864280     2.6245280     0.7070350
  H        3.3561510    -2.1272050    -0.4162310
  H       -2.9057248     2.2158760    -0.8424471
  H       -3.1684390    -1.9801170     0.7461500
  H       -4.3226790     0.1358530    -0.0311710
units angstrom
no_reorient  #important for SAPT in psi4, default
symmetry c1  #important for SAPT in psi4, default
}

set PROPERTIES_ORIGIN ["COM"]
properties('MP2/aug-cc-pvtz', properties = ['dipole'])
--------------------------------------------------------------------------

    Molecular point group: c1
  Charge       = 0
  Multiplicity = 1
  Basis Set: AUG-CC-PVTZ
    Blend: AUG-CC-PVTZ
  Basis Set: (AUG-CC-PVTZ AUX)
    Blend: AUG-CC-PVTZ-JKFIT

    Orbital Energies [Eh]
    ---------------------

    Doubly Occupied:

       1A    -15.642921     2A    -15.584835     3A    -15.582034
       4A    -15.579502     5A    -11.369328     6A    -11.332132
       7A    -11.310989     8A    -11.287317     9A    -11.255122
      10A    -11.254888    11A    -11.235052    12A    -11.217824
      13A     -1.387189    14A     -1.313734    15A     -1.206639
      16A     -1.129431    17A     -1.084755    18A     -1.045137
      19A     -0.959223    20A     -0.902189    21A     -0.894871
      22A     -0.797342    23A     -0.791048    24A     -0.711171
      25A     -0.704676    26A     -0.681803    27A     -0.639129
      28A     -0.628105    29A     -0.600929    30A     -0.589318
      31A     -0.577571    32A     -0.564716    33A     -0.563196
      34A     -0.553057    35A     -0.536369    36A     -0.492852
      37A     -0.455214    38A     -0.431703    39A     -0.418809
      40A     -0.408737    41A     -0.338951    42A     -0.332907

  @DF-RHF Final Energy:  -525.52132941521143

   => Energetics <=

    Nuclear Repulsion Energy =            657.3030454585775715
    One-Electron Energy =               -2016.8633141455338773
    Two-Electron Energy =                 834.0389392717448800
    Total Energy =                       -525.5213294152114258
  Basis Set: (AUG-CC-PVTZ AUX)
    Blend: AUG-CC-PVTZ-RI
    Molecular point group: c1

    Geometry (in Angstrom), charge = 0, multiplicity = 1:

       Center              X                  Y                   Z               Mass
    ------------   -----------------  -----------------  -----------------  -----------------
         N            0.823649145241    -0.262467797635    -0.036766305420    14.003074004430
         N            1.366096145241    -1.489818797635    -0.265845305420    14.003074004430
         N           -1.074232854759     1.024115202365    -0.452511305420    14.003074004430
         N           -1.261079854759    -1.206635797635     0.430340694580    14.003074004430
         C            1.767265145241     0.731665202365     0.134833694580    12.000000000000
         C            2.986164145241     0.089771202365     0.009217694580    12.000000000000
         C           -0.582800854759    -0.142959797635    -0.017236305420    12.000000000000
         C            1.461491145241     2.161261202365     0.439272694580    12.000000000000
         C            2.686940145241    -1.262724797635    -0.238704305420    12.000000000000
         C           -2.413535854759     1.129374202365    -0.430618305420    12.000000000000
         C           -2.596366854759    -1.080966797635     0.404847694580    12.000000000000
         C           -3.233912854759     0.083477202365    -0.020011305420    12.000000000000
         H            3.960411145241     0.551478202365     0.100536694580     1.007825032230
         H            1.020741145241     2.675261202365    -0.416851305420     1.007825032230
         H            0.761996145241     2.256882202365     1.274626694580     1.007825032230
         H            2.393980145241     2.661084202365     0.714636694580     1.007825032230
         H            3.363703145241    -2.090648797635    -0.408629305420     1.007825032230
         H           -2.898172654759     2.252432202365    -0.834845405420     1.007825032230
         H           -3.160886854759    -1.943560797635     0.753751694580     1.007825032230
         H           -4.315126854759     0.172409202365    -0.023569305420     1.007825032230

  Basis Set: AUG-CC-PVTZ
    Blend: AUG-CC-PVTZ
  Basis Set: (AUG-CC-PVTZ AUX)
    Blend: AUG-CC-PVTZ-JKFIT
	 Reference Energy          =    -525.5213294152114258 [Eh]
	 Singles Energy            =      -0.0000000000000000 [Eh]
	 Same-Spin Energy          =      -0.5781834110435714 [Eh]
	 Opposite-Spin Energy      =      -1.7408954778252599 [Eh]
	 Correlation Energy        =      -2.3190788888688312 [Eh]
	 Total Energy              =    -527.8404083040802561 [Eh]

	 ================> DF-SCS-MP2 Energies <==================
	-----------------------------------------------------------
	 SCS Same-Spin Scale       =       0.3333333333333333 [-]
	 SCS Opposite-Spin Scale   =       1.2000000000000000 [-]
	 SCS Same-Spin Energy      =      -0.1927278036811905 [Eh]
	 SCS Opposite-Spin Energy  =      -2.0890745733903118 [Eh]
	 SCS Correlation Energy    =      -2.2818023770715024 [Eh]
	 SCS Total Energy          =    -527.8031317922828975 [Eh]
	-----------------------------------------------------------

  Dipole Moment: [D]
     X:    -2.4898      Y:     2.4828      Z:     0.4650     Total:     3.5467

*** Psi4 exiting successfully. Buy a developer a beer!
