                               Psi4 1.3.2 release

  ==> Input File <==

--------------------------------------------------------------------------
#psi4
#
memory 32 gb

molecule  {
0 1
  N        0.8160970    -0.2990240    -0.0443680
  N        1.3585440    -1.5263750    -0.2734470
  N       -1.0817850     0.9875590    -0.4601130
  N       -1.2686320    -1.2431920     0.4227390
  C        1.7597130     0.6951090     0.1272320
  C        2.9786120     0.0532150     0.0016160
  C       -0.5903530    -0.1795160    -0.0248380
  C        1.4539390     2.1247050     0.4316710
  C        2.6793880    -1.2992810    -0.2463060
  C       -2.5014263     1.1446334    -0.4552662
  C       -2.6039190    -1.1175230     0.3972460
  C       -3.2414650     0.0469210    -0.0276130
  H        3.9528590     0.5149220     0.0929350
  H        1.0131890     2.6387050    -0.4244530
  H        0.7544440     2.2203260     1.2670250
  H        2.3864280     2.6245280     0.7070350
  H        3.3561510    -2.1272050    -0.4162310
  H       -2.8304840     2.0415190    -0.7796900
  H       -3.1684390    -1.9801170     0.7461500
  H       -4.3226790     0.1358530    -0.0311710
units angstrom
no_reorient  #important for SAPT in psi4, default
symmetry c1  #important for SAPT in psi4, default
}

set PROPERTIES_ORIGIN ["COM"]
properties('MP2/aug-cc-pvtz', properties = ['dipole'])
--------------------------------------------------------------------------

    Molecular point group: c1
  Charge       = 0
  Multiplicity = 1
  Basis Set: AUG-CC-PVTZ
    Blend: AUG-CC-PVTZ
  Basis Set: (AUG-CC-PVTZ AUX)
    Blend: AUG-CC-PVTZ-JKFIT

    Orbital Energies [Eh]
    ---------------------

    Doubly Occupied:

       1A    -15.640496     2A    -15.584078     3A    -15.580349
       4A    -15.580193     5A    -11.364614     6A    -11.314949
       7A    -11.312749     8A    -11.285143     9A    -11.257563
      10A    -11.253118    11A    -11.232927    12A    -11.215777
      13A     -1.383529    14A     -1.302011    15A     -1.190958
      16A     -1.126734    17A     -1.082979    18A     -1.045385
      19A     -0.957015    20A     -0.919106    21A     -0.890055
      22A     -0.804157    23A     -0.793354    24A     -0.712468
      25A     -0.702855    26A     -0.681145    27A     -0.642746
      28A     -0.634058    29A     -0.615473    30A     -0.591519
      31A     -0.586736    32A     -0.571077    33A     -0.561539
      34A     -0.549032    35A     -0.533679    36A     -0.482961
      37A     -0.453470    38A     -0.421667    39A     -0.418377
      40A     -0.408821    41A     -0.338489    42A     -0.330949

  @DF-RHF Final Energy:  -525.52747953383380

   => Energetics <=

    Nuclear Repulsion Energy =            656.2079347840184482
    One-Electron Energy =               -2014.7622292541695970
    Two-Electron Energy =                 833.0268149363172370
    Total Energy =                       -525.5274795338337981
  Basis Set: (AUG-CC-PVTZ AUX)
    Blend: AUG-CC-PVTZ-RI
    Molecular point group: c1

    Geometry (in Angstrom), charge = 0, multiplicity = 1:

       Center              X                  Y                   Z               Mass
    ------------   -----------------  -----------------  -----------------  -----------------
         N            0.829197985559    -0.265254389794    -0.035883554739    14.003074004430
         N            1.371644985559    -1.492605389794    -0.264962554739    14.003074004430
         N           -1.068684014441     1.021328610206    -0.451628554739    14.003074004430
         N           -1.255531014441    -1.209422389794     0.431223445261    14.003074004430
         C            1.772813985559     0.728878610206     0.135716445261    12.000000000000
         C            2.991712985559     0.086984610206     0.010100445261    12.000000000000
         C           -0.577252014441    -0.145746389794    -0.016353554739    12.000000000000
         C            1.467039985559     2.158474610206     0.440155445261    12.000000000000
         C            2.692488985559    -1.265511389794    -0.237821554739    12.000000000000
         C           -2.488325314441     1.178403010206    -0.446781754739    12.000000000000
         C           -2.590818014441    -1.083753389794     0.405730445261    12.000000000000
         C           -3.228364014441     0.080690610206    -0.019128554739    12.000000000000
         H            3.965959985559     0.548691610206     0.101419445261     1.007825032230
         H            1.026289985559     2.672474610206    -0.415968554739     1.007825032230
         H            0.767544985559     2.254095610206     1.275509445261     1.007825032230
         H            2.399528985559     2.658297610206     0.715519445261     1.007825032230
         H            3.369251985559    -2.093435389794    -0.407746554739     1.007825032230
         H           -2.817383014441     2.075288610206    -0.771205554739     1.007825032230
         H           -3.155338014441    -1.946347389794     0.754634445261     1.007825032230
         H           -4.309578014441     0.169622610206    -0.022686554739     1.007825032230

  Basis Set: AUG-CC-PVTZ
    Blend: AUG-CC-PVTZ
  Basis Set: (AUG-CC-PVTZ AUX)
    Blend: AUG-CC-PVTZ-JKFIT
	 Reference Energy          =    -525.5274795338337981 [Eh]
	 Singles Energy            =      -0.0000000000000000 [Eh]
	 Same-Spin Energy          =      -0.5784043318460660 [Eh]
	 Opposite-Spin Energy      =      -1.7414975412793117 [Eh]
	 Correlation Energy        =      -2.3199018731253775 [Eh]
	 Total Energy              =    -527.8473814069591299 [Eh]

	 ================> DF-SCS-MP2 Energies <==================
	-----------------------------------------------------------
	 SCS Same-Spin Scale       =       0.3333333333333333 [-]
	 SCS Opposite-Spin Scale   =       1.2000000000000000 [-]
	 SCS Same-Spin Energy      =      -0.1928014439486886 [Eh]
	 SCS Opposite-Spin Energy  =      -2.0897970495351741 [Eh]
	 SCS Correlation Energy    =      -2.2825984934838628 [Eh]
	 SCS Total Energy          =    -527.8100780273176724 [Eh]
	-----------------------------------------------------------

  Dipole Moment: [D]
     X:    -2.7439      Y:     2.6068      Z:     0.4259     Total:     3.8087

*** Psi4 exiting successfully. Buy a developer a beer!
