                               Psi4 1.3.2 release

  ==> Input File <==

--------------------------------------------------------------------------
#psi4
#
memory 32 gb

molecule  {
0 1
  N        0.8160970    -0.2990240    -0.0443680
  N        1.3585440    -1.5263750    -0.2734470
  N       -1.0817850     0.9875590    -0.4601130
  N       -1.2686320    -1.2431920     0.4227390
  C        1.7597130     0.6951090     0.1272320
  C        2.9786120     0.0532150     0.0016160
  C       -0.5903530    -0.1795160    -0.0248380
  C        1.4539390     2.1247050     0.4316710
  C        2.6315838    -1.2881174    -0.2446450
  C       -2.4210880     1.0928180    -0.4382200
  C       -2.6039190    -1.1175230     0.3972460
  C       -3.2414650     0.0469210    -0.0276130
  H        3.9528590     0.5149220     0.0929350
  H        1.0131890     2.6387050    -0.4244530
  H        0.7544440     2.2203260     1.2670250
  H        2.3864280     2.6245280     0.7070350
  H        3.3561510    -2.1272050    -0.4162310
  H       -2.8304840     2.0415190    -0.7796900
  H       -3.1684390    -1.9801170     0.7461500
  H       -4.3226790     0.1358530    -0.0311710
units angstrom
no_reorient  #important for SAPT in psi4, default
symmetry c1  #important for SAPT in psi4, default
}

set PROPERTIES_ORIGIN ["COM"]
properties('MP2/aug-cc-pvtz', properties = ['dipole'])
--------------------------------------------------------------------------

    Molecular point group: c1
  Charge       = 0
  Multiplicity = 1
  Basis Set: AUG-CC-PVTZ
    Blend: AUG-CC-PVTZ
  Basis Set: (AUG-CC-PVTZ AUX)
    Blend: AUG-CC-PVTZ-JKFIT

    Orbital Energies [Eh]
    ---------------------

    Doubly Occupied:

       1A    -15.639407     2A    -15.581637     3A    -15.578394
       4A    -15.578027     5A    -11.366681     6A    -11.311138
       7A    -11.309164     8A    -11.287799     9A    -11.252923
      10A    -11.252052    11A    -11.234877    12A    -11.215901
      13A     -1.391669    14A     -1.314742    15A     -1.205540
      16A     -1.136426    17A     -1.086815    18A     -1.044800
      19A     -0.961464    20A     -0.908889    21A     -0.894464
      22A     -0.796962    23A     -0.794604    24A     -0.713631
      25A     -0.708293    26A     -0.683304    27A     -0.639787
      28A     -0.632557    29A     -0.606574    30A     -0.588930
      31A     -0.585373    32A     -0.573944    33A     -0.565508
      34A     -0.555447    35A     -0.531195    36A     -0.491213
      37A     -0.456676    38A     -0.430267    39A     -0.420111
      40A     -0.409842    41A     -0.341849    42A     -0.334105

  @DF-RHF Final Energy:  -525.54389035651968

   => Energetics <=

    Nuclear Repulsion Energy =            659.4383405440567003
    One-Electron Energy =               -2021.1384949296696050
    Two-Electron Energy =                 836.1562640290932222
    Total Energy =                       -525.5438903565196824
  Basis Set: (AUG-CC-PVTZ AUX)
    Blend: AUG-CC-PVTZ-RI
    Molecular point group: c1

    Geometry (in Angstrom), charge = 0, multiplicity = 1:

       Center              X                  Y                   Z               Mass
    ------------   -----------------  -----------------  -----------------  -----------------
         N            0.826759069720    -0.262206931315    -0.037285938281    14.003074004430
         N            1.369206069720    -1.489557931315    -0.266364938281    14.003074004430
         N           -1.071122930280     1.024376068685    -0.453030938281    14.003074004430
         N           -1.257969930280    -1.206374931315     0.429821061719    14.003074004430
         C            1.770375069720     0.731926068685     0.134314061719    12.000000000000
         C            2.989274069720     0.090032068685     0.008698061719    12.000000000000
         C           -0.579690930280    -0.142698931315    -0.017755938281    12.000000000000
         C            1.464601069720     2.161522068685     0.438753061719    12.000000000000
         C            2.642245869720    -1.251300331315    -0.237562938281    12.000000000000
         C           -2.410425930280     1.129635068685    -0.431137938281    12.000000000000
         C           -2.593256930280    -1.080705931315     0.404328061719    12.000000000000
         C           -3.230802930280     0.083738068685    -0.020530938281    12.000000000000
         H            3.963521069720     0.551739068685     0.100017061719     1.007825032230
         H            1.023851069720     2.675522068685    -0.417370938281     1.007825032230
         H            0.765106069720     2.257143068685     1.274107061719     1.007825032230
         H            2.397090069720     2.661345068685     0.714117061719     1.007825032230
         H            3.366813069720    -2.090387931315    -0.409148938281     1.007825032230
         H           -2.819821930280     2.078336068685    -0.772607938281     1.007825032230
         H           -3.157776930280    -1.943299931315     0.753232061719     1.007825032230
         H           -4.312016930280     0.172670068685    -0.024088938281     1.007825032230

  Basis Set: AUG-CC-PVTZ
    Blend: AUG-CC-PVTZ
  Basis Set: (AUG-CC-PVTZ AUX)
    Blend: AUG-CC-PVTZ-JKFIT
	 Reference Energy          =    -525.5438903565196824 [Eh]
	 Singles Energy            =      -0.0000000000000000 [Eh]
	 Same-Spin Energy          =      -0.5764158299365096 [Eh]
	 Opposite-Spin Energy      =      -1.7364465145499373 [Eh]
	 Correlation Energy        =      -2.3128623444864469 [Eh]
	 Total Energy              =    -527.8567527010061440 [Eh]

	 ================> DF-SCS-MP2 Energies <==================
	-----------------------------------------------------------
	 SCS Same-Spin Scale       =       0.3333333333333333 [-]
	 SCS Opposite-Spin Scale   =       1.2000000000000000 [-]
	 SCS Same-Spin Energy      =      -0.1921386099788365 [Eh]
	 SCS Opposite-Spin Energy  =      -2.0837358174599245 [Eh]
	 SCS Correlation Energy    =      -2.2758744274387612 [Eh]
	 SCS Total Energy          =    -527.8197647839584761 [Eh]
	-----------------------------------------------------------

  Dipole Moment: [D]
     X:    -2.5218      Y:     2.5635      Z:     0.4407     Total:     3.6229

*** Psi4 exiting successfully. Buy a developer a beer!
