                               Psi4 1.3.2 release

  ==> Input File <==

--------------------------------------------------------------------------
#psi4
#
memory 32 gb

molecule  {
0 1
  N        0.8160970    -0.2990240    -0.0443680
  N        1.3585440    -1.5263750    -0.2734470
  N       -1.0817850     0.9875590    -0.4601130
  N       -1.2686320    -1.2431920     0.4227390
  C        1.7597130     0.6951090     0.1272320
  C        2.9786120     0.0532150     0.0016160
  C       -0.5903530    -0.1795160    -0.0248380
  C        1.4539390     2.1247050     0.4316710
  C        2.6793880    -1.2992810    -0.2463060
  C       -2.4210880     1.0928180    -0.4382200
  C       -2.5610671    -1.0964107     0.3880206
  C       -3.2414650     0.0469210    -0.0276130
  H        3.9528590     0.5149220     0.0929350
  H        1.0131890     2.6387050    -0.4244530
  H        0.7544440     2.2203260     1.2670250
  H        2.3864280     2.6245280     0.7070350
  H        3.3561510    -2.1272050    -0.4162310
  H       -2.8304840     2.0415190    -0.7796900
  H       -3.1684390    -1.9801170     0.7461500
  H       -4.3226790     0.1358530    -0.0311710
units angstrom
no_reorient  #important for SAPT in psi4, default
symmetry c1  #important for SAPT in psi4, default
}

set PROPERTIES_ORIGIN ["COM"]
properties('MP2/aug-cc-pvtz', properties = ['dipole'])
--------------------------------------------------------------------------

    Molecular point group: c1
  Charge       = 0
  Multiplicity = 1
  Basis Set: AUG-CC-PVTZ
    Blend: AUG-CC-PVTZ
  Basis Set: (AUG-CC-PVTZ AUX)
    Blend: AUG-CC-PVTZ-JKFIT

    Orbital Energies [Eh]
    ---------------------

    Doubly Occupied:

       1A    -15.643121     2A    -15.582396     3A    -15.582022
       4A    -15.577519     5A    -11.369362     6A    -11.310150
       7A    -11.307786     8A    -11.287576     9A    -11.255544
      10A    -11.251207    11A    -11.235190    12A    -11.218149
      13A     -1.388396    14A     -1.319404    15A     -1.214831
      16A     -1.130315    17A     -1.084817    18A     -1.045397
      19A     -0.959450    20A     -0.904831    21A     -0.900554
      22A     -0.801510    23A     -0.793795    24A     -0.716502
      25A     -0.707279    26A     -0.683440    27A     -0.639626
      28A     -0.633216    29A     -0.603903    30A     -0.588941
      31A     -0.580966    32A     -0.577724    33A     -0.564463
      34A     -0.554120    35A     -0.536698    36A     -0.495815
      37A     -0.455991    38A     -0.436962    39A     -0.419152
      40A     -0.407418    41A     -0.338113    42A     -0.333263

  @DF-RHF Final Energy:  -525.54217709565910

   => Energetics <=

    Nuclear Repulsion Energy =            659.3682221992601171
    One-Electron Energy =               -2020.9469714273352565
    Two-Electron Energy =                 836.0365721324160404
    Total Energy =                       -525.5421770956590990
  Basis Set: (AUG-CC-PVTZ AUX)
    Blend: AUG-CC-PVTZ-RI
    Molecular point group: c1

    Geometry (in Angstrom), charge = 0, multiplicity = 1:

       Center              X                  Y                   Z               Mass
    ------------   -----------------  -----------------  -----------------  -----------------
         N            0.819963043451    -0.262952734703    -0.036469840298    14.003074004430
         N            1.362410043451    -1.490303734703    -0.265548840298    14.003074004430
         N           -1.077918956549     1.023630265297    -0.452214840298    14.003074004430
         N           -1.264765956549    -1.207120734703     0.430637159702    14.003074004430
         C            1.763579043451     0.731180265297     0.135130159702    12.000000000000
         C            2.982478043451     0.089286265297     0.009514159702    12.000000000000
         C           -0.586486956549    -0.143444734703    -0.016939840298    12.000000000000
         C            1.457805043451     2.160776265297     0.439569159702    12.000000000000
         C            2.683254043451    -1.263209734703    -0.238407840298    12.000000000000
         C           -2.417221956549     1.128889265297    -0.430321840298    12.000000000000
         C           -2.557201056549    -1.060339434703     0.395918759702    12.000000000000
         C           -3.237598956549     0.082992265297    -0.019714840298    12.000000000000
         H            3.956725043451     0.550993265297     0.100833159702     1.007825032230
         H            1.017055043451     2.674776265297    -0.416554840298     1.007825032230
         H            0.758310043451     2.256397265297     1.274923159702     1.007825032230
         H            2.390294043451     2.660599265297     0.714933159702     1.007825032230
         H            3.360017043451    -2.091133734703    -0.408332840298     1.007825032230
         H           -2.826617956549     2.077590265297    -0.771791840298     1.007825032230
         H           -3.164572956549    -1.944045734703     0.754048159702     1.007825032230
         H           -4.318812956549     0.171924265297    -0.023272840298     1.007825032230

  Basis Set: AUG-CC-PVTZ
    Blend: AUG-CC-PVTZ
  Basis Set: (AUG-CC-PVTZ AUX)
    Blend: AUG-CC-PVTZ-JKFIT
	 Reference Energy          =    -525.5421770956590990 [Eh]
	 Singles Energy            =      -0.0000000000000000 [Eh]
	 Same-Spin Energy          =      -0.5772147906518201 [Eh]
	 Opposite-Spin Energy      =      -1.7377554682367617 [Eh]
	 Correlation Energy        =      -2.3149702588885819 [Eh]
	 Total Energy              =    -527.8571473545476920 [Eh]

	 ================> DF-SCS-MP2 Energies <==================
	-----------------------------------------------------------
	 SCS Same-Spin Scale       =       0.3333333333333333 [-]
	 SCS Opposite-Spin Scale   =       1.2000000000000000 [-]
	 SCS Same-Spin Energy      =      -0.1924049302172734 [Eh]
	 SCS Opposite-Spin Energy  =      -2.0853065618841140 [Eh]
	 SCS Correlation Energy    =      -2.2777114921013872 [Eh]
	 SCS Total Energy          =    -527.8198885877604880 [Eh]
	-----------------------------------------------------------

  Dipole Moment: [D]
     X:    -2.4713      Y:     2.5973      Z:     0.4233     Total:     3.6100

*** Psi4 exiting successfully. Buy a developer a beer!
