                               Psi4 1.3.2 release

  ==> Input File <==

--------------------------------------------------------------------------
#psi4
#
memory 32 gb

molecule  {
0 1
  N        0.8160970    -0.2990240    -0.0443680
  N        1.3585440    -1.5263750    -0.2734470
  N       -1.0817850     0.9875590    -0.4601130
  N       -1.2686320    -1.2431920     0.4227390
  C        1.7597130     0.6951090     0.1272320
  C        2.9786120     0.0532150     0.0016160
  C       -0.5903530    -0.1795160    -0.0248380
  C        1.4334625     2.2204394     0.4520581
  C        2.6793880    -1.2992810    -0.2463060
  C       -2.4210880     1.0928180    -0.4382200
  C       -2.6039190    -1.1175230     0.3972460
  C       -3.2414650     0.0469210    -0.0276130
  H        3.9528590     0.5149220     0.0929350
  H        1.0131890     2.6387050    -0.4244530
  H        0.7544440     2.2203260     1.2670250
  H        2.3864280     2.6245280     0.7070350
  H        3.3561510    -2.1272050    -0.4162310
  H       -2.8304840     2.0415190    -0.7796900
  H       -3.1684390    -1.9801170     0.7461500
  H       -4.3226790     0.1358530    -0.0311710
units angstrom
no_reorient  #important for SAPT in psi4, default
symmetry c1  #important for SAPT in psi4, default
}

set PROPERTIES_ORIGIN ["COM"]
properties('MP2/aug-cc-pvtz', properties = ['dipole'])
--------------------------------------------------------------------------

    Molecular point group: c1
  Charge       = 0
  Multiplicity = 1
  Basis Set: AUG-CC-PVTZ
    Blend: AUG-CC-PVTZ
  Basis Set: (AUG-CC-PVTZ AUX)
    Blend: AUG-CC-PVTZ-JKFIT

    Orbital Energies [Eh]
    ---------------------

    Doubly Occupied:

       1A    -15.641715     2A    -15.582488     3A    -15.580585
       4A    -15.578488     5A    -11.367240     6A    -11.311566
       7A    -11.309458     8A    -11.288927     9A    -11.253974
      10A    -11.252589    11A    -11.235354    12A    -11.216579
      13A     -1.385258    14A     -1.312251    15A     -1.205905
      16A     -1.128188    17A     -1.075466    18A     -1.043948
      19A     -0.960344    20A     -0.908892    21A     -0.896603
      22A     -0.799044    23A     -0.793949    24A     -0.712481
      25A     -0.704959    26A     -0.677852    27A     -0.637409
      28A     -0.632415    29A     -0.608330    30A     -0.592344
      31A     -0.589400    32A     -0.582452    33A     -0.563617
      34A     -0.559704    35A     -0.519385    36A     -0.493695
      37A     -0.454343    38A     -0.430666    39A     -0.420358
      40A     -0.407335    41A     -0.337680    42A     -0.333528

  @DF-RHF Final Energy:  -525.53657272442183

   => Energetics <=

    Nuclear Repulsion Energy =            656.5358068839972248
    One-Electron Energy =               -2015.3712303442916891
    Two-Electron Energy =                 833.2988507358725201
    Total Energy =                       -525.5365727244218306
  Basis Set: (AUG-CC-PVTZ AUX)
    Blend: AUG-CC-PVTZ-RI
    Molecular point group: c1

    Geometry (in Angstrom), charge = 0, multiplicity = 1:

       Center              X                  Y                   Z               Mass
    ------------   -----------------  -----------------  -----------------  -----------------
         N            0.824710451182    -0.268546773624    -0.038689738659    14.003074004430
         N            1.367157451182    -1.495897773624    -0.267768738659    14.003074004430
         N           -1.073171548818     1.018036226376    -0.454434738659    14.003074004430
         N           -1.260018548818    -1.212714773624     0.428417261341    14.003074004430
         C            1.768326451182     0.725586226376     0.132910261341    12.000000000000
         C            2.987225451182     0.083692226376     0.007294261341    12.000000000000
         C           -0.581739548818    -0.149038773624    -0.019159738659    12.000000000000
         C            1.442075951182     2.250916626376     0.457736361341    12.000000000000
         C            2.688001451182    -1.268803773624    -0.240627738659    12.000000000000
         C           -2.412474548818     1.123295226376    -0.432541738659    12.000000000000
         C           -2.595305548818    -1.087045773624     0.402924261341    12.000000000000
         C           -3.232851548818     0.077398226376    -0.021934738659    12.000000000000
         H            3.961472451182     0.545399226376     0.098613261341     1.007825032230
         H            1.021802451182     2.669182226376    -0.418774738659     1.007825032230
         H            0.763057451182     2.250803226376     1.272703261341     1.007825032230
         H            2.395041451182     2.655005226376     0.712713261341     1.007825032230
         H            3.364764451182    -2.096727773624    -0.410552738659     1.007825032230
         H           -2.821870548818     2.071996226376    -0.774011738659     1.007825032230
         H           -3.159825548818    -1.949639773624     0.751828261341     1.007825032230
         H           -4.314065548818     0.166330226376    -0.025492738659     1.007825032230

  Basis Set: AUG-CC-PVTZ
    Blend: AUG-CC-PVTZ
  Basis Set: (AUG-CC-PVTZ AUX)
    Blend: AUG-CC-PVTZ-JKFIT
	 Reference Energy          =    -525.5365727244218306 [Eh]
	 Singles Energy            =      -0.0000000000000000 [Eh]
	 Same-Spin Energy          =      -0.5769275468535994 [Eh]
	 Opposite-Spin Energy      =      -1.7383478536010848 [Eh]
	 Correlation Energy        =      -2.3152754004546843 [Eh]
	 Total Energy              =    -527.8518481248764829 [Eh]

	 ================> DF-SCS-MP2 Energies <==================
	-----------------------------------------------------------
	 SCS Same-Spin Scale       =       0.3333333333333333 [-]
	 SCS Opposite-Spin Scale   =       1.2000000000000000 [-]
	 SCS Same-Spin Energy      =      -0.1923091822845331 [Eh]
	 SCS Opposite-Spin Energy  =      -2.0860174243213017 [Eh]
	 SCS Correlation Energy    =      -2.2783266066058347 [Eh]
	 SCS Total Energy          =    -527.8148993310276182 [Eh]
	-----------------------------------------------------------

  Dipole Moment: [D]
     X:    -2.5786      Y:     2.5592      Z:     0.4455     Total:     3.6602

*** Psi4 exiting successfully. Buy a developer a beer!
