                               Psi4 1.4a3.dev225

  ==> Input File <==

--------------------------------------------------------------------------
#psi4
#
memory 32 gb

molecule  {
0 1
  N        0.8160970    -0.2990240    -0.0443680
  N        1.3585440    -1.5263750    -0.2734470
  N       -1.0817850     0.9875590    -0.4601130
  N       -1.2686320    -1.2431920     0.4227390
  C        1.7460509     0.6807155     0.1247475
  C        2.9786120     0.0532150     0.0016160
  C       -0.5903530    -0.1795160    -0.0248380
  C        1.4539390     2.1247050     0.4316710
  C        2.6793880    -1.2992810    -0.2463060
  C       -2.4210880     1.0928180    -0.4382200
  C       -2.6039190    -1.1175230     0.3972460
  C       -3.2414650     0.0469210    -0.0276130
  H        3.9528590     0.5149220     0.0929350
  H        1.0131890     2.6387050    -0.4244530
  H        0.7544440     2.2203260     1.2670250
  H        2.3864280     2.6245280     0.7070350
  H        3.3561510    -2.1272050    -0.4162310
  H       -2.8304840     2.0415190    -0.7796900
  H       -3.1684390    -1.9801170     0.7461500
  H       -4.3226790     0.1358530    -0.0311710
units angstrom
no_reorient  #important for SAPT in psi4, default
symmetry c1  #important for SAPT in psi4, default
}

set PROPERTIES_ORIGIN ["COM"]
properties('MP2/aug-cc-pvtz', properties = ['dipole'])
--------------------------------------------------------------------------

    Molecular point group: c1
  Charge       = 0
  Multiplicity = 1
  Basis Set: AUG-CC-PVTZ
    Blend: AUG-CC-PVTZ
  Basis Set: (AUG-CC-PVTZ AUX)
    Blend: AUG-CC-PVTZ-JKFIT

    Orbital Energies [Eh]
    ---------------------

    Doubly Occupied:

       1A    -15.643318     2A    -15.583364     3A    -15.579588
       4A    -15.579346     5A    -11.368336     6A    -11.312164
       7A    -11.310115     8A    -11.285973     9A    -11.254198
      10A    -11.253517    11A    -11.235046    12A    -11.216167
      13A     -1.389672    14A     -1.313767    15A     -1.206868
      16A     -1.130828    17A     -1.083512    18A     -1.045292
      19A     -0.957012    20A     -0.909768    21A     -0.898574
      22A     -0.800681    23A     -0.797575    24A     -0.713639
      25A     -0.707092    26A     -0.682201    27A     -0.639867
      28A     -0.633902    29A     -0.607486    30A     -0.590460
      31A     -0.586587    32A     -0.575018    33A     -0.564860
      34A     -0.553201    35A     -0.531325    36A     -0.492508
      37A     -0.454704    38A     -0.431089    39A     -0.420806
      40A     -0.408012    41A     -0.339884    42A     -0.330840

  @DF-RHF Final Energy:  -525.54399575511741

   => Energetics <=

    Nuclear Repulsion Energy =            658.5977450924507366
    One-Electron Energy =               -2019.4471563595236603
    Two-Electron Energy =                 835.3054155119554025
    Total Energy =                       -525.5439957551174075
  Basis Set: (AUG-CC-PVTZ AUX)
    Blend: AUG-CC-PVTZ-RI
    Molecular point group: c1

    Geometry (in Angstrom), charge = 0, multiplicity = 1:

       Center              X                  Y                   Z               Mass
    ------------   -----------------  -----------------  -----------------  -----------------
         N            0.824199610307    -0.260291045644    -0.036975171251    14.003074004430
         N            1.366646610307    -1.487642045644    -0.266054171251    14.003074004430
         N           -1.073682389693     1.026291954356    -0.452720171251    14.003074004430
         N           -1.260529389693    -1.204459045644     0.430131828749    14.003074004430
         C            1.754153510307     0.719448454356     0.132140328749    12.000000000000
         C            2.986714610307     0.091947954356     0.009008828749    12.000000000000
         C           -0.582250389693    -0.140783045644    -0.017445171251    12.000000000000
         C            1.462041610307     2.163437954356     0.439063828749    12.000000000000
         C            2.687490610307    -1.260548045644    -0.238913171251    12.000000000000
         C           -2.412985389693     1.131550954356    -0.430827171251    12.000000000000
         C           -2.595816389693    -1.078790045644     0.404638828749    12.000000000000
         C           -3.233362389693     0.085653954356    -0.020220171251    12.000000000000
         H            3.960961610307     0.553654954356     0.100327828749     1.007825032230
         H            1.021291610307     2.677437954356    -0.417060171251     1.007825032230
         H            0.762546610307     2.259058954356     1.274417828749     1.007825032230
         H            2.394530610307     2.663260954356     0.714427828749     1.007825032230
         H            3.364253610307    -2.088472045644    -0.408838171251     1.007825032230
         H           -2.822381389693     2.080251954356    -0.772297171251     1.007825032230
         H           -3.160336389693    -1.941384045644     0.753542828749     1.007825032230
         H           -4.314576389693     0.174585954356    -0.023778171251     1.007825032230

  Basis Set: AUG-CC-PVTZ
    Blend: AUG-CC-PVTZ
  Basis Set: (AUG-CC-PVTZ AUX)
    Blend: AUG-CC-PVTZ-JKFIT
	 Reference Energy          =    -525.5439957551174075 [Eh]
	 Singles Energy            =      -0.0000000000000000 [Eh]
	 Same-Spin Energy          =      -0.5773985289872597 [Eh]
	 Opposite-Spin Energy      =      -1.7382106066940464 [Eh]
	 Correlation Energy        =      -2.3156091356813060 [Eh]
	 Total Energy              =    -527.8596048907986642 [Eh]

	 ================> DF-SCS-MP2 Energies <==================
	-----------------------------------------------------------
	 SCS Same-Spin Scale       =       0.3333333333333333 [-]
	 SCS Opposite-Spin Scale   =       1.2000000000000000 [-]
	 SCS Same-Spin Energy      =      -0.1924661763290866 [Eh]
	 SCS Opposite-Spin Energy  =      -2.0858527280328554 [Eh]
	 SCS Correlation Energy    =      -2.2783189043619418 [Eh]
	 SCS Total Energy          =    -527.8223146594793889 [Eh]
	-----------------------------------------------------------

  Dipole Moment: [D]
     X:    -2.6541      Y:     2.5451      Z:     0.4375     Total:     3.7032

*** Psi4 exiting successfully. Buy a developer a beer!
