                               Psi4 1.3.2 release

  ==> Input File <==

--------------------------------------------------------------------------
#psi4
#
memory 32 gb

molecule  {
0 1
  N        0.8160970    -0.2990240    -0.0443680
  N        1.3585440    -1.5263750    -0.2734470
  N       -1.0817850     0.9875590    -0.4601130
  N       -1.2686320    -1.2431920     0.4227390
  C        1.8347591     0.8166004     0.1511667
  C        2.9786120     0.0532150     0.0016160
  C       -0.5903530    -0.1795160    -0.0248380
  C        1.4539390     2.1247050     0.4316710
  C        2.6793880    -1.2992810    -0.2463060
  C       -2.4210880     1.0928180    -0.4382200
  C       -2.6039190    -1.1175230     0.3972460
  C       -3.2414650     0.0469210    -0.0276130
  H        3.9528590     0.5149220     0.0929350
  H        1.0131890     2.6387050    -0.4244530
  H        0.7544440     2.2203260     1.2670250
  H        2.3864280     2.6245280     0.7070350
  H        3.3561510    -2.1272050    -0.4162310
  H       -2.8304840     2.0415190    -0.7796900
  H       -3.1684390    -1.9801170     0.7461500
  H       -4.3226790     0.1358530    -0.0311710
units angstrom
no_reorient  #important for SAPT in psi4, default
symmetry c1  #important for SAPT in psi4, default
}

set PROPERTIES_ORIGIN ["COM"]
properties('MP2/aug-cc-pvtz', properties = ['dipole'])
--------------------------------------------------------------------------

    Molecular point group: c1
  Charge       = 0
  Multiplicity = 1
  Basis Set: AUG-CC-PVTZ
    Blend: AUG-CC-PVTZ
  Basis Set: (AUG-CC-PVTZ AUX)
    Blend: AUG-CC-PVTZ-JKFIT

    Orbital Energies [Eh]
    ---------------------

    Doubly Occupied:

       1A    -15.632609     2A    -15.594191     3A    -15.576591
       4A    -15.572476     5A    -11.360269     6A    -11.307496
       7A    -11.305283     8A    -11.295925     9A    -11.256075
      10A    -11.247459    11A    -11.232907    12A    -11.228653
      13A     -1.367536    14A     -1.304332    15A     -1.200673
      16A     -1.121578    17A     -1.096839    18A     -1.039412
      19A     -0.973221    20A     -0.904371    21A     -0.884490
      22A     -0.797259    23A     -0.776458    24A     -0.715019
      25A     -0.705231    26A     -0.683093    27A     -0.632845
      28A     -0.628102    29A     -0.607458    30A     -0.594149
      31A     -0.589992    32A     -0.579063    33A     -0.571030
      34A     -0.548252    35A     -0.539669    36A     -0.483891
      37A     -0.453622    38A     -0.426742    39A     -0.416008
      40A     -0.405226    41A     -0.340043    42A     -0.322300

  @DF-RHF Final Energy:  -525.51414933600950

   => Energetics <=

    Nuclear Repulsion Energy =            656.1025773230555842
    One-Electron Energy =               -2014.5977728288521575
    Two-Electron Energy =                 832.9810461697870778
    Total Energy =                       -525.5141493360094955
  Basis Set: (AUG-CC-PVTZ AUX)
    Blend: AUG-CC-PVTZ-RI
    Molecular point group: c1

    Geometry (in Angstrom), charge = 0, multiplicity = 1:

       Center              X                  Y                   Z               Mass
    ------------   -----------------  -----------------  -----------------  -----------------
         N            0.817549608185    -0.270477644780    -0.038955684170    14.003074004430
         N            1.359996608185    -1.497828644780    -0.268034684170    14.003074004430
         N           -1.080332391815     1.016105355220    -0.454700684170    14.003074004430
         N           -1.267179391815    -1.214645644780     0.428151315830    14.003074004430
         C            1.836211708185     0.845146755220     0.156579015830    12.000000000000
         C            2.980064608185     0.081761355220     0.007028315830    12.000000000000
         C           -0.588900391815    -0.150969644780    -0.019425684170    12.000000000000
         C            1.455391608185     2.153251355220     0.437083315830    12.000000000000
         C            2.680840608185    -1.270734644780    -0.240893684170    12.000000000000
         C           -2.419635391815     1.121364355220    -0.432807684170    12.000000000000
         C           -2.602466391815    -1.088976644780     0.402658315830    12.000000000000
         C           -3.240012391815     0.075467355220    -0.022200684170    12.000000000000
         H            3.954311608185     0.543468355220     0.098347315830     1.007825032230
         H            1.014641608185     2.667251355220    -0.419040684170     1.007825032230
         H            0.755896608185     2.248872355220     1.272437315830     1.007825032230
         H            2.387880608185     2.653074355220     0.712447315830     1.007825032230
         H            3.357603608185    -2.098658644780    -0.410818684170     1.007825032230
         H           -2.829031391815     2.070065355220    -0.774277684170     1.007825032230
         H           -3.166986391815    -1.951570644780     0.751562315830     1.007825032230
         H           -4.321226391815     0.164399355220    -0.025758684170     1.007825032230

  Basis Set: AUG-CC-PVTZ
    Blend: AUG-CC-PVTZ
  Basis Set: (AUG-CC-PVTZ AUX)
    Blend: AUG-CC-PVTZ-JKFIT
	 Reference Energy          =    -525.5141493360094955 [Eh]
	 Singles Energy            =      -0.0000000000000000 [Eh]
	 Same-Spin Energy          =      -0.5800983926872098 [Eh]
	 Opposite-Spin Energy      =      -1.7436107849585398 [Eh]
	 Correlation Energy        =      -2.3237091776457497 [Eh]
	 Total Energy              =    -527.8378585136551919 [Eh]

	 ================> DF-SCS-MP2 Energies <==================
	-----------------------------------------------------------
	 SCS Same-Spin Scale       =       0.3333333333333333 [-]
	 SCS Opposite-Spin Scale   =       1.2000000000000000 [-]
	 SCS Same-Spin Energy      =      -0.1933661308957366 [Eh]
	 SCS Opposite-Spin Energy  =      -2.0923329419502479 [Eh]
	 SCS Correlation Energy    =      -2.2856990728459845 [Eh]
	 SCS Total Energy          =    -527.7998484088554960 [Eh]
	-----------------------------------------------------------

  Dipole Moment: [D]
     X:    -2.1193      Y:     2.7106      Z:     0.4786     Total:     3.4739

*** Psi4 exiting successfully. Buy a developer a beer!
