                               Psi4 1.4a3.dev225

  ==> Input File <==

--------------------------------------------------------------------------
#psi4
#
memory 32 gb

molecule  {
0 1
  N        0.8160970    -0.2990240    -0.0443680
  N        1.3585440    -1.5263750    -0.2734470
  N       -1.0817850     0.9875590    -0.4601130
  N       -1.2686320    -1.2431920     0.4227390
  C        1.7597130     0.6951090     0.1272320
  C        2.9786120     0.0532150     0.0016160
  C       -0.5903530    -0.1795160    -0.0248380
  C        1.4539390     2.1247050     0.4316710
  C        2.6793880    -1.2992810    -0.2463060
  C       -2.4210880     1.0928180    -0.4382200
  C       -2.6039190    -1.1175230     0.3972460
  C       -3.2414650     0.0469210    -0.0276130
  H        3.9528590     0.5149220     0.0929350
  H        1.0131890     2.6387050    -0.4244530
  H        0.7544440     2.2203260     1.2670250
  H        2.3864280     2.6245280     0.7070350
  H        3.3561510    -2.1272050    -0.4162310
  H       -2.8492942     2.0851083    -0.7953793
  H       -3.1684390    -1.9801170     0.7461500
  H       -4.3226790     0.1358530    -0.0311710
units angstrom
no_reorient  #important for SAPT in psi4, default
symmetry c1  #important for SAPT in psi4, default
}

set PROPERTIES_ORIGIN ["COM"]
properties('MP2/aug-cc-pvtz', properties = ['dipole'])
--------------------------------------------------------------------------

    Molecular point group: c1
  Charge       = 0
  Multiplicity = 1
  Basis Set: AUG-CC-PVTZ
    Blend: AUG-CC-PVTZ
  Basis Set: (AUG-CC-PVTZ AUX)
    Blend: AUG-CC-PVTZ-JKFIT

    Orbital Energies [Eh]
    ---------------------

    Doubly Occupied:

       1A    -15.642280     2A    -15.582905     3A    -15.581573
       4A    -15.578789     5A    -11.367796     6A    -11.317026
       7A    -11.309784     8A    -11.286854     9A    -11.254649
      10A    -11.253128    11A    -11.234771    12A    -11.217412
      13A     -1.386496    14A     -1.312754    15A     -1.206035
      16A     -1.129283    17A     -1.084298    18A     -1.044901
      19A     -0.958875    20A     -0.906179    21A     -0.896322
      22A     -0.798383    23A     -0.794646    24A     -0.711889
      25A     -0.706934    26A     -0.682261    27A     -0.638405
      28A     -0.631246    29A     -0.604776    30A     -0.589058
      31A     -0.584043    32A     -0.574908    33A     -0.564078
      34A     -0.552799    35A     -0.536002    36A     -0.491904
      37A     -0.455106    38A     -0.430729    39A     -0.419919
      40A     -0.407908    41A     -0.338226    42A     -0.332478

  @DF-RHF Final Energy:  -525.54113389879774

   => Energetics <=

    Nuclear Repulsion Energy =            658.0126346270192244
    One-Electron Energy =               -2018.3119193652903505
    Two-Electron Energy =                 834.7581508394733874
    Total Energy =                       -525.5411338987977388
  Basis Set: (AUG-CC-PVTZ AUX)
    Blend: AUG-CC-PVTZ-RI
    Molecular point group: c1

    Geometry (in Angstrom), charge = 0, multiplicity = 1:

       Center              X                  Y                   Z               Mass
    ------------   -----------------  -----------------  -----------------  -----------------
         N            0.823293860480    -0.261644489518    -0.037062642373    14.003074004430
         N            1.365740860480    -1.488995489518    -0.266141642373    14.003074004430
         N           -1.074588139520     1.024938510482    -0.452807642373    14.003074004430
         N           -1.261435139520    -1.205812489518     0.430044357627    14.003074004430
         C            1.766909860480     0.732488510482     0.134537357627    12.000000000000
         C            2.985808860480     0.090594510482     0.008921357627    12.000000000000
         C           -0.583156139520    -0.142136489518    -0.017532642373    12.000000000000
         C            1.461135860480     2.162084510482     0.438976357627    12.000000000000
         C            2.686584860480    -1.261901489518    -0.239000642373    12.000000000000
         C           -2.413891139520     1.130197510482    -0.430914642373    12.000000000000
         C           -2.596722139520    -1.080143489518     0.404551357627    12.000000000000
         C           -3.234268139520     0.084300510482    -0.020307642373    12.000000000000
         H            3.960055860480     0.552301510482     0.100240357627     1.007825032230
         H            1.020385860480     2.676084510482    -0.417147642373     1.007825032230
         H            0.761640860480     2.257705510482     1.274330357627     1.007825032230
         H            2.393624860480     2.661907510482     0.714340357627     1.007825032230
         H            3.363347860480    -2.089825489518    -0.408925642373     1.007825032230
         H           -2.842097339520     2.122487810482    -0.788073942373     1.007825032230
         H           -3.161242139520    -1.942737489518     0.753455357627     1.007825032230
         H           -4.315482139520     0.173232510482    -0.023865642373     1.007825032230

  Basis Set: AUG-CC-PVTZ
    Blend: AUG-CC-PVTZ
  Basis Set: (AUG-CC-PVTZ AUX)
    Blend: AUG-CC-PVTZ-JKFIT
	 Reference Energy          =    -525.5411338987977388 [Eh]
	 Singles Energy            =      -0.0000000000000000 [Eh]
	 Same-Spin Energy          =      -0.5776855695309739 [Eh]
	 Opposite-Spin Energy      =      -1.7390630693363787 [Eh]
	 Correlation Energy        =      -2.3167486388673524 [Eh]
	 Total Energy              =    -527.8578825376650911 [Eh]

	 ================> DF-SCS-MP2 Energies <==================
	-----------------------------------------------------------
	 SCS Same-Spin Scale       =       0.3333333333333333 [-]
	 SCS Opposite-Spin Scale   =       1.2000000000000000 [-]
	 SCS Same-Spin Energy      =      -0.1925618565103246 [Eh]
	 SCS Opposite-Spin Energy  =      -2.0868756832036541 [Eh]
	 SCS Correlation Energy    =      -2.2794375397139786 [Eh]
	 SCS Total Energy          =    -527.8205714385117062 [Eh]
	-----------------------------------------------------------

  Dipole Moment: [D]
     X:    -2.5616      Y:     2.5434      Z:     0.4438     Total:     3.6370

*** Psi4 exiting successfully. Buy a developer a beer!
