                               Psi4 1.4a3.dev225

  ==> Input File <==

--------------------------------------------------------------------------
#psi4
#
memory 32 gb

molecule  {
0 1
  N        0.8160970    -0.2990240    -0.0443680
  N        1.3585440    -1.5263750    -0.2734470
  N       -1.0817850     0.9875590    -0.4601130
  N       -1.2686320    -1.2431920     0.4227390
  C        1.7597130     0.6951090     0.1272320
  C        2.9786120     0.0532150     0.0016160
  C       -0.5903530    -0.1795160    -0.0248380
  C        1.4539390     2.1247050     0.4316710
  C        2.6793880    -1.2992810    -0.2463060
  C       -2.4210880     1.0928180    -0.4382200
  C       -2.6039190    -1.1175230     0.3972460
  C       -3.2414650     0.0469210    -0.0276130
  H        3.9528590     0.5149220     0.0929350
  H        1.0131890     2.6387050    -0.4244530
  H        0.7544440     2.2203260     1.2670250
  H        2.3864280     2.6245280     0.7070350
  H        3.3561510    -2.1272050    -0.4162310
  H       -2.8229599     2.0240833    -0.7734143
  H       -3.1684390    -1.9801170     0.7461500
  H       -4.3226790     0.1358530    -0.0311710
units angstrom
no_reorient  #important for SAPT in psi4, default
symmetry c1  #important for SAPT in psi4, default
}

set PROPERTIES_ORIGIN ["COM"]
properties('MP2/aug-cc-pvtz', properties = ['dipole'])
--------------------------------------------------------------------------

    Molecular point group: c1
  Charge       = 0
  Multiplicity = 1
  Basis Set: AUG-CC-PVTZ
    Blend: AUG-CC-PVTZ
  Basis Set: (AUG-CC-PVTZ AUX)
    Blend: AUG-CC-PVTZ-JKFIT

    Orbital Energies [Eh]
    ---------------------

    Doubly Occupied:

       1A    -15.642055     2A    -15.582249     3A    -15.581415
       4A    -15.578613     5A    -11.367242     6A    -11.309375
       7A    -11.309269     8A    -11.286695     9A    -11.254488
      10A    -11.252535    11A    -11.234674    12A    -11.217271
      13A     -1.386261    14A     -1.312481    15A     -1.206060
      16A     -1.129469    17A     -1.084179    18A     -1.045083
      19A     -0.958761    20A     -0.910478    21A     -0.896610
      22A     -0.801051    23A     -0.795342    24A     -0.713818
      25A     -0.707494    26A     -0.682629    27A     -0.638158
      28A     -0.634469    29A     -0.608158    30A     -0.590010
      31A     -0.587147    32A     -0.575164    33A     -0.563937
      34A     -0.552639    35A     -0.535868    36A     -0.491570
      37A     -0.455074    38A     -0.430432    39A     -0.420331
      40A     -0.407645    41A     -0.337980    42A     -0.332332

  @DF-RHF Final Energy:  -525.54376709380813

   => Energetics <=

    Nuclear Repulsion Energy =            658.3842540624467574
    One-Electron Energy =               -2019.0430190763274823
    Two-Electron Energy =                 835.1149979200727103
    Total Energy =                       -525.5437670938081283
  Basis Set: (AUG-CC-PVTZ AUX)
    Blend: AUG-CC-PVTZ-RI
    Molecular point group: c1

    Geometry (in Angstrom), charge = 0, multiplicity = 1:

       Center              X                  Y                   Z               Mass
    ------------   -----------------  -----------------  -----------------  -----------------
         N            0.823128060799    -0.261260278602    -0.037200933119    14.003074004430
         N            1.365575060799    -1.488611278602    -0.266279933119    14.003074004430
         N           -1.074753939201     1.025322721398    -0.452945933119    14.003074004430
         N           -1.261600939201    -1.205428278602     0.429906066881    14.003074004430
         C            1.766744060799     0.732872721398     0.134399066881    12.000000000000
         C            2.985643060799     0.090978721398     0.008783066881    12.000000000000
         C           -0.583321939201    -0.141752278602    -0.017670933119    12.000000000000
         C            1.460970060799     2.162468721398     0.438838066881    12.000000000000
         C            2.686419060799    -1.261517278602    -0.239138933119    12.000000000000
         C           -2.414056939201     1.130581721398    -0.431052933119    12.000000000000
         C           -2.596887939201    -1.079759278602     0.404413066881    12.000000000000
         C           -3.234433939201     0.084684721398    -0.020445933119    12.000000000000
         H            3.959890060799     0.552685721398     0.100102066881     1.007825032230
         H            1.020220060799     2.676468721398    -0.417285933119     1.007825032230
         H            0.761475060799     2.258089721398     1.274192066881     1.007825032230
         H            2.393459060799     2.662291721398     0.714202066881     1.007825032230
         H            3.363182060799    -2.089441278602    -0.409063933119     1.007825032230
         H           -2.815928839201     2.061847021398    -0.766247233119     1.007825032230
         H           -3.161407939201    -1.942353278602     0.753317066881     1.007825032230
         H           -4.315647939201     0.173616721398    -0.024003933119     1.007825032230

  Basis Set: AUG-CC-PVTZ
    Blend: AUG-CC-PVTZ
  Basis Set: (AUG-CC-PVTZ AUX)
    Blend: AUG-CC-PVTZ-JKFIT
	 Reference Energy          =    -525.5437670938081283 [Eh]
	 Singles Energy            =      -0.0000000000000000 [Eh]
	 Same-Spin Energy          =      -0.5775161493708735 [Eh]
	 Opposite-Spin Energy      =      -1.7384872792442909 [Eh]
	 Correlation Energy        =      -2.3160034286151645 [Eh]
	 Total Energy              =    -527.8597705224233323 [Eh]

	 ================> DF-SCS-MP2 Energies <==================
	-----------------------------------------------------------
	 SCS Same-Spin Scale       =       0.3333333333333333 [-]
	 SCS Opposite-Spin Scale   =       1.2000000000000000 [-]
	 SCS Same-Spin Energy      =      -0.1925053831236245 [Eh]
	 SCS Opposite-Spin Energy  =      -2.0861847350931488 [Eh]
	 SCS Correlation Energy    =      -2.2786901182167734 [Eh]
	 SCS Total Energy          =    -527.8224572120249150 [Eh]
	-----------------------------------------------------------

  Dipole Moment: [D]
     X:    -2.5857      Y:     2.5584      Z:     0.4388     Total:     3.6639

*** Psi4 exiting successfully. Buy a developer a beer!
