                               Psi4 1.3.2 release

  ==> Input File <==

--------------------------------------------------------------------------
#psi4
#
memory 32 gb

molecule  {
0 1
  N        0.8160970    -0.2990240    -0.0443680
  N        1.3585440    -1.5263750    -0.2734470
  N       -1.0817850     0.9875590    -0.4601130
  N       -1.2686320    -1.2431920     0.4227390
  C        1.7597130     0.6951090     0.1272320
  C        2.9786120     0.0532150     0.0016160
  C       -0.5903530    -0.1795160    -0.0248380
  C        1.4539390     2.1247050     0.4316710
  C        2.4823205    -1.3331630    -0.2503554
  C       -2.4210880     1.0928180    -0.4382200
  C       -2.6039190    -1.1175230     0.3972460
  C       -3.2414650     0.0469210    -0.0276130
  H        3.9528590     0.5149220     0.0929350
  H        1.0131890     2.6387050    -0.4244530
  H        0.7544440     2.2203260     1.2670250
  H        2.3864280     2.6245280     0.7070350
  H        3.3561510    -2.1272050    -0.4162310
  H       -2.8304840     2.0415190    -0.7796900
  H       -3.1684390    -1.9801170     0.7461500
  H       -4.3226790     0.1358530    -0.0311710
units angstrom
no_reorient  #important for SAPT in psi4, default
symmetry c1  #important for SAPT in psi4, default
}

set PROPERTIES_ORIGIN ["COM"]
properties('MP2/aug-cc-pvtz', properties = ['dipole'])
--------------------------------------------------------------------------

    Molecular point group: c1
  Charge       = 0
  Multiplicity = 1
  Basis Set: AUG-CC-PVTZ
    Blend: AUG-CC-PVTZ
  Basis Set: (AUG-CC-PVTZ AUX)
    Blend: AUG-CC-PVTZ-JKFIT

    Orbital Energies [Eh]
    ---------------------

    Doubly Occupied:

       1A    -15.631679     2A    -15.579165     3A    -15.576026
       4A    -15.568698     5A    -11.365051     6A    -11.310029
       7A    -11.308241     8A    -11.288740     9A    -11.250046
      10A    -11.249932    11A    -11.234655    12A    -11.217293
      13A     -1.417985    14A     -1.321479    15A     -1.204191
      16A     -1.169659    17A     -1.088425    18A     -1.039964
      19A     -0.962581    20A     -0.908502    21A     -0.887755
      22A     -0.803747    23A     -0.783053    24A     -0.714321
      25A     -0.708804    26A     -0.684605    27A     -0.649086
      28A     -0.630342    29A     -0.609326    30A     -0.590661
      31A     -0.585987    32A     -0.577956    33A     -0.566274
      34A     -0.559268    35A     -0.533648    36A     -0.489749
      37A     -0.434951    38A     -0.428892    39A     -0.423282
      40A     -0.415595    41A     -0.364722    42A     -0.324227

  @DF-RHF Final Energy:  -525.49504598794863

   => Energetics <=

    Nuclear Repulsion Energy =            662.1874317563472232
    One-Electron Energy =               -2026.4477717691768248
    Two-Electron Energy =                 838.7652940248809728
    Total Energy =                       -525.4950459879486289
  Basis Set: (AUG-CC-PVTZ AUX)
    Blend: AUG-CC-PVTZ-RI
    Molecular point group: c1

    Geometry (in Angstrom), charge = 0, multiplicity = 1:

       Center              X                  Y                   Z               Mass
    ------------   -----------------  -----------------  -----------------  -----------------
         N            0.837948579391    -0.258830092019    -0.036857858666    14.003074004430
         N            1.380395579391    -1.486181092019    -0.265936858666    14.003074004430
         N           -1.059933420609     1.027752907981    -0.452602858666    14.003074004430
         N           -1.246780420609    -1.202998092019     0.430249141334    14.003074004430
         C            1.781564579391     0.735302907981     0.134742141334    12.000000000000
         C            3.000463579391     0.093408907981     0.009126141334    12.000000000000
         C           -0.568501420609    -0.139322092019    -0.017327858666    12.000000000000
         C            1.475790579391     2.164898907981     0.439181141334    12.000000000000
         C            2.504172079391    -1.292969092019    -0.242845258666    12.000000000000
         C           -2.399236420609     1.133011907981    -0.430709858666    12.000000000000
         C           -2.582067420609    -1.077329092019     0.404756141334    12.000000000000
         C           -3.219613420609     0.087114907981    -0.020102858666    12.000000000000
         H            3.974710579391     0.555115907981     0.100445141334     1.007825032230
         H            1.035040579391     2.678898907981    -0.416942858666     1.007825032230
         H            0.776295579391     2.260519907981     1.274535141334     1.007825032230
         H            2.408279579391     2.664721907981     0.714545141334     1.007825032230
         H            3.378002579391    -2.087011092019    -0.408720858666     1.007825032230
         H           -2.808632420609     2.081712907981    -0.772179858666     1.007825032230
         H           -3.146587420609    -1.939923092019     0.753660141334     1.007825032230
         H           -4.300827420609     0.176046907981    -0.023660858666     1.007825032230

  Basis Set: AUG-CC-PVTZ
    Blend: AUG-CC-PVTZ
  Basis Set: (AUG-CC-PVTZ AUX)
    Blend: AUG-CC-PVTZ-JKFIT
	 Reference Energy          =    -525.4950459879486289 [Eh]
	 Singles Energy            =      -0.0000000000000000 [Eh]
	 Same-Spin Energy          =      -0.5723772319894090 [Eh]
	 Opposite-Spin Energy      =      -1.7302850583859959 [Eh]
	 Correlation Energy        =      -2.3026622903754048 [Eh]
	 Total Energy              =    -527.7977082783240803 [Eh]

	 ================> DF-SCS-MP2 Energies <==================
	-----------------------------------------------------------
	 SCS Same-Spin Scale       =       0.3333333333333333 [-]
	 SCS Opposite-Spin Scale   =       1.2000000000000000 [-]
	 SCS Same-Spin Energy      =      -0.1907924106631363 [Eh]
	 SCS Opposite-Spin Energy  =      -2.0763420700631952 [Eh]
	 SCS Correlation Energy    =      -2.2671344807263316 [Eh]
	 SCS Total Energy          =    -527.7621804686749556 [Eh]
	-----------------------------------------------------------

  Dipole Moment: [D]
     X:    -2.3121      Y:     2.4126      Z:     0.4074     Total:     3.3664

*** Psi4 exiting successfully. Buy a developer a beer!
