                               Psi4 1.3.2 release

  ==> Input File <==

--------------------------------------------------------------------------
#psi4
#
memory 32 gb

molecule  {
0 1
  N        0.8160970    -0.2990240    -0.0443680
  N        1.3585440    -1.5263750    -0.2734470
  N       -1.0817850     0.9875590    -0.4601130
  N       -1.2686320    -1.2431920     0.4227390
  C        1.7597130     0.6951090     0.1272320
  C        2.9786120     0.0532150     0.0016160
  C       -0.5703205    -0.1907749    -0.0206270
  C        1.4539390     2.1247050     0.4316710
  C        2.6793880    -1.2992810    -0.2463060
  C       -2.4210880     1.0928180    -0.4382200
  C       -2.6039190    -1.1175230     0.3972460
  C       -3.2414650     0.0469210    -0.0276130
  H        3.9528590     0.5149220     0.0929350
  H        1.0131890     2.6387050    -0.4244530
  H        0.7544440     2.2203260     1.2670250
  H        2.3864280     2.6245280     0.7070350
  H        3.3561510    -2.1272050    -0.4162310
  H       -2.8304840     2.0415190    -0.7796900
  H       -3.1684390    -1.9801170     0.7461500
  H       -4.3226790     0.1358530    -0.0311710
units angstrom
no_reorient  #important for SAPT in psi4, default
symmetry c1  #important for SAPT in psi4, default
}

set PROPERTIES_ORIGIN ["COM"]
properties('MP2/aug-cc-pvtz', properties = ['dipole'])
--------------------------------------------------------------------------

    Molecular point group: c1
  Charge       = 0
  Multiplicity = 1
  Basis Set: AUG-CC-PVTZ
    Blend: AUG-CC-PVTZ
  Basis Set: (AUG-CC-PVTZ AUX)
    Blend: AUG-CC-PVTZ-JKFIT

    Orbital Energies [Eh]
    ---------------------

    Doubly Occupied:

       1A    -15.644137     2A    -15.583263     3A    -15.581188
       4A    -15.576604     5A    -11.367434     6A    -11.309533
       7A    -11.307960     8A    -11.289207     9A    -11.256889
      10A    -11.250754    11A    -11.235542    12A    -11.219501
      13A     -1.390132    14A     -1.308169    15A     -1.200934
      16A     -1.133231    17A     -1.085901    18A     -1.045174
      19A     -0.960254    20A     -0.906027    21A     -0.897468
      22A     -0.801906    23A     -0.798025    24A     -0.711545
      25A     -0.706823    26A     -0.683438    27A     -0.639788
      28A     -0.633177    29A     -0.606399    30A     -0.592065
      31A     -0.586403    32A     -0.573961    33A     -0.565386
      34A     -0.552722    35A     -0.537273    36A     -0.490448
      37A     -0.456419    38A     -0.428065    39A     -0.416101
      40A     -0.408602    41A     -0.337229    42A     -0.334302

  @DF-RHF Final Energy:  -525.54259403724529

   => Energetics <=

    Nuclear Repulsion Energy =            658.2986251512946865
    One-Electron Energy =               -2018.8636782553776357
    Two-Electron Energy =                 835.0224590668375413
    Total Energy =                       -525.5425940372452942
  Basis Set: (AUG-CC-PVTZ AUX)
    Blend: AUG-CC-PVTZ-RI
    Molecular point group: c1

    Geometry (in Angstrom), charge = 0, multiplicity = 1:

       Center              X                  Y                   Z               Mass
    ------------   -----------------  -----------------  -----------------  -----------------
         N            0.821673697691    -0.260526030647    -0.037477098798    14.003074004430
         N            1.364120697691    -1.487877030647    -0.266556098798    14.003074004430
         N           -1.076208302309     1.026056969353    -0.453222098798    14.003074004430
         N           -1.263055302309    -1.204694030647     0.429629901202    14.003074004430
         C            1.765289697691     0.733606969353     0.134122901202    12.000000000000
         C            2.984188697691     0.091712969353     0.008506901202    12.000000000000
         C           -0.564743802309    -0.152276930647    -0.013736098798    12.000000000000
         C            1.459515697691     2.163202969353     0.438561901202    12.000000000000
         C            2.684964697691    -1.260783030647    -0.239415098798    12.000000000000
         C           -2.415511302309     1.131315969353    -0.431329098798    12.000000000000
         C           -2.598342302309    -1.079025030647     0.404136901202    12.000000000000
         C           -3.235888302309     0.085418969353    -0.020722098798    12.000000000000
         H            3.958435697691     0.553419969353     0.099825901202     1.007825032230
         H            1.018765697691     2.677202969353    -0.417562098798     1.007825032230
         H            0.760020697691     2.258823969353     1.273915901202     1.007825032230
         H            2.392004697691     2.663025969353     0.713925901202     1.007825032230
         H            3.361727697691    -2.088707030647    -0.409340098798     1.007825032230
         H           -2.824907302309     2.080016969353    -0.772799098798     1.007825032230
         H           -3.162862302309    -1.941619030647     0.753040901202     1.007825032230
         H           -4.317102302309     0.174350969353    -0.024280098798     1.007825032230

  Basis Set: AUG-CC-PVTZ
    Blend: AUG-CC-PVTZ
  Basis Set: (AUG-CC-PVTZ AUX)
    Blend: AUG-CC-PVTZ-JKFIT
	 Reference Energy          =    -525.5425940372452942 [Eh]
	 Singles Energy            =      -0.0000000000000000 [Eh]
	 Same-Spin Energy          =      -0.5776558928158162 [Eh]
	 Opposite-Spin Energy      =      -1.7388629655151135 [Eh]
	 Correlation Energy        =      -2.3165188583309297 [Eh]
	 Total Energy              =    -527.8591128955762315 [Eh]

	 ================> DF-SCS-MP2 Energies <==================
	-----------------------------------------------------------
	 SCS Same-Spin Scale       =       0.3333333333333333 [-]
	 SCS Opposite-Spin Scale   =       1.2000000000000000 [-]
	 SCS Same-Spin Energy      =      -0.1925519642719387 [Eh]
	 SCS Opposite-Spin Energy  =      -2.0866355586181360 [Eh]
	 SCS Correlation Energy    =      -2.2791875228900746 [Eh]
	 SCS Total Energy          =    -527.8217815601353777 [Eh]
	-----------------------------------------------------------

  Dipole Moment: [D]
     X:    -2.3553      Y:     2.5339      Z:     0.4443     Total:     3.4878

*** Psi4 exiting successfully. Buy a developer a beer!
