                               Psi4 1.3.2 release

  ==> Input File <==

--------------------------------------------------------------------------
#psi4
#
memory 32 gb

molecule  {
0 1
  N        0.8160970    -0.2990240    -0.0443680
  N        1.3585440    -1.5263750    -0.2734470
  N       -1.0817850     0.9875590    -0.4601130
  N       -1.2686320    -1.2431920     0.4227390
  C        1.7713129     0.7159428     0.1310101
  C        2.9786120     0.0532150     0.0016160
  C       -0.5903530    -0.1795160    -0.0248380
  C        1.4539390     2.1247050     0.4316710
  C        2.6793880    -1.2992810    -0.2463060
  C       -2.4210880     1.0928180    -0.4382200
  C       -2.6039190    -1.1175230     0.3972460
  C       -3.2414650     0.0469210    -0.0276130
  H        3.9528590     0.5149220     0.0929350
  H        1.0131890     2.6387050    -0.4244530
  H        0.7544440     2.2203260     1.2670250
  H        2.3864280     2.6245280     0.7070350
  H        3.3561510    -2.1272050    -0.4162310
  H       -2.8304840     2.0415190    -0.7796900
  H       -3.1684390    -1.9801170     0.7461500
  H       -4.3226790     0.1358530    -0.0311710
units angstrom
no_reorient  #important for SAPT in psi4, default
symmetry c1  #important for SAPT in psi4, default
}

set PROPERTIES_ORIGIN ["COM"]
properties('MP2/aug-cc-pvtz', properties = ['dipole'])
--------------------------------------------------------------------------

    Molecular point group: c1
  Charge       = 0
  Multiplicity = 1
  Basis Set: AUG-CC-PVTZ
    Blend: AUG-CC-PVTZ
  Basis Set: (AUG-CC-PVTZ AUX)
    Blend: AUG-CC-PVTZ-JKFIT

    Orbital Energies [Eh]
    ---------------------

    Doubly Occupied:

       1A    -15.640970     2A    -15.583736     3A    -15.581425
       4A    -15.577606     5A    -11.366223     6A    -11.310851
       7A    -11.308783     8A    -11.288238     9A    -11.254855
      10A    -11.251796    11A    -11.234283    12A    -11.219082
      13A     -1.382598    14A     -1.311087    15A     -1.205127
      16A     -1.127945    17A     -1.085432    18A     -1.044253
      19A     -0.961355    20A     -0.908277    21A     -0.894256
      22A     -0.799441    23A     -0.792214    24A     -0.712708
      25A     -0.707597    26A     -0.682796    27A     -0.636601
      28A     -0.632654    29A     -0.606892    30A     -0.588684
      31A     -0.586996    32A     -0.575603    33A     -0.564234
      34A     -0.552076    35A     -0.540157    36A     -0.490512
      37A     -0.455384    38A     -0.429886    39A     -0.419566
      40A     -0.407274    41A     -0.336824    42A     -0.332282

  @DF-RHF Final Energy:  -525.54168474631149

   => Energetics <=

    Nuclear Repulsion Energy =            657.8930526125101323
    One-Electron Energy =               -2018.0923573197746919
    Two-Electron Energy =                 834.6576199609531841
    Total Energy =                       -525.5416847463114891
  Basis Set: (AUG-CC-PVTZ AUX)
    Blend: AUG-CC-PVTZ-RI
    Molecular point group: c1

    Geometry (in Angstrom), charge = 0, multiplicity = 1:

       Center              X                  Y                   Z               Mass
    ------------   -----------------  -----------------  -----------------  -----------------
         N            0.822305846781    -0.262931856976    -0.037444646489    14.003074004430
         N            1.364752846781    -1.490282856976    -0.266523646489    14.003074004430
         N           -1.075576153219     1.023651143024    -0.453189646489    14.003074004430
         N           -1.262423153219    -1.207099856976     0.429662353511    14.003074004430
         C            1.777521746781     0.752034943024     0.137933453511    12.000000000000
         C            2.984820846781     0.089307143024     0.008539353511    12.000000000000
         C           -0.584144153219    -0.143423856976    -0.017914646489    12.000000000000
         C            1.460147846781     2.160797143024     0.438594353511    12.000000000000
         C            2.685596846781    -1.263188856976    -0.239382646489    12.000000000000
         C           -2.414879153219     1.128910143024    -0.431296646489    12.000000000000
         C           -2.597710153219    -1.081430856976     0.404169353511    12.000000000000
         C           -3.235256153219     0.083013143024    -0.020689646489    12.000000000000
         H            3.959067846781     0.551014143024     0.099858353511     1.007825032230
         H            1.019397846781     2.674797143024    -0.417529646489     1.007825032230
         H            0.760652846781     2.256418143024     1.273948353511     1.007825032230
         H            2.392636846781     2.660620143024     0.713958353511     1.007825032230
         H            3.362359846781    -2.091112856976    -0.409307646489     1.007825032230
         H           -2.824275153219     2.077611143024    -0.772766646489     1.007825032230
         H           -3.162230153219    -1.944024856976     0.753073353511     1.007825032230
         H           -4.316470153219     0.171945143024    -0.024247646489     1.007825032230

  Basis Set: AUG-CC-PVTZ
    Blend: AUG-CC-PVTZ
  Basis Set: (AUG-CC-PVTZ AUX)
    Blend: AUG-CC-PVTZ-JKFIT
	 Reference Energy          =    -525.5416847463114891 [Eh]
	 Singles Energy            =      -0.0000000000000000 [Eh]
	 Same-Spin Energy          =      -0.5779010036640927 [Eh]
	 Opposite-Spin Energy      =      -1.7393218005615680 [Eh]
	 Correlation Energy        =      -2.3172228042256608 [Eh]
	 Total Energy              =    -527.8589075505371966 [Eh]

	 ================> DF-SCS-MP2 Energies <==================
	-----------------------------------------------------------
	 SCS Same-Spin Scale       =       0.3333333333333333 [-]
	 SCS Opposite-Spin Scale   =       1.2000000000000000 [-]
	 SCS Same-Spin Energy      =      -0.1926336678880309 [Eh]
	 SCS Opposite-Spin Energy  =      -2.0871861606738817 [Eh]
	 SCS Correlation Energy    =      -2.2798198285619127 [Eh]
	 SCS Total Energy          =    -527.8215045748734155 [Eh]
	-----------------------------------------------------------

  Dipole Moment: [D]
     X:    -2.5028      Y:     2.5728      Z:     0.4445     Total:     3.6168

*** Psi4 exiting successfully. Buy a developer a beer!
