                               Psi4 1.4a3.dev225

  ==> Input File <==

--------------------------------------------------------------------------
#psi4
#
memory 32 gb

molecule  {
0 1
  N        0.8160970    -0.2990240    -0.0443680
  N        1.3585440    -1.5263750    -0.2734470
  N       -1.0817850     0.9875590    -0.4601130
  N       -1.2686320    -1.2431920     0.4227390
  C        1.7597130     0.6951090     0.1272320
  C        2.9786120     0.0532150     0.0016160
  C       -0.5976931    -0.1620845    -0.0313393
  C        1.4539390     2.1247050     0.4316710
  C        2.6793880    -1.2992810    -0.2463060
  C       -2.4210880     1.0928180    -0.4382200
  C       -2.6039190    -1.1175230     0.3972460
  C       -3.2414650     0.0469210    -0.0276130
  H        3.9528590     0.5149220     0.0929350
  H        1.0131890     2.6387050    -0.4244530
  H        0.7544440     2.2203260     1.2670250
  H        2.3864280     2.6245280     0.7070350
  H        3.3561510    -2.1272050    -0.4162310
  H       -2.8304840     2.0415190    -0.7796900
  H       -3.1684390    -1.9801170     0.7461500
  H       -4.3226790     0.1358530    -0.0311710
units angstrom
no_reorient  #important for SAPT in psi4, default
symmetry c1  #important for SAPT in psi4, default
}

set PROPERTIES_ORIGIN ["COM"]
properties('MP2/aug-cc-pvtz', properties = ['dipole'])
--------------------------------------------------------------------------

    Molecular point group: c1
  Charge       = 0
  Multiplicity = 1
  Basis Set: AUG-CC-PVTZ
    Blend: AUG-CC-PVTZ
  Basis Set: (AUG-CC-PVTZ AUX)
    Blend: AUG-CC-PVTZ-JKFIT

    Orbital Energies [Eh]
    ---------------------

    Doubly Occupied:

       1A    -15.641249     2A    -15.582411     3A    -15.580874
       4A    -15.580093     5A    -11.367328     6A    -11.312585
       7A    -11.309638     8A    -11.285500     9A    -11.253634
      10A    -11.253568    11A    -11.234518    12A    -11.216338
      13A     -1.384843    14A     -1.314799    15A     -1.207941
      16A     -1.128092    17A     -1.083470    18A     -1.044839
      19A     -0.958319    20A     -0.910728    21A     -0.895797
      22A     -0.799809    23A     -0.793542    24A     -0.714735
      25A     -0.706778    26A     -0.681995    27A     -0.637767
      28A     -0.633499    29A     -0.607693    30A     -0.588530
      31A     -0.586752    32A     -0.575805    33A     -0.563469
      34A     -0.552753    35A     -0.535405    36A     -0.492034
      37A     -0.454693    38A     -0.431764    39A     -0.421580
      40A     -0.407177    41A     -0.338323    42A     -0.331540

  @DF-RHF Final Energy:  -525.54325865531337

   => Energetics <=

    Nuclear Repulsion Energy =            658.2883090272931668
    One-Electron Energy =               -2018.8587224048851567
    Two-Electron Energy =                 835.0271547222787376
    Total Energy =                       -525.5432586553133660
  Basis Set: (AUG-CC-PVTZ AUX)
    Blend: AUG-CC-PVTZ-RI
    Molecular point group: c1

    Geometry (in Angstrom), charge = 0, multiplicity = 1:

       Center              X                  Y                   Z               Mass
    ------------   -----------------  -----------------  -----------------  -----------------
         N            0.823725682154    -0.262676803867    -0.036674052206    14.003074004430
         N            1.366172682154    -1.490027803867    -0.265753052206    14.003074004430
         N           -1.074156317846     1.023906196133    -0.452419052206    14.003074004430
         N           -1.261003317846    -1.206844803867     0.430432947794    14.003074004430
         C            1.767341682154     0.731456196133     0.134925947794    12.000000000000
         C            2.986240682154     0.089562196133     0.009309947794    12.000000000000
         C           -0.590064417846    -0.125737303867    -0.023645352206    12.000000000000
         C            1.461567682154     2.161052196133     0.439364947794    12.000000000000
         C            2.687016682154    -1.262933803867    -0.238612052206    12.000000000000
         C           -2.413459317846     1.129165196133    -0.430526052206    12.000000000000
         C           -2.596290317846    -1.081175803867     0.404939947794    12.000000000000
         C           -3.233836317846     0.083268196133    -0.019919052206    12.000000000000
         H            3.960487682154     0.551269196133     0.100628947794     1.007825032230
         H            1.020817682154     2.675052196133    -0.416759052206     1.007825032230
         H            0.762072682154     2.256673196133     1.274718947794     1.007825032230
         H            2.394056682154     2.660875196133     0.714728947794     1.007825032230
         H            3.363779682154    -2.090857803867    -0.408537052206     1.007825032230
         H           -2.822855317846     2.077866196133    -0.771996052206     1.007825032230
         H           -3.160810317846    -1.943769803867     0.753843947794     1.007825032230
         H           -4.315050317846     0.172200196133    -0.023477052206     1.007825032230

  Basis Set: AUG-CC-PVTZ
    Blend: AUG-CC-PVTZ
  Basis Set: (AUG-CC-PVTZ AUX)
    Blend: AUG-CC-PVTZ-JKFIT
	 Reference Energy          =    -525.5432586553133660 [Eh]
	 Singles Energy            =      -0.0000000000000000 [Eh]
	 Same-Spin Energy          =      -0.5775121647612427 [Eh]
	 Opposite-Spin Energy      =      -1.7385773711293488 [Eh]
	 Correlation Energy        =      -2.3160895358905913 [Eh]
	 Total Energy              =    -527.8593481912039351 [Eh]

	 ================> DF-SCS-MP2 Energies <==================
	-----------------------------------------------------------
	 SCS Same-Spin Scale       =       0.3333333333333333 [-]
	 SCS Opposite-Spin Scale   =       1.2000000000000000 [-]
	 SCS Same-Spin Energy      =      -0.1925040549204142 [Eh]
	 SCS Opposite-Spin Energy  =      -2.0862928453552185 [Eh]
	 SCS Correlation Energy    =      -2.2787969002756325 [Eh]
	 SCS Total Energy          =    -527.8220555555890314 [Eh]
	-----------------------------------------------------------

  Dipole Moment: [D]
     X:    -2.6689      Y:     2.5773      Z:     0.4299     Total:     3.7350

*** Psi4 exiting successfully. Buy a developer a beer!
