                               Psi4 1.3.2 release

  ==> Input File <==

--------------------------------------------------------------------------
#psi4
#
memory 32 gb

molecule  {
0 1
  N        0.8160970    -0.2990240    -0.0443680
  N        1.3458516    -1.4354136    -0.2555747
  N       -1.0817850     0.9875590    -0.4601130
  N       -1.2686320    -1.2431920     0.4227390
  C        1.7597130     0.6951090     0.1272320
  C        2.9786120     0.0532150     0.0016160
  C       -0.5903530    -0.1795160    -0.0248380
  C        1.4539390     2.1247050     0.4316710
  C        2.6793880    -1.2992810    -0.2463060
  C       -2.4210880     1.0928180    -0.4382200
  C       -2.6039190    -1.1175230     0.3972460
  C       -3.2414650     0.0469210    -0.0276130
  H        3.9528590     0.5149220     0.0929350
  H        1.0131890     2.6387050    -0.4244530
  H        0.7544440     2.2203260     1.2670250
  H        2.3864280     2.6245280     0.7070350
  H        3.3561510    -2.1272050    -0.4162310
  H       -2.8304840     2.0415190    -0.7796900
  H       -3.1684390    -1.9801170     0.7461500
  H       -4.3226790     0.1358530    -0.0311710
units angstrom
no_reorient  #important for SAPT in psi4, default
symmetry c1  #important for SAPT in psi4, default
}

set PROPERTIES_ORIGIN ["COM"]
properties('MP2/aug-cc-pvtz', properties = ['dipole'])
--------------------------------------------------------------------------

    Molecular point group: c1
  Charge       = 0
  Multiplicity = 1
  Basis Set: AUG-CC-PVTZ
    Blend: AUG-CC-PVTZ
  Basis Set: (AUG-CC-PVTZ AUX)
    Blend: AUG-CC-PVTZ-JKFIT

    Orbital Energies [Eh]
    ---------------------

    Doubly Occupied:

       1A    -15.648159     2A    -15.585671     3A    -15.582177
       4A    -15.572680     5A    -11.370055     6A    -11.313661
       7A    -11.311795     8A    -11.274853     9A    -11.255603
      10A    -11.247209    11A    -11.229957    12A    -11.216049
      13A     -1.419989    14A     -1.320822    15A     -1.208835
      16A     -1.129720    17A     -1.083309    18A     -1.050419
      19A     -0.952949    20A     -0.911483    21A     -0.902694
      22A     -0.810008    23A     -0.801113    24A     -0.714819
      25A     -0.709568    26A     -0.682978    27A     -0.649112
      28A     -0.637463    29A     -0.609233    30A     -0.599068
      31A     -0.587654    32A     -0.577322    33A     -0.562140
      34A     -0.557078    35A     -0.532256    36A     -0.494189
      37A     -0.444629    38A     -0.432330    39A     -0.419967
      40A     -0.406817    41A     -0.341912    42A     -0.323054

  @DF-RHF Final Energy:  -525.53950282422466

   => Energetics <=

    Nuclear Repulsion Energy =            661.0881226513307638
    One-Electron Energy =               -2024.2936463078201541
    Two-Electron Energy =                 837.6660208322646213
    Total Energy =                       -525.5395028242246553
  Basis Set: (AUG-CC-PVTZ AUX)
    Blend: AUG-CC-PVTZ-RI
    Molecular point group: c1

    Geometry (in Angstrom), charge = 0, multiplicity = 1:

       Center              X                  Y                   Z               Mass
    ------------   -----------------  -----------------  -----------------  -----------------
         N            0.824285741342    -0.269327198404    -0.038724859341    14.003074004430
         N            1.354040341342    -1.405716798404    -0.249931559341    14.003074004430
         N           -1.073596258658     1.017255801596    -0.454469859341    14.003074004430
         N           -1.260443258658    -1.213495198404     0.428382140659    14.003074004430
         C            1.767901741342     0.724805801596     0.132875140659    12.000000000000
         C            2.986800741342     0.082911801596     0.007259140659    12.000000000000
         C           -0.582164258658    -0.149819198404    -0.019194859341    12.000000000000
         C            1.462127741342     2.154401801596     0.437314140659    12.000000000000
         C            2.687576741342    -1.269584198404    -0.240662859341    12.000000000000
         C           -2.412899258658     1.122514801596    -0.432576859341    12.000000000000
         C           -2.595730258658    -1.087826198404     0.402889140659    12.000000000000
         C           -3.233276258658     0.076617801596    -0.021969859341    12.000000000000
         H            3.961047741342     0.544618801596     0.098578140659     1.007825032230
         H            1.021377741342     2.668401801596    -0.418809859341     1.007825032230
         H            0.762632741342     2.250022801596     1.272668140659     1.007825032230
         H            2.394616741342     2.654224801596     0.712678140659     1.007825032230
         H            3.364339741342    -2.097508198404    -0.410587859341     1.007825032230
         H           -2.822295258658     2.071215801596    -0.774046859341     1.007825032230
         H           -3.160250258658    -1.950420198404     0.751793140659     1.007825032230
         H           -4.314490258658     0.165549801596    -0.025527859341     1.007825032230

  Basis Set: AUG-CC-PVTZ
    Blend: AUG-CC-PVTZ
  Basis Set: (AUG-CC-PVTZ AUX)
    Blend: AUG-CC-PVTZ-JKFIT
	 Reference Energy          =    -525.5395028242246553 [Eh]
	 Singles Energy            =      -0.0000000000000000 [Eh]
	 Same-Spin Energy          =      -0.5779172912230545 [Eh]
	 Opposite-Spin Energy      =      -1.7368455416080075 [Eh]
	 Correlation Energy        =      -2.3147628328310619 [Eh]
	 Total Energy              =    -527.8542656570557483 [Eh]

	 ================> DF-SCS-MP2 Energies <==================
	-----------------------------------------------------------
	 SCS Same-Spin Scale       =       0.3333333333333333 [-]
	 SCS Opposite-Spin Scale   =       1.2000000000000000 [-]
	 SCS Same-Spin Energy      =      -0.1926390970743515 [Eh]
	 SCS Opposite-Spin Energy  =      -2.0842146499296090 [Eh]
	 SCS Correlation Energy    =      -2.2768537470039605 [Eh]
	 SCS Total Energy          =    -527.8163565712286527 [Eh]
	-----------------------------------------------------------

  Dipole Moment: [D]
     X:    -2.8111      Y:     2.4116      Z:     0.4078     Total:     3.7262

*** Psi4 exiting successfully. Buy a developer a beer!
