                               Psi4 1.3.2 release

  ==> Input File <==

--------------------------------------------------------------------------
#psi4
#
memory 32 gb

molecule  {
0 1
  N        0.8160970    -0.2990240    -0.0443680
  N        1.3585440    -1.5263750    -0.2734470
  N       -1.0817850     0.9875590    -0.4601130
  N       -1.2686320    -1.2431920     0.4227390
  C        1.7943460     0.6620436     0.1215722
  C        2.9786120     0.0532150     0.0016160
  C       -0.5903530    -0.1795160    -0.0248380
  C        1.4539390     2.1247050     0.4316710
  C        2.6793880    -1.2992810    -0.2463060
  C       -2.4210880     1.0928180    -0.4382200
  C       -2.6039190    -1.1175230     0.3972460
  C       -3.2414650     0.0469210    -0.0276130
  H        3.9528590     0.5149220     0.0929350
  H        1.0131890     2.6387050    -0.4244530
  H        0.7544440     2.2203260     1.2670250
  H        2.3864280     2.6245280     0.7070350
  H        3.3561510    -2.1272050    -0.4162310
  H       -2.8304840     2.0415190    -0.7796900
  H       -3.1684390    -1.9801170     0.7461500
  H       -4.3226790     0.1358530    -0.0311710
units angstrom
no_reorient  #important for SAPT in psi4, default
symmetry c1  #important for SAPT in psi4, default
}

set PROPERTIES_ORIGIN ["COM"]
properties('MP2/aug-cc-pvtz', properties = ['dipole'])
--------------------------------------------------------------------------

    Molecular point group: c1
  Charge       = 0
  Multiplicity = 1
  Basis Set: AUG-CC-PVTZ
    Blend: AUG-CC-PVTZ
  Basis Set: (AUG-CC-PVTZ AUX)
    Blend: AUG-CC-PVTZ-JKFIT

    Orbital Energies [Eh]
    ---------------------

    Doubly Occupied:

       1A    -15.639110     2A    -15.582338     3A    -15.581727
       4A    -15.578418     5A    -11.367873     6A    -11.311028
       7A    -11.309204     8A    -11.282113     9A    -11.254895
      10A    -11.252220    11A    -11.235044    12A    -11.213851
      13A     -1.387171    14A     -1.313096    15A     -1.205542
      16A     -1.128625    17A     -1.084641    18A     -1.047076
      19A     -0.954740    20A     -0.908840    21A     -0.896721
      22A     -0.802243    23A     -0.795415    24A     -0.714163
      25A     -0.707038    26A     -0.682593    27A     -0.637805
      28A     -0.634848    29A     -0.606631    30A     -0.592674
      31A     -0.585109    32A     -0.573454    33A     -0.556915
      34A     -0.551926    35A     -0.534058    36A     -0.491885
      37A     -0.454999    38A     -0.430086    39A     -0.419789
      40A     -0.408803    41A     -0.341318    42A     -0.336402

  @DF-RHF Final Energy:  -525.54244133219697

   => Energetics <=

    Nuclear Repulsion Energy =            658.4108325220374809
    One-Electron Energy =               -2019.1216914352808089
    Two-Electron Energy =                 835.1684175810463557
    Total Energy =                       -525.5424413321969723
  Basis Set: (AUG-CC-PVTZ AUX)
    Blend: AUG-CC-PVTZ-RI
    Molecular point group: c1

    Geometry (in Angstrom), charge = 0, multiplicity = 1:

       Center              X                  Y                   Z               Mass
    ------------   -----------------  -----------------  -----------------  -----------------
         N            0.820579172540    -0.258891308364    -0.036737135176    14.003074004430
         N            1.363026172540    -1.486242308364    -0.265816135176    14.003074004430
         N           -1.077302827460     1.027691691636    -0.452482135176    14.003074004430
         N           -1.264149827460    -1.203059308364     0.430369864824    14.003074004430
         C            1.798828172540     0.702176291636     0.129203064824    12.000000000000
         C            2.983094172540     0.093347691636     0.009246864824    12.000000000000
         C           -0.585870827460    -0.139383308364    -0.017207135176    12.000000000000
         C            1.458421172540     2.164837691636     0.439301864824    12.000000000000
         C            2.683870172540    -1.259148308364    -0.238675135176    12.000000000000
         C           -2.416605827460     1.132950691636    -0.430589135176    12.000000000000
         C           -2.599436827460    -1.077390308364     0.404876864824    12.000000000000
         C           -3.236982827460     0.087053691636    -0.019982135176    12.000000000000
         H            3.957341172540     0.555054691636     0.100565864824     1.007825032230
         H            1.017671172540     2.678837691636    -0.416822135176     1.007825032230
         H            0.758926172540     2.260458691636     1.274655864824     1.007825032230
         H            2.390910172540     2.664660691636     0.714665864824     1.007825032230
         H            3.360633172540    -2.087072308364    -0.408600135176     1.007825032230
         H           -2.826001827460     2.081651691636    -0.772059135176     1.007825032230
         H           -3.163956827460    -1.939984308364     0.753780864824     1.007825032230
         H           -4.318196827460     0.175985691636    -0.023540135176     1.007825032230

  Basis Set: AUG-CC-PVTZ
    Blend: AUG-CC-PVTZ
  Basis Set: (AUG-CC-PVTZ AUX)
    Blend: AUG-CC-PVTZ-JKFIT
	 Reference Energy          =    -525.5424413321969723 [Eh]
	 Singles Energy            =      -0.0000000000000000 [Eh]
	 Same-Spin Energy          =      -0.5766472349293883 [Eh]
	 Opposite-Spin Energy      =      -1.7376119000093260 [Eh]
	 Correlation Energy        =      -2.3142591349387143 [Eh]
	 Total Energy              =    -527.8567004671357381 [Eh]

	 ================> DF-SCS-MP2 Energies <==================
	-----------------------------------------------------------
	 SCS Same-Spin Scale       =       0.3333333333333333 [-]
	 SCS Opposite-Spin Scale   =       1.2000000000000000 [-]
	 SCS Same-Spin Energy      =      -0.1922157449764628 [Eh]
	 SCS Opposite-Spin Energy  =      -2.0851342800111912 [Eh]
	 SCS Correlation Energy    =      -2.2773500249876539 [Eh]
	 SCS Total Energy          =    -527.8197913571846129 [Eh]
	-----------------------------------------------------------

  Dipole Moment: [D]
     X:    -2.4986      Y:     2.5238      Z:     0.4303     Total:     3.5774

*** Psi4 exiting successfully. Buy a developer a beer!
