                               Psi4 1.3.2 release

  ==> Input File <==

--------------------------------------------------------------------------
#psi4
#
memory 32 gb

molecule  {
0 1
  N        0.8160970    -0.2990240    -0.0443680
  N        1.3585440    -1.5263750    -0.2734470
  N       -1.0817850     0.9875590    -0.4601130
  N       -1.2686320    -1.2431920     0.4227390
  C        1.7597130     0.6951090     0.1272320
  C        2.9786120     0.0532150     0.0016160
  C       -0.6340749    -0.1940858    -0.0170497
  C        1.4539390     2.1247050     0.4316710
  C        2.6793880    -1.2992810    -0.2463060
  C       -2.4210880     1.0928180    -0.4382200
  C       -2.6039190    -1.1175230     0.3972460
  C       -3.2414650     0.0469210    -0.0276130
  H        3.9528590     0.5149220     0.0929350
  H        1.0131890     2.6387050    -0.4244530
  H        0.7544440     2.2203260     1.2670250
  H        2.3864280     2.6245280     0.7070350
  H        3.3561510    -2.1272050    -0.4162310
  H       -2.8304840     2.0415190    -0.7796900
  H       -3.1684390    -1.9801170     0.7461500
  H       -4.3226790     0.1358530    -0.0311710
units angstrom
no_reorient  #important for SAPT in psi4, default
symmetry c1  #important for SAPT in psi4, default
}

set PROPERTIES_ORIGIN ["COM"]
properties('MP2/aug-cc-pvtz', properties = ['dipole'])
--------------------------------------------------------------------------

    Molecular point group: c1
  Charge       = 0
  Multiplicity = 1
  Basis Set: AUG-CC-PVTZ
    Blend: AUG-CC-PVTZ
  Basis Set: (AUG-CC-PVTZ AUX)
    Blend: AUG-CC-PVTZ-JKFIT

    Orbital Energies [Eh]
    ---------------------

    Doubly Occupied:

       1A    -15.637509     2A    -15.586342     3A    -15.580996
       4A    -15.577276     5A    -11.367432     6A    -11.314863
       7A    -11.313999     8A    -11.282315     9A    -11.256377
      10A    -11.249604    11A    -11.232519    12A    -11.213102
      13A     -1.380396    14A     -1.320448    15A     -1.217047
      16A     -1.122037    17A     -1.081394    18A     -1.043542
      19A     -0.955468    20A     -0.915675    21A     -0.894980
      22A     -0.794953    23A     -0.790940    24A     -0.716198
      25A     -0.709466    26A     -0.679933    27A     -0.635914
      28A     -0.634078    29A     -0.609083    30A     -0.587241
      31A     -0.584114    32A     -0.576686    33A     -0.560769
      34A     -0.551034    35A     -0.532933    36A     -0.493230
      37A     -0.452653    38A     -0.436140    39A     -0.428050
      40A     -0.406622    41A     -0.338753    42A     -0.328386

  @DF-RHF Final Energy:  -525.54133922162464

   => Energetics <=

    Nuclear Repulsion Energy =            658.2056723481518929
    One-Electron Energy =               -2018.7130342557550193
    Two-Electron Energy =                 834.9660226859784871
    Total Energy =                       -525.5413392216246393
  Basis Set: (AUG-CC-PVTZ AUX)
    Blend: AUG-CC-PVTZ-RI
    Molecular point group: c1

    Geometry (in Angstrom), charge = 0, multiplicity = 1:

       Center              X                  Y                   Z               Mass
    ------------   -----------------  -----------------  -----------------  -----------------
         N            0.826453040473    -0.260277829331    -0.037745270766    14.003074004430
         N            1.368900040473    -1.487628829331    -0.266824270766    14.003074004430
         N           -1.071428959527     1.026305170669    -0.453490270766    14.003074004430
         N           -1.258275959527    -1.204445829331     0.429361729234    14.003074004430
         C            1.770069040473     0.733855170669     0.133854729234    12.000000000000
         C            2.988968040473     0.091961170669     0.008238729234    12.000000000000
         C           -0.623718859527    -0.155339629331    -0.010426970766    12.000000000000
         C            1.464295040473     2.163451170669     0.438293729234    12.000000000000
         C            2.689744040473    -1.260534829331    -0.239683270766    12.000000000000
         C           -2.410731959527     1.131564170669    -0.431597270766    12.000000000000
         C           -2.593562959527    -1.078776829331     0.403868729234    12.000000000000
         C           -3.231108959527     0.085667170669    -0.020990270766    12.000000000000
         H            3.963215040473     0.553668170669     0.099557729234     1.007825032230
         H            1.023545040473     2.677451170669    -0.417830270766     1.007825032230
         H            0.764800040473     2.259072170669     1.273647729234     1.007825032230
         H            2.396784040473     2.663274170669     0.713657729234     1.007825032230
         H            3.366507040473    -2.088458829331    -0.409608270766     1.007825032230
         H           -2.820127959527     2.080265170669    -0.773067270766     1.007825032230
         H           -3.158082959527    -1.941370829331     0.752772729234     1.007825032230
         H           -4.312322959527     0.174599170669    -0.024548270766     1.007825032230

  Basis Set: AUG-CC-PVTZ
    Blend: AUG-CC-PVTZ
  Basis Set: (AUG-CC-PVTZ AUX)
    Blend: AUG-CC-PVTZ-JKFIT
	 Reference Energy          =    -525.5413392216246393 [Eh]
	 Singles Energy            =      -0.0000000000000000 [Eh]
	 Same-Spin Energy          =      -0.5775059458360291 [Eh]
	 Opposite-Spin Energy      =      -1.7384740334697901 [Eh]
	 Correlation Energy        =      -2.3159799793058191 [Eh]
	 Total Energy              =    -527.8573192009304194 [Eh]

	 ================> DF-SCS-MP2 Energies <==================
	-----------------------------------------------------------
	 SCS Same-Spin Scale       =       0.3333333333333333 [-]
	 SCS Opposite-Spin Scale   =       1.2000000000000000 [-]
	 SCS Same-Spin Energy      =      -0.1925019819453430 [Eh]
	 SCS Opposite-Spin Energy  =      -2.0861688401637482 [Eh]
	 SCS Correlation Energy    =      -2.2786708221090910 [Eh]
	 SCS Total Energy          =    -527.8200100437337596 [Eh]
	-----------------------------------------------------------

  Dipole Moment: [D]
     X:    -3.0417      Y:     2.5575      Z:     0.4572     Total:     4.0003

*** Psi4 exiting successfully. Buy a developer a beer!
