                               Psi4 1.3.2 release

  ==> Input File <==

--------------------------------------------------------------------------
#psi4
#
memory 32 gb

molecule  {
0 1
  N        0.8160970    -0.2990240    -0.0443680
  N        1.3585440    -1.5263750    -0.2734470
  N       -1.0817850     0.9875590    -0.4601130
  N       -1.2686320    -1.2431920     0.4227390
  C        1.7597130     0.6951090     0.1272320
  C        2.9786120     0.0532150     0.0016160
  C       -0.5903530    -0.1795160    -0.0248380
  C        1.4948920     1.9332361     0.3908968
  C        2.6793880    -1.2992810    -0.2463060
  C       -2.4210880     1.0928180    -0.4382200
  C       -2.6039190    -1.1175230     0.3972460
  C       -3.2414650     0.0469210    -0.0276130
  H        3.9528590     0.5149220     0.0929350
  H        1.0131890     2.6387050    -0.4244530
  H        0.7544440     2.2203260     1.2670250
  H        2.3864280     2.6245280     0.7070350
  H        3.3561510    -2.1272050    -0.4162310
  H       -2.8304840     2.0415190    -0.7796900
  H       -3.1684390    -1.9801170     0.7461500
  H       -4.3226790     0.1358530    -0.0311710
units angstrom
no_reorient  #important for SAPT in psi4, default
symmetry c1  #important for SAPT in psi4, default
}

set PROPERTIES_ORIGIN ["COM"]
properties('MP2/aug-cc-pvtz', properties = ['dipole'])
--------------------------------------------------------------------------

    Molecular point group: c1
  Charge       = 0
  Multiplicity = 1
  Basis Set: AUG-CC-PVTZ
    Blend: AUG-CC-PVTZ
  Basis Set: (AUG-CC-PVTZ AUX)
    Blend: AUG-CC-PVTZ-JKFIT

    Orbital Energies [Eh]
    ---------------------

    Doubly Occupied:

       1A    -15.641672     2A    -15.583034     3A    -15.581932
       4A    -15.578628     5A    -11.367218     6A    -11.311134
       7A    -11.309223     8A    -11.275546     9A    -11.255148
      10A    -11.252602    11A    -11.241278    12A    -11.218549
      13A     -1.388345    14A     -1.312838    15A     -1.206059
      16A     -1.135731    17A     -1.110780    18A     -1.046518
      19A     -0.960832    20A     -0.909142    21A     -0.895615
      22A     -0.803798    23A     -0.795895    24A     -0.719556
      25A     -0.711773    26A     -0.690768    27A     -0.642195
      28A     -0.636072    29A     -0.608440    30A     -0.596618
      31A     -0.588039    32A     -0.581430    33A     -0.572417
      34A     -0.529638    35A     -0.519263    36A     -0.481619
      37A     -0.452125    38A     -0.429653    39A     -0.418338
      40A     -0.408064    41A     -0.338417    42A     -0.323694

  @DF-RHF Final Energy:  -525.48938614783106

   => Energetics <=

    Nuclear Repulsion Energy =            662.1280886340650795
    One-Electron Energy =               -2026.3756723504729962
    Two-Electron Energy =                 838.7581975685768612
    Total Energy =                       -525.4893861478310555
  Basis Set: (AUG-CC-PVTZ AUX)
    Blend: AUG-CC-PVTZ-RI
    Molecular point group: c1

    Geometry (in Angstrom), charge = 0, multiplicity = 1:

       Center              X                  Y                   Z               Mass
    ------------   -----------------  -----------------  -----------------  -----------------
         N            0.820105394317    -0.247016604433    -0.034104787383    14.003074004430
         N            1.362552394317    -1.474367604433    -0.263183787383    14.003074004430
         N           -1.077776605683     1.039566395567    -0.449849787383    14.003074004430
         N           -1.264623605683    -1.191184604433     0.433002212617    14.003074004430
         C            1.763721394317     0.747116395567     0.137495212617    12.000000000000
         C            2.982620394317     0.105222395567     0.011879212617    12.000000000000
         C           -0.586344605683    -0.127508604433    -0.014574787383    12.000000000000
         C            1.498900394317     1.985243495567     0.401160012617    12.000000000000
         C            2.683396394317    -1.247273604433    -0.236042787383    12.000000000000
         C           -2.417079605683     1.144825395567    -0.427956787383    12.000000000000
         C           -2.599910605683    -1.065515604433     0.407509212617    12.000000000000
         C           -3.237456605683     0.098928395567    -0.017349787383    12.000000000000
         H            3.956867394317     0.566929395567     0.103198212617     1.007825032230
         H            1.017197394317     2.690712395567    -0.414189787383     1.007825032230
         H            0.758452394317     2.272333395567     1.277288212617     1.007825032230
         H            2.390436394317     2.676535395567     0.717298212617     1.007825032230
         H            3.360159394317    -2.075197604433    -0.405967787383     1.007825032230
         H           -2.826475605683     2.093526395567    -0.769426787383     1.007825032230
         H           -3.164430605683    -1.928109604433     0.756413212617     1.007825032230
         H           -4.318670605683     0.187860395567    -0.020907787383     1.007825032230

  Basis Set: AUG-CC-PVTZ
    Blend: AUG-CC-PVTZ
  Basis Set: (AUG-CC-PVTZ AUX)
    Blend: AUG-CC-PVTZ-JKFIT
	 Reference Energy          =    -525.4893861478310555 [Eh]
	 Singles Energy            =      -0.0000000000000000 [Eh]
	 Same-Spin Energy          =      -0.5816062520255854 [Eh]
	 Opposite-Spin Energy      =      -1.7435706750374194 [Eh]
	 Correlation Energy        =      -2.3251769270630049 [Eh]
	 Total Energy              =    -527.8145630748940675 [Eh]

	 ================> DF-SCS-MP2 Energies <==================
	-----------------------------------------------------------
	 SCS Same-Spin Scale       =       0.3333333333333333 [-]
	 SCS Opposite-Spin Scale   =       1.2000000000000000 [-]
	 SCS Same-Spin Energy      =      -0.1938687506751951 [Eh]
	 SCS Opposite-Spin Energy  =      -2.0922848100449030 [Eh]
	 SCS Correlation Energy    =      -2.2861535607200980 [Eh]
	 SCS Total Energy          =    -527.7755397085511504 [Eh]
	-----------------------------------------------------------

  Dipole Moment: [D]
     X:    -2.5572      Y:     2.5449      Z:     0.4287     Total:     3.6331

*** Psi4 exiting successfully. Buy a developer a beer!
