                               Psi4 1.3.2 release

  ==> Input File <==

--------------------------------------------------------------------------
#psi4
#
memory 32 gb

molecule  {
0 1
  N        0.8160970    -0.2990240    -0.0443680
  N        1.3585440    -1.5263750    -0.2734470
  N       -1.0817850     0.9875590    -0.4601130
  N       -1.2686320    -1.2431920     0.4227390
  C        1.7597130     0.6951090     0.1272320
  C        3.0025586     0.0479676     0.0001239
  C       -0.5903530    -0.1795160    -0.0248380
  C        1.4539390     2.1247050     0.4316710
  C        2.6793880    -1.2992810    -0.2463060
  C       -2.4210880     1.0928180    -0.4382200
  C       -2.6039190    -1.1175230     0.3972460
  C       -3.2414650     0.0469210    -0.0276130
  H        3.9528590     0.5149220     0.0929350
  H        1.0131890     2.6387050    -0.4244530
  H        0.7544440     2.2203260     1.2670250
  H        2.3864280     2.6245280     0.7070350
  H        3.3561510    -2.1272050    -0.4162310
  H       -2.8304840     2.0415190    -0.7796900
  H       -3.1684390    -1.9801170     0.7461500
  H       -4.3226790     0.1358530    -0.0311710
units angstrom
no_reorient  #important for SAPT in psi4, default
symmetry c1  #important for SAPT in psi4, default
}

set PROPERTIES_ORIGIN ["COM"]
properties('MP2/aug-cc-pvtz', properties = ['dipole'])
--------------------------------------------------------------------------

    Molecular point group: c1
  Charge       = 0
  Multiplicity = 1
  Basis Set: AUG-CC-PVTZ
    Blend: AUG-CC-PVTZ
  Basis Set: (AUG-CC-PVTZ AUX)
    Blend: AUG-CC-PVTZ-JKFIT

    Orbital Energies [Eh]
    ---------------------

    Doubly Occupied:

       1A    -15.643654     2A    -15.582981     3A    -15.580257
       4A    -15.579209     5A    -11.367961     6A    -11.311899
       7A    -11.309860     8A    -11.290267     9A    -11.254745
      10A    -11.253181    11A    -11.235001    12A    -11.218180
      13A     -1.385899    14A     -1.312530    15A     -1.206492
      16A     -1.129451    17A     -1.081989    18A     -1.044839
      19A     -0.958459    20A     -0.909417    21A     -0.897272
      22A     -0.798969    23A     -0.797423    24A     -0.713219
      25A     -0.706932    26A     -0.682468    27A     -0.638021
      28A     -0.634407    29A     -0.608726    30A     -0.591014
      31A     -0.586879    32A     -0.575425    33A     -0.566469
      34A     -0.552755    35A     -0.531291    36A     -0.491918
      37A     -0.455248    38A     -0.430870    39A     -0.420631
      40A     -0.407738    41A     -0.338777    42A     -0.329122

  @DF-RHF Final Energy:  -525.54208751289093

   => Energetics <=

    Nuclear Repulsion Energy =            657.7400406351723632
    One-Electron Energy =               -2017.7405596187138599
    Two-Electron Energy =                 834.4584314706505666
    Total Energy =                       -525.5420875128909302
  Basis Set: (AUG-CC-PVTZ AUX)
    Blend: AUG-CC-PVTZ-RI
    Molecular point group: c1

    Geometry (in Angstrom), charge = 0, multiplicity = 1:

       Center              X                  Y                   Z               Mass
    ------------   -----------------  -----------------  -----------------  -----------------
         N            0.821380277542    -0.260976682197    -0.037049566427    14.003074004430
         N            1.363827277542    -1.488327682197    -0.266128566427    14.003074004430
         N           -1.076501722458     1.025606317803    -0.452794566427    14.003074004430
         N           -1.263348722458    -1.205144682197     0.430057433573    14.003074004430
         C            1.764996277542     0.733156317803     0.134550433573    12.000000000000
         C            3.007841877542     0.086014917803     0.007442333573    12.000000000000
         C           -0.585069722458    -0.141468682197    -0.017519566427    12.000000000000
         C            1.459222277542     2.162752317803     0.438989433573    12.000000000000
         C            2.684671277542    -1.261233682197    -0.238987566427    12.000000000000
         C           -2.415804722458     1.130865317803    -0.430901566427    12.000000000000
         C           -2.598635722458    -1.079475682197     0.404564433573    12.000000000000
         C           -3.236181722458     0.084968317803    -0.020294566427    12.000000000000
         H            3.958142277542     0.552969317803     0.100253433573     1.007825032230
         H            1.018472277542     2.676752317803    -0.417134566427     1.007825032230
         H            0.759727277542     2.258373317803     1.274343433573     1.007825032230
         H            2.391711277542     2.662575317803     0.714353433573     1.007825032230
         H            3.361434277542    -2.089157682197    -0.408912566427     1.007825032230
         H           -2.825200722458     2.079566317803    -0.772371566427     1.007825032230
         H           -3.163155722458    -1.942069682197     0.753468433573     1.007825032230
         H           -4.317395722458     0.173900317803    -0.023852566427     1.007825032230

  Basis Set: AUG-CC-PVTZ
    Blend: AUG-CC-PVTZ
  Basis Set: (AUG-CC-PVTZ AUX)
    Blend: AUG-CC-PVTZ-JKFIT
	 Reference Energy          =    -525.5420875128909302 [Eh]
	 Singles Energy            =      -0.0000000000000000 [Eh]
	 Same-Spin Energy          =      -0.5777654127831127 [Eh]
	 Opposite-Spin Energy      =      -1.7389923292982119 [Eh]
	 Correlation Energy        =      -2.3167577420813243 [Eh]
	 Total Energy              =    -527.8588452549722660 [Eh]

	 ================> DF-SCS-MP2 Energies <==================
	-----------------------------------------------------------
	 SCS Same-Spin Scale       =       0.3333333333333333 [-]
	 SCS Opposite-Spin Scale   =       1.2000000000000000 [-]
	 SCS Same-Spin Energy      =      -0.1925884709277042 [Eh]
	 SCS Opposite-Spin Energy  =      -2.0867907951578544 [Eh]
	 SCS Correlation Energy    =      -2.2793792660855585 [Eh]
	 SCS Total Energy          =    -527.8214667789765144 [Eh]
	-----------------------------------------------------------

  Dipole Moment: [D]
     X:    -2.6283      Y:     2.5667      Z:     0.4428     Total:     3.7003

*** Psi4 exiting successfully. Buy a developer a beer!
