                               Psi4 1.3.2 release

  ==> Input File <==

--------------------------------------------------------------------------
#psi4
#
memory 32 gb

molecule  {
0 1
  N        0.8160970    -0.2990240    -0.0443680
  N        1.3585440    -1.5263750    -0.2734470
  N       -1.0817850     0.9875590    -0.4601130
  N       -1.2686320    -1.2431920     0.4227390
  C        1.7597130     0.6951090     0.1272320
  C        2.9786120     0.0532150     0.0016160
  C       -0.5903530    -0.1795160    -0.0248380
  C        1.4539390     2.1247050     0.4316710
  C        2.6793880    -1.2992810    -0.2463060
  C       -2.4210880     1.0928180    -0.4382200
  C       -2.6039190    -1.1175230     0.3972460
  C       -3.2872040     0.1304608    -0.0580933
  H        3.9528590     0.5149220     0.0929350
  H        1.0131890     2.6387050    -0.4244530
  H        0.7544440     2.2203260     1.2670250
  H        2.3864280     2.6245280     0.7070350
  H        3.3561510    -2.1272050    -0.4162310
  H       -2.8304840     2.0415190    -0.7796900
  H       -3.1684390    -1.9801170     0.7461500
  H       -4.3226790     0.1358530    -0.0311710
units angstrom
no_reorient  #important for SAPT in psi4, default
symmetry c1  #important for SAPT in psi4, default
}

set PROPERTIES_ORIGIN ["COM"]
properties('MP2/aug-cc-pvtz', properties = ['dipole'])
--------------------------------------------------------------------------

    Molecular point group: c1
  Charge       = 0
  Multiplicity = 1
  Basis Set: AUG-CC-PVTZ
    Blend: AUG-CC-PVTZ
  Basis Set: (AUG-CC-PVTZ AUX)
    Blend: AUG-CC-PVTZ-JKFIT

    Orbital Energies [Eh]
    ---------------------

    Doubly Occupied:

       1A    -15.643017     2A    -15.582737     3A    -15.582193
       4A    -15.578696     5A    -11.369458     6A    -11.324011
       7A    -11.301174     8A    -11.287331     9A    -11.255380
      10A    -11.253659    11A    -11.234390    12A    -11.217889
      13A     -1.386960    14A     -1.310842    15A     -1.205577
      16A     -1.128494    17A     -1.083453    18A     -1.045160
      19A     -0.958809    20A     -0.909395    21A     -0.893652
      22A     -0.799312    23A     -0.795908    24A     -0.711473
      25A     -0.708849    26A     -0.688037    27A     -0.644640
      28A     -0.636260    29A     -0.598420    30A     -0.590795
      31A     -0.582339    32A     -0.573707    33A     -0.563897
      34A     -0.551914    35A     -0.536316    36A     -0.494316
      37A     -0.455732    38A     -0.432049    39A     -0.417598
      40A     -0.404969    41A     -0.337970    42A     -0.332974

  @DF-RHF Final Energy:  -525.53243343156146

   => Energetics <=

    Nuclear Repulsion Energy =            657.1940771872333471
    One-Electron Energy =               -2016.6335159998868676
    Two-Electron Energy =                 833.9070053810919489
    Total Energy =                       -525.5324334315614578
  Basis Set: (AUG-CC-PVTZ AUX)
    Blend: AUG-CC-PVTZ-RI
    Molecular point group: c1

    Geometry (in Angstrom), charge = 0, multiplicity = 1:

       Center              X                  Y                   Z               Mass
    ------------   -----------------  -----------------  -----------------  -----------------
         N            0.826604252190    -0.267632606547    -0.034876468658    14.003074004430
         N            1.369051252190    -1.494983606547    -0.263955468658    14.003074004430
         N           -1.071277747810     1.018950393453    -0.450621468658    14.003074004430
         N           -1.258124747810    -1.211800606547     0.432230531342    14.003074004430
         C            1.770220252190     0.726500393453     0.136723531342    12.000000000000
         C            2.989119252190     0.084606393453     0.011107531342    12.000000000000
         C           -0.579845747810    -0.148124606547    -0.015346468658    12.000000000000
         C            1.464446252190     2.156096393453     0.441162531342    12.000000000000
         C            2.689895252190    -1.267889606547    -0.236814468658    12.000000000000
         C           -2.410580747810     1.124209393453    -0.428728468658    12.000000000000
         C           -2.593411747810    -1.086131606547     0.406737531342    12.000000000000
         C           -3.276696747810     0.161852193453    -0.048601768658    12.000000000000
         H            3.963366252190     0.546313393453     0.102426531342     1.007825032230
         H            1.023696252190     2.670096393453    -0.414961468658     1.007825032230
         H            0.764951252190     2.251717393453     1.276516531342     1.007825032230
         H            2.396935252190     2.655919393453     0.716526531342     1.007825032230
         H            3.366658252190    -2.095813606547    -0.406739468658     1.007825032230
         H           -2.819976747810     2.072910393453    -0.770198468658     1.007825032230
         H           -3.157931747810    -1.948725606547     0.755641531342     1.007825032230
         H           -4.312171747810     0.167244393453    -0.021679468658     1.007825032230

  Basis Set: AUG-CC-PVTZ
    Blend: AUG-CC-PVTZ
  Basis Set: (AUG-CC-PVTZ AUX)
    Blend: AUG-CC-PVTZ-JKFIT
	 Reference Energy          =    -525.5324334315614578 [Eh]
	 Singles Energy            =      -0.0000000000000000 [Eh]
	 Same-Spin Energy          =      -0.5770728961581536 [Eh]
	 Opposite-Spin Energy      =      -1.7388760609845142 [Eh]
	 Correlation Energy        =      -2.3159489571426679 [Eh]
	 Total Energy              =    -527.8483823887041808 [Eh]

	 ================> DF-SCS-MP2 Energies <==================
	-----------------------------------------------------------
	 SCS Same-Spin Scale       =       0.3333333333333333 [-]
	 SCS Opposite-Spin Scale   =       1.2000000000000000 [-]
	 SCS Same-Spin Energy      =      -0.1923576320527179 [Eh]
	 SCS Opposite-Spin Energy  =      -2.0866512731814169 [Eh]
	 SCS Correlation Energy    =      -2.2790089052341349 [Eh]
	 SCS Total Energy          =    -527.8114423367956078 [Eh]
	-----------------------------------------------------------

  Dipole Moment: [D]
     X:    -2.5460      Y:     2.4061      Z:     0.4980     Total:     3.5382

*** Psi4 exiting successfully. Buy a developer a beer!
