                               Psi4 1.3.2 release

  ==> Input File <==

--------------------------------------------------------------------------
#psi4
#
memory 32 gb

molecule  {
0 1
  N        0.8160970    -0.2990240    -0.0443680
  N        1.3585440    -1.5263750    -0.2734470
  N       -0.9490247     1.0270375    -0.4815842
  N       -1.2686320    -1.2431920     0.4227390
  C        1.7597130     0.6951090     0.1272320
  C        2.9786120     0.0532150     0.0016160
  C       -0.5903530    -0.1795160    -0.0248380
  C        1.4539390     2.1247050     0.4316710
  C        2.6793880    -1.2992810    -0.2463060
  C       -2.4210880     1.0928180    -0.4382200
  C       -2.6039190    -1.1175230     0.3972460
  C       -3.2414650     0.0469210    -0.0276130
  H        3.9528590     0.5149220     0.0929350
  H        1.0131890     2.6387050    -0.4244530
  H        0.7544440     2.2203260     1.2670250
  H        2.3864280     2.6245280     0.7070350
  H        3.3561510    -2.1272050    -0.4162310
  H       -2.8304840     2.0415190    -0.7796900
  H       -3.1684390    -1.9801170     0.7461500
  H       -4.3226790     0.1358530    -0.0311710
units angstrom
no_reorient  #important for SAPT in psi4, default
symmetry c1  #important for SAPT in psi4, default
}

set PROPERTIES_ORIGIN ["COM"]
properties('MP2/aug-cc-pvtz', properties = ['dipole'])
--------------------------------------------------------------------------

    Molecular point group: c1
  Charge       = 0
  Multiplicity = 1
  Basis Set: AUG-CC-PVTZ
    Blend: AUG-CC-PVTZ
  Basis Set: (AUG-CC-PVTZ AUX)
    Blend: AUG-CC-PVTZ-JKFIT

    Orbital Energies [Eh]
    ---------------------

    Doubly Occupied:

       1A    -15.635502     2A    -15.596296     3A    -15.582461
       4A    -15.577454     5A    -11.366105     6A    -11.326422
       7A    -11.319104     8A    -11.282738     9A    -11.260372
      10A    -11.250570    11A    -11.230828    12A    -11.213841
      13A     -1.383192    14A     -1.301037    15A     -1.196648
      16A     -1.122726    17A     -1.081963    18A     -1.046210
      19A     -0.955172    20A     -0.916888    21A     -0.884554
      22A     -0.795614    23A     -0.787930    24A     -0.707483
      25A     -0.702348    26A     -0.680877    27A     -0.635906
      28A     -0.634071    29A     -0.603530    30A     -0.585497
      31A     -0.581656    32A     -0.569091    33A     -0.559373
      34A     -0.546982    35A     -0.532428    36A     -0.491847
      37A     -0.455000    38A     -0.432236    39A     -0.422710
      40A     -0.408171    41A     -0.338905    42A     -0.328818

  @DF-RHF Final Energy:  -525.51935726058730

   => Energetics <=

    Nuclear Repulsion Energy =            657.1957229871270556
    One-Electron Energy =               -2016.7690521194354005
    Two-Electron Energy =                 834.0539718717210462
    Total Energy =                       -525.5193572605872987
  Basis Set: (AUG-CC-PVTZ AUX)
    Blend: AUG-CC-PVTZ-RI
    Molecular point group: c1

    Geometry (in Angstrom), charge = 0, multiplicity = 1:

       Center              X                  Y                   Z               Mass
    ------------   -----------------  -----------------  -----------------  -----------------
         N            0.811561791681    -0.264823563697    -0.035283158270    14.003074004430
         N            1.354008791681    -1.492174563697    -0.264362158270    14.003074004430
         N           -0.953559908319     1.061237936303    -0.472499358270    14.003074004430
         N           -1.273167208319    -1.208991563697     0.431823841730    14.003074004430
         C            1.755177791681     0.729309436303     0.136316841730    12.000000000000
         C            2.974076791681     0.087415436303     0.010700841730    12.000000000000
         C           -0.594888208319    -0.145315563697    -0.015753158270    12.000000000000
         C            1.449403791681     2.158905436303     0.440755841730    12.000000000000
         C            2.674852791681    -1.265080563697    -0.237221158270    12.000000000000
         C           -2.425623208319     1.127018436303    -0.429135158270    12.000000000000
         C           -2.608454208319    -1.083322563697     0.406330841730    12.000000000000
         C           -3.246000208319     0.081121436303    -0.018528158270    12.000000000000
         H            3.948323791681     0.549122436303     0.102019841730     1.007825032230
         H            1.008653791681     2.672905436303    -0.415368158270     1.007825032230
         H            0.749908791681     2.254526436303     1.276109841730     1.007825032230
         H            2.381892791681     2.658728436303     0.716119841730     1.007825032230
         H            3.351615791681    -2.093004563697    -0.407146158270     1.007825032230
         H           -2.835019208319     2.075719436303    -0.770605158270     1.007825032230
         H           -3.172974208319    -1.945916563697     0.755234841730     1.007825032230
         H           -4.327214208319     0.170053436303    -0.022086158270     1.007825032230

  Basis Set: AUG-CC-PVTZ
    Blend: AUG-CC-PVTZ
  Basis Set: (AUG-CC-PVTZ AUX)
    Blend: AUG-CC-PVTZ-JKFIT
	 Reference Energy          =    -525.5193572605872987 [Eh]
	 Singles Energy            =      -0.0000000000000000 [Eh]
	 Same-Spin Energy          =      -0.5791899394054795 [Eh]
	 Opposite-Spin Energy      =      -1.7442983575634896 [Eh]
	 Correlation Energy        =      -2.3234882969689692 [Eh]
	 Total Energy              =    -527.8428455575563021 [Eh]

	 ================> DF-SCS-MP2 Energies <==================
	-----------------------------------------------------------
	 SCS Same-Spin Scale       =       0.3333333333333333 [-]
	 SCS Opposite-Spin Scale   =       1.2000000000000000 [-]
	 SCS Same-Spin Energy      =      -0.1930633131351598 [Eh]
	 SCS Opposite-Spin Energy  =      -2.0931580290761875 [Eh]
	 SCS Correlation Energy    =      -2.2862213422113475 [Eh]
	 SCS Total Energy          =    -527.8055786027986187 [Eh]
	-----------------------------------------------------------

  Dipole Moment: [D]
     X:    -2.9959      Y:     2.4455      Z:     0.4911     Total:     3.8983

*** Psi4 exiting successfully. Buy a developer a beer!
