                               Psi4 1.3.2 release

  ==> Input File <==

--------------------------------------------------------------------------
#psi4
#
memory 32 gb

molecule  {
0 1
  N        0.8887641    -0.3612836    -0.0561827
  N        1.3585440    -1.5263750    -0.2734470
  N       -1.0817850     0.9875590    -0.4601130
  N       -1.2686320    -1.2431920     0.4227390
  C        1.7597130     0.6951090     0.1272320
  C        2.9786120     0.0532150     0.0016160
  C       -0.5903530    -0.1795160    -0.0248380
  C        1.4539390     2.1247050     0.4316710
  C        2.6793880    -1.2992810    -0.2463060
  C       -2.4210880     1.0928180    -0.4382200
  C       -2.6039190    -1.1175230     0.3972460
  C       -3.2414650     0.0469210    -0.0276130
  H        3.9528590     0.5149220     0.0929350
  H        1.0131890     2.6387050    -0.4244530
  H        0.7544440     2.2203260     1.2670250
  H        2.3864280     2.6245280     0.7070350
  H        3.3561510    -2.1272050    -0.4162310
  H       -2.8304840     2.0415190    -0.7796900
  H       -3.1684390    -1.9801170     0.7461500
  H       -4.3226790     0.1358530    -0.0311710
units angstrom
no_reorient  #important for SAPT in psi4, default
symmetry c1  #important for SAPT in psi4, default
}

set PROPERTIES_ORIGIN ["COM"]
properties('MP2/aug-cc-pvtz', properties = ['dipole'])
--------------------------------------------------------------------------

    Molecular point group: c1
  Charge       = 0
  Multiplicity = 1
  Basis Set: AUG-CC-PVTZ
    Blend: AUG-CC-PVTZ
  Basis Set: (AUG-CC-PVTZ AUX)
    Blend: AUG-CC-PVTZ-JKFIT

    Orbital Energies [Eh]
    ---------------------

    Doubly Occupied:

       1A    -15.648982     2A    -15.589263     3A    -15.583926
       4A    -15.578555     5A    -11.373194     6A    -11.315706
       7A    -11.312870     8A    -11.276063     9A    -11.257678
      10A    -11.242497    11A    -11.235188    12A    -11.213310
      13A     -1.411733    14A     -1.322359    15A     -1.209750
      16A     -1.117972    17A     -1.089107    18A     -1.044073
      19A     -0.960692    20A     -0.911286    21A     -0.893346
      22A     -0.805630    23A     -0.789020    24A     -0.714701
      25A     -0.710728    26A     -0.684877    27A     -0.643684
      28A     -0.634029    29A     -0.608099    30A     -0.589440
      31A     -0.580201    32A     -0.576215    33A     -0.566143
      34A     -0.560178    35A     -0.532219    36A     -0.491875
      37A     -0.458708    38A     -0.433815    39A     -0.424679
      40A     -0.402129    41A     -0.341106    42A     -0.325911

  @DF-RHF Final Energy:  -525.53033092435328

   => Energetics <=

    Nuclear Repulsion Energy =            658.3309668046887282
    One-Electron Energy =               -2018.8007196453431789
    Two-Electron Energy =                 834.9394219163012849
    Total Energy =                       -525.5303309243532794
  Basis Set: (AUG-CC-PVTZ AUX)
    Blend: AUG-CC-PVTZ-RI
    Molecular point group: c1

    Geometry (in Angstrom), charge = 0, multiplicity = 1:

       Center              X                  Y                   Z               Mass
    ------------   -----------------  -----------------  -----------------  -----------------
         N            0.889485740483    -0.318183291346    -0.047942592124    14.003074004430
         N            1.359265640483    -1.483274691346    -0.265206892124    14.003074004430
         N           -1.081063359517     1.030659308654    -0.451872892124    14.003074004430
         N           -1.267910359517    -1.200091691346     0.430979107876    14.003074004430
         C            1.760434640483     0.738209308654     0.135472107876    12.000000000000
         C            2.979333640483     0.096315308654     0.009856107876    12.000000000000
         C           -0.589631359517    -0.136415691346    -0.016597892124    12.000000000000
         C            1.454660640483     2.167805308654     0.439911107876    12.000000000000
         C            2.680109640483    -1.256180691346    -0.238065892124    12.000000000000
         C           -2.420366359517     1.135918308654    -0.429979892124    12.000000000000
         C           -2.603197359517    -1.074422691346     0.405486107876    12.000000000000
         C           -3.240743359517     0.090021308654    -0.019372892124    12.000000000000
         H            3.953580640483     0.558022308654     0.101175107876     1.007825032230
         H            1.013910640483     2.681805308654    -0.416212892124     1.007825032230
         H            0.755165640483     2.263426308654     1.275265107876     1.007825032230
         H            2.387149640483     2.667628308654     0.715275107876     1.007825032230
         H            3.356872640483    -2.084104691346    -0.407990892124     1.007825032230
         H           -2.829762359517     2.084619308654    -0.771449892124     1.007825032230
         H           -3.167717359517    -1.937016691346     0.754390107876     1.007825032230
         H           -4.321957359517     0.178953308654    -0.022930892124     1.007825032230

  Basis Set: AUG-CC-PVTZ
    Blend: AUG-CC-PVTZ
  Basis Set: (AUG-CC-PVTZ AUX)
    Blend: AUG-CC-PVTZ-JKFIT
	 Reference Energy          =    -525.5303309243532794 [Eh]
	 Singles Energy            =      -0.0000000000000000 [Eh]
	 Same-Spin Energy          =      -0.5788791771825412 [Eh]
	 Opposite-Spin Energy      =      -1.7390874344408247 [Eh]
	 Correlation Energy        =      -2.3179666116233659 [Eh]
	 Total Energy              =    -527.8482975359765987 [Eh]

	 ================> DF-SCS-MP2 Energies <==================
	-----------------------------------------------------------
	 SCS Same-Spin Scale       =       0.3333333333333333 [-]
	 SCS Opposite-Spin Scale   =       1.2000000000000000 [-]
	 SCS Same-Spin Energy      =      -0.1929597257275137 [Eh]
	 SCS Opposite-Spin Energy  =      -2.0869049213289896 [Eh]
	 SCS Correlation Energy    =      -2.2798646470565034 [Eh]
	 SCS Total Energy          =    -527.8101955714097357 [Eh]
	-----------------------------------------------------------

  Dipole Moment: [D]
     X:    -3.0964      Y:     2.6400      Z:     0.4469     Total:     4.0935

*** Psi4 exiting successfully. Buy a developer a beer!
