                               Psi4 1.3.2 release

  ==> Input File <==

--------------------------------------------------------------------------
#psi4
#
memory 32 gb

molecule  {
0 1
  N        0.8160970    -0.2990240    -0.0443680
  N        1.3585440    -1.5263750    -0.2734470
  N       -1.0817850     0.9875590    -0.4601130
  N       -1.2686320    -1.2431920     0.4227390
  C        1.7597130     0.6951090     0.1272320
  C        2.9786120     0.0532150     0.0016160
  C       -0.5903530    -0.1795160    -0.0248380
  C        1.4539390     2.1247050     0.4316710
  C        2.6793880    -1.2992810    -0.2463060
  C       -2.4210880     1.0928180    -0.4382200
  C       -2.6039190    -1.1175230     0.3972460
  C       -3.2414650     0.0469210    -0.0276130
  H        3.9528590     0.5149220     0.0929350
  H        1.0131890     2.6387050    -0.4244530
  H        0.7544440     2.2203260     1.2670250
  H        2.3864280     2.6245280     0.7070350
  H        3.3561510    -2.1272050    -0.4162310
  H       -2.8681044     2.1286975    -0.8110685
  H       -3.1684390    -1.9801170     0.7461500
  H       -4.3226790     0.1358530    -0.0311710
units angstrom
no_reorient  #important for SAPT in psi4, default
symmetry c1  #important for SAPT in psi4, default
}

set PROPERTIES_ORIGIN ["COM"]
properties('MP2/aug-cc-pvtz', properties = ['dipole'])
--------------------------------------------------------------------------

    Molecular point group: c1
  Charge       = 0
  Multiplicity = 1
  Basis Set: AUG-CC-PVTZ
    Blend: AUG-CC-PVTZ
  Basis Set: (AUG-CC-PVTZ AUX)
    Blend: AUG-CC-PVTZ-JKFIT

    Orbital Energies [Eh]
    ---------------------

    Doubly Occupied:

       1A    -15.642470     2A    -15.583471     3A    -15.581708
       4A    -15.578976     5A    -11.368255     6A    -11.322305
       7A    -11.310136     8A    -11.286990     9A    -11.254788
      10A    -11.253644    11A    -11.234853    12A    -11.217532
      13A     -1.386699    14A     -1.313024    15A     -1.206145
      16A     -1.129258    17A     -1.084421    18A     -1.044894
      19A     -0.958975    20A     -0.904153    21A     -0.895960
      22A     -0.797565    23A     -0.793548    24A     -0.711248
      25A     -0.706242    26A     -0.682053    27A     -0.638617
      28A     -0.629730    29A     -0.602918    30A     -0.589014
      31A     -0.580350    32A     -0.573822    33A     -0.564195
      34A     -0.552925    35A     -0.536114    36A     -0.492188
      37A     -0.455138    38A     -0.431003    39A     -0.419596
      40A     -0.408145    41A     -0.338438    42A     -0.332603

  @DF-RHF Final Energy:  -525.53619618420430

   => Energetics <=

    Nuclear Repulsion Energy =            657.7640478121195429
    One-Electron Energy =               -2017.8122686344511294
    Two-Electron Energy =                 834.5120246381272864
    Total Energy =                       -525.5361961842043002
  Basis Set: (AUG-CC-PVTZ AUX)
    Blend: AUG-CC-PVTZ-RI
    Molecular point group: c1

    Geometry (in Angstrom), charge = 0, multiplicity = 1:

       Center              X                  Y                   Z               Mass
    ------------   -----------------  -----------------  -----------------  -----------------
         N            0.823412288734    -0.261918925347    -0.036963863808    14.003074004430
         N            1.365859288734    -1.489269925347    -0.266042863808    14.003074004430
         N           -1.074469711266     1.024664074653    -0.452708863808    14.003074004430
         N           -1.261316711266    -1.206086925347     0.430143136192    14.003074004430
         C            1.767028288734     0.732214074653     0.134636136192    12.000000000000
         C            2.985927288734     0.090320074653     0.009020136192    12.000000000000
         C           -0.583037711266    -0.142410925347    -0.017433863808    12.000000000000
         C            1.461254288734     2.161810074653     0.439075136192    12.000000000000
         C            2.686703288734    -1.262175925347    -0.238901863808    12.000000000000
         C           -2.413772711266     1.129923074653    -0.430815863808    12.000000000000
         C           -2.596603711266    -1.080417925347     0.404650136192    12.000000000000
         C           -3.234149711266     0.084026074653    -0.020208863808    12.000000000000
         H            3.960174288734     0.552027074653     0.100339136192     1.007825032230
         H            1.020504288734     2.675810074653    -0.417048863808     1.007825032230
         H            0.761759288734     2.257431074653     1.274429136192     1.007825032230
         H            2.393743288734     2.661633074653     0.714439136192     1.007825032230
         H            3.363466288734    -2.090099925347    -0.408826863808     1.007825032230
         H           -2.860789111266     2.165802574653    -0.803664363808     1.007825032230
         H           -3.161123711266    -1.943011925347     0.753554136192     1.007825032230
         H           -4.315363711266     0.172958074653    -0.023766863808     1.007825032230

  Basis Set: AUG-CC-PVTZ
    Blend: AUG-CC-PVTZ
  Basis Set: (AUG-CC-PVTZ AUX)
    Blend: AUG-CC-PVTZ-JKFIT
	 Reference Energy          =    -525.5361961842043002 [Eh]
	 Singles Energy            =      -0.0000000000000000 [Eh]
	 Same-Spin Energy          =      -0.5778335578188846 [Eh]
	 Opposite-Spin Energy      =      -1.7395927358274494 [Eh]
	 Correlation Energy        =      -2.3174262936463341 [Eh]
	 Total Energy              =    -527.8536224778506494 [Eh]

	 ================> DF-SCS-MP2 Energies <==================
	-----------------------------------------------------------
	 SCS Same-Spin Scale       =       0.3333333333333333 [-]
	 SCS Opposite-Spin Scale   =       1.2000000000000000 [-]
	 SCS Same-Spin Energy      =      -0.1926111859396282 [Eh]
	 SCS Opposite-Spin Energy  =      -2.0875112829929394 [Eh]
	 SCS Correlation Energy    =      -2.2801224689325674 [Eh]
	 SCS Total Energy          =    -527.8163186531368183 [Eh]
	-----------------------------------------------------------

  Dipole Moment: [D]
     X:    -2.5407      Y:     2.5276      Z:     0.4493     Total:     3.6119

*** Psi4 exiting successfully. Buy a developer a beer!
