                               Psi4 1.3.2 release

  ==> Input File <==

--------------------------------------------------------------------------
#psi4
#
memory 32 gb

molecule  {
0 1
  N        0.8160970    -0.2990240    -0.0443680
  N        1.2250714    -1.5756692    -0.2810815
  N       -1.0817850     0.9875590    -0.4601130
  N       -1.2686320    -1.2431920     0.4227390
  C        1.7597130     0.6951090     0.1272320
  C        2.9786120     0.0532150     0.0016160
  C       -0.5903530    -0.1795160    -0.0248380
  C        1.4539390     2.1247050     0.4316710
  C        2.6793880    -1.2992810    -0.2463060
  C       -2.4210880     1.0928180    -0.4382200
  C       -2.6039190    -1.1175230     0.3972460
  C       -3.2414650     0.0469210    -0.0276130
  H        3.9528590     0.5149220     0.0929350
  H        1.0131890     2.6387050    -0.4244530
  H        0.7544440     2.2203260     1.2670250
  H        2.3864280     2.6245280     0.7070350
  H        3.3561510    -2.1272050    -0.4162310
  H       -2.8304840     2.0415190    -0.7796900
  H       -3.1684390    -1.9801170     0.7461500
  H       -4.3226790     0.1358530    -0.0311710
units angstrom
no_reorient  #important for SAPT in psi4, default
symmetry c1  #important for SAPT in psi4, default
}

set PROPERTIES_ORIGIN ["COM"]
properties('MP2/aug-cc-pvtz', properties = ['dipole'])
--------------------------------------------------------------------------

    Molecular point group: c1
  Charge       = 0
  Multiplicity = 1
  Basis Set: AUG-CC-PVTZ
    Blend: AUG-CC-PVTZ
  Basis Set: (AUG-CC-PVTZ AUX)
    Blend: AUG-CC-PVTZ-JKFIT

    Orbital Energies [Eh]
    ---------------------

    Doubly Occupied:

       1A    -15.649059     2A    -15.595103     3A    -15.581684
       4A    -15.577702     5A    -11.364480     6A    -11.310500
       7A    -11.308618     8A    -11.290753     9A    -11.268802
      10A    -11.252286    11A    -11.237539    12A    -11.225815
      13A     -1.381670    14A     -1.306027    15A     -1.205419
      16A     -1.109475    17A     -1.088429    18A     -1.039148
      19A     -0.961623    20A     -0.907572    21A     -0.893924
      22A     -0.800384    23A     -0.793525    24A     -0.712654
      25A     -0.702396    26A     -0.679135    27A     -0.636137
      28A     -0.631029    29A     -0.607093    30A     -0.589611
      31A     -0.582974    32A     -0.573022    33A     -0.558752
      34A     -0.548423    35A     -0.533196    36A     -0.491042
      37A     -0.466332    38A     -0.429454    39A     -0.419142
      40A     -0.401427    41A     -0.342207    42A     -0.317317

  @DF-RHF Final Energy:  -525.51014521606373

   => Energetics <=

    Nuclear Repulsion Energy =            656.8899781684907566
    One-Electron Energy =               -2016.0584898562733542
    Two-Electron Energy =                 833.6583664717187503
    Total Energy =                       -525.5101452160637336
  Basis Set: (AUG-CC-PVTZ AUX)
    Blend: AUG-CC-PVTZ-RI
    Molecular point group: c1

    Geometry (in Angstrom), charge = 0, multiplicity = 1:

       Center              X                  Y                   Z               Mass
    ------------   -----------------  -----------------  -----------------  -----------------
         N            0.834851383540    -0.257057882028    -0.036493568762    14.003074004430
         N            1.243825783540    -1.533703082028    -0.273207068762    14.003074004430
         N           -1.063030616460     1.029525117972    -0.452238568762    14.003074004430
         N           -1.249877616460    -1.201225882028     0.430613431238    14.003074004430
         C            1.778467383540     0.737075117972     0.135106431238    12.000000000000
         C            2.997366383540     0.095181117972     0.009490431238    12.000000000000
         C           -0.571598616460    -0.137549882028    -0.016963568762    12.000000000000
         C            1.472693383540     2.166671117972     0.439545431238    12.000000000000
         C            2.698142383540    -1.257314882028    -0.238431568762    12.000000000000
         C           -2.402333616460     1.134784117972    -0.430345568762    12.000000000000
         C           -2.585164616460    -1.075556882028     0.405120431238    12.000000000000
         C           -3.222710616460     0.088887117972    -0.019738568762    12.000000000000
         H            3.971613383540     0.556888117972     0.100809431238     1.007825032230
         H            1.031943383540     2.680671117972    -0.416578568762     1.007825032230
         H            0.773198383540     2.262292117972     1.274899431238     1.007825032230
         H            2.405182383540     2.666494117972     0.714909431238     1.007825032230
         H            3.374905383540    -2.085238882028    -0.408356568762     1.007825032230
         H           -2.811729616460     2.083485117972    -0.771815568762     1.007825032230
         H           -3.149684616460    -1.938150882028     0.754024431238     1.007825032230
         H           -4.303924616460     0.177819117972    -0.023296568762     1.007825032230

  Basis Set: AUG-CC-PVTZ
    Blend: AUG-CC-PVTZ
  Basis Set: (AUG-CC-PVTZ AUX)
    Blend: AUG-CC-PVTZ-JKFIT
	 Reference Energy          =    -525.5101452160637336 [Eh]
	 Singles Energy            =      -0.0000000000000000 [Eh]
	 Same-Spin Energy          =      -0.5827712621484742 [Eh]
	 Opposite-Spin Energy      =      -1.7489909235441896 [Eh]
	 Correlation Energy        =      -2.3317621856926638 [Eh]
	 Total Energy              =    -527.8419074017564299 [Eh]

	 ================> DF-SCS-MP2 Energies <==================
	-----------------------------------------------------------
	 SCS Same-Spin Scale       =       0.3333333333333333 [-]
	 SCS Opposite-Spin Scale   =       1.2000000000000000 [-]
	 SCS Same-Spin Energy      =      -0.1942570873828247 [Eh]
	 SCS Opposite-Spin Energy  =      -2.0987891082530274 [Eh]
	 SCS Correlation Energy    =      -2.2930461956358523 [Eh]
	 SCS Total Energy          =    -527.8031914116995722 [Eh]
	-----------------------------------------------------------

  Dipole Moment: [D]
     X:    -2.5438      Y:     2.7159      Z:     0.4854     Total:     3.7527

*** Psi4 exiting successfully. Buy a developer a beer!
