                               Psi4 1.3.2 release

  ==> Input File <==

--------------------------------------------------------------------------
#psi4
#
memory 32 gb

molecule  {
0 1
  N        0.8160970    -0.2990240    -0.0443680
  N        1.3419392    -1.3896563    -0.2466162
  N       -1.0817850     0.9875590    -0.4601130
  N       -1.2686320    -1.2431920     0.4227390
  C        1.7597130     0.6951090     0.1272320
  C        2.9786120     0.0532150     0.0016160
  C       -0.5903530    -0.1795160    -0.0248380
  C        1.4539390     2.1247050     0.4316710
  C        2.6793880    -1.2992810    -0.2463060
  C       -2.4210880     1.0928180    -0.4382200
  C       -2.6039190    -1.1175230     0.3972460
  C       -3.2414650     0.0469210    -0.0276130
  H        3.9528590     0.5149220     0.0929350
  H        1.0131890     2.6387050    -0.4244530
  H        0.7544440     2.2203260     1.2670250
  H        2.3864280     2.6245280     0.7070350
  H        3.3561510    -2.1272050    -0.4162310
  H       -2.8304840     2.0415190    -0.7796900
  H       -3.1684390    -1.9801170     0.7461500
  H       -4.3226790     0.1358530    -0.0311710
units angstrom
no_reorient  #important for SAPT in psi4, default
symmetry c1  #important for SAPT in psi4, default
}

set PROPERTIES_ORIGIN ["COM"]
properties('MP2/aug-cc-pvtz', properties = ['dipole'])
--------------------------------------------------------------------------

    Molecular point group: c1
  Charge       = 0
  Multiplicity = 1
  Basis Set: AUG-CC-PVTZ
    Blend: AUG-CC-PVTZ
  Basis Set: (AUG-CC-PVTZ AUX)
    Blend: AUG-CC-PVTZ-JKFIT

    Orbital Energies [Eh]
    ---------------------

    Doubly Occupied:

       1A    -15.650954     2A    -15.587387     3A    -15.584111
       4A    -15.568664     5A    -11.371247     6A    -11.314791
       7A    -11.313057     8A    -11.268263     9A    -11.257176
      10A    -11.243559    11A    -11.227270    12A    -11.215399
      13A     -1.441049    14A     -1.324301    15A     -1.210321
      16A     -1.130529    17A     -1.083132    18A     -1.053023
      19A     -0.950298    20A     -0.912665    21A     -0.906157
      22A     -0.815780    23A     -0.803669    24A     -0.716644
      25A     -0.710176    26A     -0.683437    27A     -0.656348
      28A     -0.639690    29A     -0.611064    30A     -0.603219
      31A     -0.588028    32A     -0.577950    33A     -0.561514
      34A     -0.557428    35A     -0.529908    36A     -0.495742
      37A     -0.440308    38A     -0.433149    39A     -0.418228
      40A     -0.406531    41A     -0.344869    42A     -0.317139

  @DF-RHF Final Energy:  -525.52985832423190

   => Energetics <=

    Nuclear Repulsion Energy =            662.5526407374889004
    One-Electron Energy =               -2027.1166506365643727
    Two-Electron Energy =                 839.0341515748435768
    Total Energy =                       -525.5298583242318955
  Basis Set: (AUG-CC-PVTZ AUX)
    Blend: AUG-CC-PVTZ-RI
    Molecular point group: c1

    Geometry (in Angstrom), charge = 0, multiplicity = 1:

       Center              X                  Y                   Z               Mass
    ------------   -----------------  -----------------  -----------------  -----------------
         N            0.824627991302    -0.273329967564    -0.039508533368    14.003074004430
         N            1.350470191302    -1.363962267564    -0.241756733368    14.003074004430
         N           -1.073254008698     1.013253032436    -0.455253533368    14.003074004430
         N           -1.260101008698    -1.217497967564     0.427598466632    14.003074004430
         C            1.768243991302     0.720803032436     0.132091466632    12.000000000000
         C            2.987142991302     0.078909032436     0.006475466632    12.000000000000
         C           -0.581822008698    -0.153821967564    -0.019978533368    12.000000000000
         C            1.462469991302     2.150399032436     0.436530466632    12.000000000000
         C            2.687918991302    -1.273586967564    -0.241446533368    12.000000000000
         C           -2.412557008698     1.118512032436    -0.433360533368    12.000000000000
         C           -2.595388008698    -1.091828967564     0.402105466632    12.000000000000
         C           -3.232934008698     0.072615032436    -0.022753533368    12.000000000000
         H            3.961389991302     0.540616032436     0.097794466632     1.007825032230
         H            1.021719991302     2.664399032436    -0.419593533368     1.007825032230
         H            0.762974991302     2.246020032436     1.271884466632     1.007825032230
         H            2.394958991302     2.650222032436     0.711894466632     1.007825032230
         H            3.364681991302    -2.101510967564    -0.411371533368     1.007825032230
         H           -2.821953008698     2.067213032436    -0.774830533368     1.007825032230
         H           -3.159908008698    -1.954422967564     0.751009466632     1.007825032230
         H           -4.314148008698     0.161547032436    -0.026311533368     1.007825032230

  Basis Set: AUG-CC-PVTZ
    Blend: AUG-CC-PVTZ
  Basis Set: (AUG-CC-PVTZ AUX)
    Blend: AUG-CC-PVTZ-JKFIT
	 Reference Energy          =    -525.5298583242318955 [Eh]
	 Singles Energy            =      -0.0000000000000000 [Eh]
	 Same-Spin Energy          =      -0.5781540719734670 [Eh]
	 Opposite-Spin Energy      =      -1.7361043381308672 [Eh]
	 Correlation Energy        =      -2.3142584101043342 [Eh]
	 Total Energy              =    -527.8441167343362395 [Eh]

	 ================> DF-SCS-MP2 Energies <==================
	-----------------------------------------------------------
	 SCS Same-Spin Scale       =       0.3333333333333333 [-]
	 SCS Opposite-Spin Scale   =       1.2000000000000000 [-]
	 SCS Same-Spin Energy      =      -0.1927180239911557 [Eh]
	 SCS Opposite-Spin Energy  =      -2.0833252057570406 [Eh]
	 SCS Correlation Energy    =      -2.2760432297481961 [Eh]
	 SCS Total Energy          =    -527.8059015539801067 [Eh]
	-----------------------------------------------------------

  Dipole Moment: [D]
     X:    -2.9319      Y:     2.3160      Z:     0.3862     Total:     3.7562

*** Psi4 exiting successfully. Buy a developer a beer!
