                               Psi4 1.3.2 release

  ==> Input File <==

--------------------------------------------------------------------------
#psi4
#
memory 32 gb

molecule  {
0 1
  N        0.8338463    -0.3150552    -0.0474024
  N        1.3585440    -1.5263750    -0.2734470
  N       -1.0817850     0.9875590    -0.4601130
  N       -1.2686320    -1.2431920     0.4227390
  C        1.7597130     0.6951090     0.1272320
  C        2.9786120     0.0532150     0.0016160
  C       -0.5903530    -0.1795160    -0.0248380
  C        1.4539390     2.1247050     0.4316710
  C        2.6793880    -1.2992810    -0.2463060
  C       -2.4210880     1.0928180    -0.4382200
  C       -2.6039190    -1.1175230     0.3972460
  C       -3.2414650     0.0469210    -0.0276130
  H        3.9528590     0.5149220     0.0929350
  H        1.0131890     2.6387050    -0.4244530
  H        0.7544440     2.2203260     1.2670250
  H        2.3864280     2.6245280     0.7070350
  H        3.3561510    -2.1272050    -0.4162310
  H       -2.8304840     2.0415190    -0.7796900
  H       -3.1684390    -1.9801170     0.7461500
  H       -4.3226790     0.1358530    -0.0311710
units angstrom
no_reorient  #important for SAPT in psi4, default
symmetry c1  #important for SAPT in psi4, default
}

set PROPERTIES_ORIGIN ["COM"]
properties('MP2/aug-cc-pvtz', properties = ['dipole'])
--------------------------------------------------------------------------

    Molecular point group: c1
  Charge       = 0
  Multiplicity = 1
  Basis Set: AUG-CC-PVTZ
    Blend: AUG-CC-PVTZ
  Basis Set: (AUG-CC-PVTZ AUX)
    Blend: AUG-CC-PVTZ-JKFIT

    Orbital Energies [Eh]
    ---------------------

    Doubly Occupied:

       1A    -15.643693     2A    -15.584275     3A    -15.580496
       4A    -15.580057     5A    -11.369071     6A    -11.312656
       7A    -11.310382     8A    -11.283999     9A    -11.254040
      10A    -11.251476    11A    -11.234813    12A    -11.216167
      13A     -1.391035    14A     -1.315451    15A     -1.207033
      16A     -1.126161    17A     -1.085142    18A     -1.045116
      19A     -0.959127    20A     -0.909664    21A     -0.895628
      22A     -0.800513    23A     -0.794719    24A     -0.713373
      25A     -0.708452    26A     -0.683034    27A     -0.638984
      28A     -0.633417    29A     -0.607349    30A     -0.587343
      31A     -0.586547    32A     -0.575855    33A     -0.565009
      34A     -0.554883    35A     -0.534969    36A     -0.491709
      37A     -0.456390    38A     -0.431395    39A     -0.421436
      40A     -0.406051    41A     -0.338034    42A     -0.331735

  @DF-RHF Final Energy:  -525.54284602198550

   => Energetics <=

    Nuclear Repulsion Energy =            658.2686419710137216
    One-Electron Energy =               -2018.7896260114926008
    Two-Electron Energy =                 834.9781380184933823
    Total Energy =                       -525.5428460219854969
  Basis Set: (AUG-CC-PVTZ AUX)
    Blend: AUG-CC-PVTZ-RI
    Molecular point group: c1

    Geometry (in Angstrom), charge = 0, multiplicity = 1:

       Center              X                  Y                   Z               Mass
    ------------   -----------------  -----------------  -----------------  -----------------
         N            0.839372054279    -0.275998871516    -0.039930377524    14.003074004430
         N            1.364069754279    -1.487318671516    -0.265974977524    14.003074004430
         N           -1.076259245721     1.026615328484    -0.452640977524    14.003074004430
         N           -1.263106245721    -1.204135671516     0.430211022476    14.003074004430
         C            1.765238754279     0.734165328484     0.134704022476    12.000000000000
         C            2.984137754279     0.092271328484     0.009088022476    12.000000000000
         C           -0.584827245721    -0.140459671516    -0.017365977524    12.000000000000
         C            1.459464754279     2.163761328484     0.439143022476    12.000000000000
         C            2.684913754279    -1.260224671516    -0.238833977524    12.000000000000
         C           -2.415562245721     1.131874328484    -0.430747977524    12.000000000000
         C           -2.598393245721    -1.078466671516     0.404718022476    12.000000000000
         C           -3.235939245721     0.085977328484    -0.020140977524    12.000000000000
         H            3.958384754279     0.553978328484     0.100407022476     1.007825032230
         H            1.018714754279     2.677761328484    -0.416980977524     1.007825032230
         H            0.759969754279     2.259382328484     1.274497022476     1.007825032230
         H            2.391953754279     2.663584328484     0.714507022476     1.007825032230
         H            3.361676754279    -2.088148671516    -0.408758977524     1.007825032230
         H           -2.824958245721     2.080575328484    -0.772217977524     1.007825032230
         H           -3.162913245721    -1.941060671516     0.753622022476     1.007825032230
         H           -4.317153245721     0.174909328484    -0.023698977524     1.007825032230

  Basis Set: AUG-CC-PVTZ
    Blend: AUG-CC-PVTZ
  Basis Set: (AUG-CC-PVTZ AUX)
    Blend: AUG-CC-PVTZ-JKFIT
	 Reference Energy          =    -525.5428460219854969 [Eh]
	 Singles Energy            =      -0.0000000000000000 [Eh]
	 Same-Spin Energy          =      -0.5778130141749622 [Eh]
	 Opposite-Spin Energy      =      -1.7385719101045900 [Eh]
	 Correlation Energy        =      -2.3163849242795522 [Eh]
	 Total Energy              =    -527.8592309462650292 [Eh]

	 ================> DF-SCS-MP2 Energies <==================
	-----------------------------------------------------------
	 SCS Same-Spin Scale       =       0.3333333333333333 [-]
	 SCS Opposite-Spin Scale   =       1.2000000000000000 [-]
	 SCS Same-Spin Energy      =      -0.1926043380583207 [Eh]
	 SCS Opposite-Spin Energy  =      -2.0862862921255081 [Eh]
	 SCS Correlation Energy    =      -2.2788906301838288 [Eh]
	 SCS Total Energy          =    -527.8217366521693066 [Eh]
	-----------------------------------------------------------

  Dipole Moment: [D]
     X:    -2.7187      Y:     2.5803      Z:     0.4424     Total:     3.7742

*** Psi4 exiting successfully. Buy a developer a beer!
