                               Psi4 1.3.2 release

  ==> Input File <==

--------------------------------------------------------------------------
#psi4
#
memory 32 gb

molecule  {
0 1
  N        0.8160970    -0.2990240    -0.0443680
  N        1.3585440    -1.5263750    -0.2734470
  N       -1.0817850     0.9875590    -0.4601130
  N       -1.2686320    -1.2431920     0.4227390
  C        1.7597130     0.6951090     0.1272320
  C        2.9670138     0.0325389    -0.0029512
  C       -0.5903530    -0.1795160    -0.0248380
  C        1.4539390     2.1247050     0.4316710
  C        2.6793880    -1.2992810    -0.2463060
  C       -2.4210880     1.0928180    -0.4382200
  C       -2.6039190    -1.1175230     0.3972460
  C       -3.2414650     0.0469210    -0.0276130
  H        3.9528590     0.5149220     0.0929350
  H        1.0131890     2.6387050    -0.4244530
  H        0.7544440     2.2203260     1.2670250
  H        2.3864280     2.6245280     0.7070350
  H        3.3561510    -2.1272050    -0.4162310
  H       -2.8304840     2.0415190    -0.7796900
  H       -3.1684390    -1.9801170     0.7461500
  H       -4.3226790     0.1358530    -0.0311710
units angstrom
no_reorient  #important for SAPT in psi4, default
symmetry c1  #important for SAPT in psi4, default
}

set PROPERTIES_ORIGIN ["COM"]
properties('MP2/aug-cc-pvtz', properties = ['dipole'])
--------------------------------------------------------------------------

    Molecular point group: c1
  Charge       = 0
  Multiplicity = 1
  Basis Set: AUG-CC-PVTZ
    Blend: AUG-CC-PVTZ
  Basis Set: (AUG-CC-PVTZ AUX)
    Blend: AUG-CC-PVTZ-JKFIT

    Orbital Energies [Eh]
    ---------------------

    Doubly Occupied:

       1A    -15.642592     2A    -15.582629     3A    -15.580122
       4A    -15.578761     5A    -11.367342     6A    -11.311627
       7A    -11.309536     8A    -11.286153     9A    -11.252863
      10A    -11.251593    11A    -11.235421    12A    -11.216446
      13A     -1.386905    14A     -1.312944    15A     -1.206135
      16A     -1.130444    17A     -1.083968    18A     -1.046059
      19A     -0.959930    20A     -0.909077    21A     -0.897349
      22A     -0.800837    23A     -0.793162    24A     -0.713617
      25A     -0.708047    26A     -0.683254    27A     -0.638470
      28A     -0.632889    29A     -0.605768    30A     -0.588878
      31A     -0.585605    32A     -0.574770    33A     -0.563690
      34A     -0.553215    35A     -0.537476    36A     -0.491651
      37A     -0.454804    38A     -0.430561    39A     -0.420261
      40A     -0.408802    41A     -0.339403    42A     -0.330970

  @DF-RHF Final Energy:  -525.54234885659366

   => Energetics <=

    Nuclear Repulsion Energy =            658.6563166060258254
    One-Electron Energy =               -2019.5892788293565445
    Two-Electron Energy =                 835.3906133667371705
    Total Energy =                       -525.5423488565936623
  Basis Set: (AUG-CC-PVTZ AUX)
    Blend: AUG-CC-PVTZ-RI
    Molecular point group: c1

    Geometry (in Angstrom), charge = 0, multiplicity = 1:

       Center              X                  Y                   Z               Mass
    ------------   -----------------  -----------------  -----------------  -----------------
         N            0.824044890232    -0.259820071108    -0.036819041836    14.003074004430
         N            1.366491890232    -1.487171071108    -0.265898041836    14.003074004430
         N           -1.073837109768     1.026762928892    -0.452564041836    14.003074004430
         N           -1.260684109768    -1.203988071108     0.430287958164    14.003074004430
         C            1.767660890232     0.734312928892     0.134780958164    12.000000000000
         C            2.974961690232     0.071742828892     0.004597758164    12.000000000000
         C           -0.582405109768    -0.140312071108    -0.017289041836    12.000000000000
         C            1.461886890232     2.163908928892     0.439219958164    12.000000000000
         C            2.687335890232    -1.260077071108    -0.238757041836    12.000000000000
         C           -2.413140109768     1.132021928892    -0.430671041836    12.000000000000
         C           -2.595971109768    -1.078319071108     0.404794958164    12.000000000000
         C           -3.233517109768     0.086124928892    -0.020064041836    12.000000000000
         H            3.960806890232     0.554125928892     0.100483958164     1.007825032230
         H            1.021136890232     2.677908928892    -0.416904041836     1.007825032230
         H            0.762391890232     2.259529928892     1.274573958164     1.007825032230
         H            2.394375890232     2.663731928892     0.714583958164     1.007825032230
         H            3.364098890232    -2.088001071108    -0.408682041836     1.007825032230
         H           -2.822536109768     2.080722928892    -0.772141041836     1.007825032230
         H           -3.160491109768    -1.940913071108     0.753698958164     1.007825032230
         H           -4.314731109768     0.175056928892    -0.023622041836     1.007825032230

  Basis Set: AUG-CC-PVTZ
    Blend: AUG-CC-PVTZ
  Basis Set: (AUG-CC-PVTZ AUX)
    Blend: AUG-CC-PVTZ-JKFIT
	 Reference Energy          =    -525.5423488565936623 [Eh]
	 Singles Energy            =      -0.0000000000000000 [Eh]
	 Same-Spin Energy          =      -0.5779155201869250 [Eh]
	 Opposite-Spin Energy      =      -1.7388836472435354 [Eh]
	 Correlation Energy        =      -2.3167991674304602 [Eh]
	 Total Energy              =    -527.8591480240240799 [Eh]

	 ================> DF-SCS-MP2 Energies <==================
	-----------------------------------------------------------
	 SCS Same-Spin Scale       =       0.3333333333333333 [-]
	 SCS Opposite-Spin Scale   =       1.2000000000000000 [-]
	 SCS Same-Spin Energy      =      -0.1926385067289750 [Eh]
	 SCS Opposite-Spin Energy  =      -2.0866603766922425 [Eh]
	 SCS Correlation Energy    =      -2.2792988834212173 [Eh]
	 SCS Total Energy          =    -527.8216477400148960 [Eh]
	-----------------------------------------------------------

  Dipole Moment: [D]
     X:    -2.6028      Y:     2.5667      Z:     0.4439     Total:     3.6823

*** Psi4 exiting successfully. Buy a developer a beer!
