                               Psi4 1.3.2 release

  ==> Input File <==

--------------------------------------------------------------------------
#psi4
#
memory 32 gb

molecule  {
0 1
  N        0.8160970    -0.2990240    -0.0443680
  N        1.3585440    -1.5263750    -0.2734470
  N       -1.0787317     1.0751359    -0.4935221
  N       -1.2686320    -1.2431920     0.4227390
  C        1.7597130     0.6951090     0.1272320
  C        2.9786120     0.0532150     0.0016160
  C       -0.5903530    -0.1795160    -0.0248380
  C        1.4539390     2.1247050     0.4316710
  C        2.6793880    -1.2992810    -0.2463060
  C       -2.4210880     1.0928180    -0.4382200
  C       -2.6039190    -1.1175230     0.3972460
  C       -3.2414650     0.0469210    -0.0276130
  H        3.9528590     0.5149220     0.0929350
  H        1.0131890     2.6387050    -0.4244530
  H        0.7544440     2.2203260     1.2670250
  H        2.3864280     2.6245280     0.7070350
  H        3.3561510    -2.1272050    -0.4162310
  H       -2.8304840     2.0415190    -0.7796900
  H       -3.1684390    -1.9801170     0.7461500
  H       -4.3226790     0.1358530    -0.0311710
units angstrom
no_reorient  #important for SAPT in psi4, default
symmetry c1  #important for SAPT in psi4, default
}

set PROPERTIES_ORIGIN ["COM"]
properties('MP2/aug-cc-pvtz', properties = ['dipole'])
--------------------------------------------------------------------------

    Molecular point group: c1
  Charge       = 0
  Multiplicity = 1
  Basis Set: AUG-CC-PVTZ
    Blend: AUG-CC-PVTZ
  Basis Set: (AUG-CC-PVTZ AUX)
    Blend: AUG-CC-PVTZ-JKFIT

    Orbital Energies [Eh]
    ---------------------

    Doubly Occupied:

       1A    -15.645420     2A    -15.594053     3A    -15.583097
       4A    -15.581849     5A    -11.378116     6A    -11.311195
       7A    -11.309365     8A    -11.288582     9A    -11.256713
      10A    -11.251256    11A    -11.234856    12A    -11.219086
      13A     -1.385738    14A     -1.302861    15A     -1.203964
      16A     -1.129288    17A     -1.084717    18A     -1.042869
      19A     -0.959742    20A     -0.905534    21A     -0.892595
      22A     -0.799536    23A     -0.794072    24A     -0.708838
      25A     -0.704801    26A     -0.681520    27A     -0.636779
      28A     -0.633506    29A     -0.605575    30A     -0.588338
      31A     -0.580229    32A     -0.571069    33A     -0.565610
      34A     -0.552190    35A     -0.537673    36A     -0.497607
      37A     -0.456937    38A     -0.433533    39A     -0.423806
      40A     -0.405688    41A     -0.336439    42A     -0.333901

  @DF-RHF Final Energy:  -525.53173133968414

   => Energetics <=

    Nuclear Repulsion Energy =            656.0840064676232259
    One-Electron Energy =               -2014.4143906477329438
    Two-Electron Energy =                 832.7986528404256887
    Total Energy =                       -525.5317313396841428
  Basis Set: (AUG-CC-PVTZ AUX)
    Blend: AUG-CC-PVTZ-RI
    Molecular point group: c1

    Geometry (in Angstrom), charge = 0, multiplicity = 1:

       Center              X                  Y                   Z               Mass
    ------------   -----------------  -----------------  -----------------  -----------------
         N            0.822908334844    -0.269031128220    -0.034238851504    14.003074004430
         N            1.365355334844    -1.496382128220    -0.263317851504    14.003074004430
         N           -1.071920365156     1.105128771780    -0.483392951504    14.003074004430
         N           -1.261820665156    -1.213199128220     0.432868148496    14.003074004430
         C            1.766524334844     0.725101871780     0.137361148496    12.000000000000
         C            2.985423334844     0.083207871780     0.011745148496    12.000000000000
         C           -0.583541665156    -0.149523128220    -0.014708851504    12.000000000000
         C            1.460750334844     2.154697871780     0.441800148496    12.000000000000
         C            2.686199334844    -1.269288128220    -0.236176851504    12.000000000000
         C           -2.414276665156     1.122810871780    -0.428090851504    12.000000000000
         C           -2.597107665156    -1.087530128220     0.407375148496    12.000000000000
         C           -3.234653665156     0.076913871780    -0.017483851504    12.000000000000
         H            3.959670334844     0.544914871780     0.103064148496     1.007825032230
         H            1.020000334844     2.668697871780    -0.414323851504     1.007825032230
         H            0.761255334844     2.250318871780     1.277154148496     1.007825032230
         H            2.393239334844     2.654520871780     0.717164148496     1.007825032230
         H            3.362962334844    -2.097212128220    -0.406101851504     1.007825032230
         H           -2.823672665156     2.071511871780    -0.769560851504     1.007825032230
         H           -3.161627665156    -1.950124128220     0.756279148496     1.007825032230
         H           -4.315867665156     0.165845871780    -0.021041851504     1.007825032230

  Basis Set: AUG-CC-PVTZ
    Blend: AUG-CC-PVTZ
  Basis Set: (AUG-CC-PVTZ AUX)
    Blend: AUG-CC-PVTZ-JKFIT
	 Reference Energy          =    -525.5317313396841428 [Eh]
	 Singles Energy            =      -0.0000000000000000 [Eh]
	 Same-Spin Energy          =      -0.5783264018904551 [Eh]
	 Opposite-Spin Energy      =      -1.7416755156330237 [Eh]
	 Correlation Energy        =      -2.3200019175234790 [Eh]
	 Total Energy              =    -527.8517332572075702 [Eh]

	 ================> DF-SCS-MP2 Energies <==================
	-----------------------------------------------------------
	 SCS Same-Spin Scale       =       0.3333333333333333 [-]
	 SCS Opposite-Spin Scale   =       1.2000000000000000 [-]
	 SCS Same-Spin Energy      =      -0.1927754672968184 [Eh]
	 SCS Opposite-Spin Energy  =      -2.0900106187596283 [Eh]
	 SCS Correlation Energy    =      -2.2827860860564466 [Eh]
	 SCS Total Energy          =    -527.8145174257406325 [Eh]
	-----------------------------------------------------------

  Dipole Moment: [D]
     X:    -2.4336      Y:     2.4012      Z:     0.4923     Total:     3.4540

*** Psi4 exiting successfully. Buy a developer a beer!
