                               Psi4 1.4a3.dev225

  ==> Input File <==

--------------------------------------------------------------------------
#psi4
#
memory 32 gb

molecule  {
0 1
  N        0.8160970    -0.2990240    -0.0443680
  N        1.3585440    -1.5263750    -0.2734470
  N       -1.0817850     0.9875590    -0.4601130
  N       -1.2686320    -1.2431920     0.4227390
  C        1.7597130     0.6951090     0.1272320
  C        2.9786120     0.0532150     0.0016160
  C       -0.5903530    -0.1795160    -0.0248380
  C        1.4539390     2.1247050     0.4316710
  C        2.6687562    -1.3473369    -0.2551150
  C       -2.4210880     1.0928180    -0.4382200
  C       -2.6039190    -1.1175230     0.3972460
  C       -3.2414650     0.0469210    -0.0276130
  H        3.9528590     0.5149220     0.0929350
  H        1.0131890     2.6387050    -0.4244530
  H        0.7544440     2.2203260     1.2670250
  H        2.3864280     2.6245280     0.7070350
  H        3.3561510    -2.1272050    -0.4162310
  H       -2.8304840     2.0415190    -0.7796900
  H       -3.1684390    -1.9801170     0.7461500
  H       -4.3226790     0.1358530    -0.0311710
units angstrom
no_reorient  #important for SAPT in psi4, default
symmetry c1  #important for SAPT in psi4, default
}

set PROPERTIES_ORIGIN ["COM"]
properties('MP2/aug-cc-pvtz', properties = ['dipole'])
--------------------------------------------------------------------------

    Molecular point group: c1
  Charge       = 0
  Multiplicity = 1
  Basis Set: AUG-CC-PVTZ
    Blend: AUG-CC-PVTZ
  Basis Set: (AUG-CC-PVTZ AUX)
    Blend: AUG-CC-PVTZ-JKFIT

    Orbital Energies [Eh]
    ---------------------

    Doubly Occupied:

       1A    -15.640468     2A    -15.583481     3A    -15.581771
       4A    -15.577987     5A    -11.367136     6A    -11.311145
       7A    -11.309080     8A    -11.285910     9A    -11.256589
      10A    -11.252051    11A    -11.234264    12A    -11.220197
      13A     -1.386021    14A     -1.312236    15A     -1.205534
      16A     -1.131802    17A     -1.083298    18A     -1.042261
      19A     -0.955665    20A     -0.908863    21A     -0.895714
      22A     -0.804737    23A     -0.793760    24A     -0.713167
      25A     -0.706301    26A     -0.680647    27A     -0.639419
      28A     -0.633478    29A     -0.610171    30A     -0.592485
      31A     -0.586941    32A     -0.576945    33A     -0.561335
      34A     -0.552511    35A     -0.537048    36A     -0.491094
      37A     -0.450321    38A     -0.430089    39A     -0.419161
      40A     -0.406559    41A     -0.340479    42A     -0.330419

  @DF-RHF Final Energy:  -525.54302272548625

   => Energetics <=

    Nuclear Repulsion Energy =            657.7696738430043979
    One-Electron Energy =               -2017.8283110984214090
    Two-Electron Energy =                 834.5156145299308719
    Total Energy =                       -525.5430227254862530
  Basis Set: (AUG-CC-PVTZ AUX)
    Blend: AUG-CC-PVTZ-RI
    Molecular point group: c1

    Geometry (in Angstrom), charge = 0, multiplicity = 1:

       Center              X                  Y                   Z               Mass
    ------------   -----------------  -----------------  -----------------  -----------------
         N            0.823972444144    -0.257767546898    -0.036501055686    14.003074004430
         N            1.366419444144    -1.485118546898    -0.265580055686    14.003074004430
         N           -1.073909555856     1.028815453102    -0.452246055686    14.003074004430
         N           -1.260756555856    -1.201935546898     0.430605944314    14.003074004430
         C            1.767588444144     0.736365453102     0.135098944314    12.000000000000
         C            2.986487444144     0.094471453102     0.009482944314    12.000000000000
         C           -0.582477555856    -0.138259546898    -0.016971055686    12.000000000000
         C            1.461814444144     2.165961453102     0.439537944314    12.000000000000
         C            2.676631644144    -1.306080446898    -0.247248055686    12.000000000000
         C           -2.413212555856     1.134074453102    -0.430353055686    12.000000000000
         C           -2.596043555856    -1.076266546898     0.405112944314    12.000000000000
         C           -3.233589555856     0.088177453102    -0.019746055686    12.000000000000
         H            3.960734444144     0.556178453102     0.100801944314     1.007825032230
         H            1.021064444144     2.679961453102    -0.416586055686     1.007825032230
         H            0.762319444144     2.261582453102     1.274891944314     1.007825032230
         H            2.394303444144     2.665784453102     0.714901944314     1.007825032230
         H            3.364026444144    -2.085948546898    -0.408364055686     1.007825032230
         H           -2.822608555856     2.082775453102    -0.771823055686     1.007825032230
         H           -3.160563555856    -1.938860546898     0.754016944314     1.007825032230
         H           -4.314803555856     0.177109453102    -0.023304055686     1.007825032230

  Basis Set: AUG-CC-PVTZ
    Blend: AUG-CC-PVTZ
  Basis Set: (AUG-CC-PVTZ AUX)
    Blend: AUG-CC-PVTZ-JKFIT
	 Reference Energy          =    -525.5430227254862530 [Eh]
	 Singles Energy            =      -0.0000000000000000 [Eh]
	 Same-Spin Energy          =      -0.5764688755707378 [Eh]
	 Opposite-Spin Energy      =      -1.7374513115242818 [Eh]
	 Correlation Energy        =      -2.3139201870950195 [Eh]
	 Total Energy              =    -527.8569429125813031 [Eh]

	 ================> DF-SCS-MP2 Energies <==================
	-----------------------------------------------------------
	 SCS Same-Spin Scale       =       0.3333333333333333 [-]
	 SCS Opposite-Spin Scale   =       1.2000000000000000 [-]
	 SCS Same-Spin Energy      =      -0.1921562918569126 [Eh]
	 SCS Opposite-Spin Energy  =      -2.0849415738291381 [Eh]
	 SCS Correlation Energy    =      -2.2770978656860508 [Eh]
	 SCS Total Energy          =    -527.8201205911723264 [Eh]
	-----------------------------------------------------------

  Dipole Moment: [D]
     X:    -2.5078      Y:     2.4700      Z:     0.4233     Total:     3.5453

*** Psi4 exiting successfully. Buy a developer a beer!
