                               Psi4 1.3.2 release

  ==> Input File <==

--------------------------------------------------------------------------
#psi4
#
memory 32 gb

molecule  {
0 1
  N        0.8160970    -0.2990240    -0.0443680
  N        1.3585440    -1.5263750    -0.2734470
  N       -1.0817850     0.9875590    -0.4601130
  N       -1.2686320    -1.2431920     0.4227390
  C        1.7597130     0.6951090     0.1272320
  C        2.9786120     0.0532150     0.0016160
  C       -0.5903530    -0.1795160    -0.0248380
  C        1.4539390     2.1247050     0.4316710
  C        2.8247528    -1.3228405    -0.2494704
  C       -2.4210880     1.0928180    -0.4382200
  C       -2.6039190    -1.1175230     0.3972460
  C       -3.2414650     0.0469210    -0.0276130
  H        3.9528590     0.5149220     0.0929350
  H        1.0131890     2.6387050    -0.4244530
  H        0.7544440     2.2203260     1.2670250
  H        2.3864280     2.6245280     0.7070350
  H        3.3561510    -2.1272050    -0.4162310
  H       -2.8304840     2.0415190    -0.7796900
  H       -3.1684390    -1.9801170     0.7461500
  H       -4.3226790     0.1358530    -0.0311710
units angstrom
no_reorient  #important for SAPT in psi4, default
symmetry c1  #important for SAPT in psi4, default
}

set PROPERTIES_ORIGIN ["COM"]
properties('MP2/aug-cc-pvtz', properties = ['dipole'])
--------------------------------------------------------------------------

    Molecular point group: c1
  Charge       = 0
  Multiplicity = 1
  Basis Set: AUG-CC-PVTZ
    Blend: AUG-CC-PVTZ
  Basis Set: (AUG-CC-PVTZ AUX)
    Blend: AUG-CC-PVTZ-JKFIT

    Orbital Energies [Eh]
    ---------------------

    Doubly Occupied:

       1A    -15.651697     2A    -15.589015     3A    -15.585355
       4A    -15.581198     5A    -11.370060     6A    -11.313173
       7A    -11.310960     8A    -11.283944     9A    -11.259879
      10A    -11.255149    11A    -11.234460    12A    -11.224150
      13A     -1.378111    14A     -1.307665    15A     -1.208113
      16A     -1.114879    17A     -1.076314    18A     -1.045134
      19A     -0.952706    20A     -0.910122    21A     -0.904096
      22A     -0.818059    23A     -0.792645    24A     -0.715137
      25A     -0.704574    26A     -0.683307    27A     -0.639764
      28A     -0.633216    29A     -0.610731    30A     -0.596725
      31A     -0.588059    32A     -0.579243    33A     -0.553227
      34A     -0.546776    35A     -0.546439    36A     -0.493523
      37A     -0.442691    38A     -0.431508    39A     -0.418847
      40A     -0.404248    41A     -0.341425    42A     -0.314000

  @DF-RHF Final Energy:  -525.50445889721982

   => Energetics <=

    Nuclear Repulsion Energy =            655.1167265213689461
    One-Electron Energy =               -2012.4217194902332722
    Two-Electron Energy =                 831.8005340716445062
    Total Energy =                       -525.5044588972198198
  Basis Set: (AUG-CC-PVTZ AUX)
    Blend: AUG-CC-PVTZ-RI
    Molecular point group: c1

    Geometry (in Angstrom), charge = 0, multiplicity = 1:

       Center              X                  Y                   Z               Mass
    ------------   -----------------  -----------------  -----------------  -----------------
         N            0.812278173252    -0.259603917290    -0.036924202610    14.003074004430
         N            1.354725173252    -1.486954917290    -0.266003202610    14.003074004430
         N           -1.085603826748     1.026979082710    -0.452669202610    14.003074004430
         N           -1.272450826748    -1.203771917290     0.430182797390    14.003074004430
         C            1.755894173252     0.734529082710     0.134675797390    12.000000000000
         C            2.974793173252     0.092635082710     0.009059797390    12.000000000000
         C           -0.594171826748    -0.140095917290    -0.017394202610    12.000000000000
         C            1.450120173252     2.164125082710     0.439114797390    12.000000000000
         C            2.820933973252    -1.283420417290    -0.242026602610    12.000000000000
         C           -2.424906826748     1.132238082710    -0.430776202610    12.000000000000
         C           -2.607737826748    -1.078102917290     0.404689797390    12.000000000000
         C           -3.245283826748     0.086341082710    -0.020169202610    12.000000000000
         H            3.949040173252     0.554342082710     0.100378797390     1.007825032230
         H            1.009370173252     2.678125082710    -0.417009202610     1.007825032230
         H            0.750625173252     2.259746082710     1.274468797390     1.007825032230
         H            2.382609173252     2.663948082710     0.714478797390     1.007825032230
         H            3.352332173252    -2.087784917290    -0.408787202610     1.007825032230
         H           -2.834302826748     2.080939082710    -0.772246202610     1.007825032230
         H           -3.172257826748    -1.940696917290     0.753593797390     1.007825032230
         H           -4.326497826748     0.175273082710    -0.023727202610     1.007825032230

  Basis Set: AUG-CC-PVTZ
    Blend: AUG-CC-PVTZ
  Basis Set: (AUG-CC-PVTZ AUX)
    Blend: AUG-CC-PVTZ-JKFIT
	 Reference Energy          =    -525.5044588972198198 [Eh]
	 Singles Energy            =      -0.0000000000000000 [Eh]
	 Same-Spin Energy          =      -0.5819640604701934 [Eh]
	 Opposite-Spin Energy      =      -1.7476127963342338 [Eh]
	 Correlation Energy        =      -2.3295768568044273 [Eh]
	 Total Energy              =    -527.8340357540242849 [Eh]

	 ================> DF-SCS-MP2 Energies <==================
	-----------------------------------------------------------
	 SCS Same-Spin Scale       =       0.3333333333333333 [-]
	 SCS Opposite-Spin Scale   =       1.2000000000000000 [-]
	 SCS Same-Spin Energy      =      -0.1939880201567311 [Eh]
	 SCS Opposite-Spin Energy  =      -2.0971353556010803 [Eh]
	 SCS Correlation Energy    =      -2.2911233757578113 [Eh]
	 SCS Total Energy          =    -527.7955822729776401 [Eh]
	-----------------------------------------------------------

  Dipole Moment: [D]
     X:    -2.8051      Y:     2.5859      Z:     0.4480     Total:     3.8414

*** Psi4 exiting successfully. Buy a developer a beer!
