                               Psi4 1.4a3.dev225

  ==> Input File <==

--------------------------------------------------------------------------
#psi4
#
memory 32 gb

molecule  {
0 1
  N        0.8160970    -0.2990240    -0.0443680
  N        1.3585440    -1.5263750    -0.2734470
  N       -1.0817850     0.9875590    -0.4601130
  N       -1.2686320    -1.2431920     0.4227390
  C        1.7597130     0.6951090     0.1272320
  C        2.9786120     0.0532150     0.0016160
  C       -0.5720029    -0.2230947    -0.0085848
  C        1.4539390     2.1247050     0.4316710
  C        2.6793880    -1.2992810    -0.2463060
  C       -2.4210880     1.0928180    -0.4382200
  C       -2.6039190    -1.1175230     0.3972460
  C       -3.2414650     0.0469210    -0.0276130
  H        3.9528590     0.5149220     0.0929350
  H        1.0131890     2.6387050    -0.4244530
  H        0.7544440     2.2203260     1.2670250
  H        2.3864280     2.6245280     0.7070350
  H        3.3561510    -2.1272050    -0.4162310
  H       -2.8304840     2.0415190    -0.7796900
  H       -3.1684390    -1.9801170     0.7461500
  H       -4.3226790     0.1358530    -0.0311710
units angstrom
no_reorient  #important for SAPT in psi4, default
symmetry c1  #important for SAPT in psi4, default
}

set PROPERTIES_ORIGIN ["COM"]
properties('MP2/aug-cc-pvtz', properties = ['dipole'])
--------------------------------------------------------------------------

    Molecular point group: c1
  Charge       = 0
  Multiplicity = 1
  Basis Set: AUG-CC-PVTZ
    Blend: AUG-CC-PVTZ
  Basis Set: (AUG-CC-PVTZ AUX)
    Blend: AUG-CC-PVTZ-JKFIT

    Orbital Energies [Eh]
    ---------------------

    Doubly Occupied:

       1A    -15.644012     2A    -15.582824     3A    -15.582096
       4A    -15.574990     5A    -11.367020     6A    -11.308982
       7A    -11.308784     8A    -11.289744     9A    -11.256668
      10A    -11.250754    11A    -11.235150    12A    -11.219668
      13A     -1.390475    14A     -1.308838    15A     -1.200703
      16A     -1.132548    17A     -1.086143    18A     -1.045275
      19A     -0.959929    20A     -0.907950    21A     -0.895619
      22A     -0.800624    23A     -0.799513    24A     -0.709990
      25A     -0.708798    26A     -0.682938    27A     -0.639885
      28A     -0.633123    29A     -0.606486    30A     -0.591641
      31A     -0.586106    32A     -0.573782    33A     -0.565150
      34A     -0.552340    35A     -0.537127    36A     -0.490567
      37A     -0.456262    38A     -0.429333    39A     -0.415667
      40A     -0.407602    41A     -0.337232    42A     -0.334341

  @DF-RHF Final Energy:  -525.54031820206285

   => Energetics <=

    Nuclear Repulsion Energy =            658.2678349115932406
    One-Electron Energy =               -2018.8029495124026198
    Two-Electron Energy =                 834.9947963987464163
    Total Energy =                       -525.5403182020628492
  Basis Set: (AUG-CC-PVTZ AUX)
    Blend: AUG-CC-PVTZ-RI
    Molecular point group: c1

    Geometry (in Angstrom), charge = 0, multiplicity = 1:

       Center              X                  Y                   Z               Mass
    ------------   -----------------  -----------------  -----------------  -----------------
         N            0.821799818654    -0.258103179788    -0.038379841223    14.003074004430
         N            1.364246818654    -1.485454179788    -0.267458841223    14.003074004430
         N           -1.076082181346     1.028479820212    -0.454124841223    14.003074004430
         N           -1.262929181346    -1.202271179788     0.428727158777    14.003074004430
         C            1.765415818654     0.736029820212     0.133220158777    12.000000000000
         C            2.984314818654     0.094135820212     0.007604158777    12.000000000000
         C           -0.566300081346    -0.182173879788    -0.002596641223    12.000000000000
         C            1.459641818654     2.165625820212     0.437659158777    12.000000000000
         C            2.685090818654    -1.258360179788    -0.240317841223    12.000000000000
         C           -2.415385181346     1.133738820212    -0.432231841223    12.000000000000
         C           -2.598216181346    -1.076602179788     0.403234158777    12.000000000000
         C           -3.235762181346     0.087841820212    -0.021624841223    12.000000000000
         H            3.958561818654     0.555842820212     0.098923158777     1.007825032230
         H            1.018891818654     2.679625820212    -0.418464841223     1.007825032230
         H            0.760146818654     2.261246820212     1.273013158777     1.007825032230
         H            2.392130818654     2.665448820212     0.713023158777     1.007825032230
         H            3.361853818654    -2.086284179788    -0.410242841223     1.007825032230
         H           -2.824781181346     2.082439820212    -0.773701841223     1.007825032230
         H           -3.162736181346    -1.939196179788     0.752138158777     1.007825032230
         H           -4.316976181346     0.176773820212    -0.025182841223     1.007825032230

  Basis Set: AUG-CC-PVTZ
    Blend: AUG-CC-PVTZ
  Basis Set: (AUG-CC-PVTZ AUX)
    Blend: AUG-CC-PVTZ-JKFIT
	 Reference Energy          =    -525.5403182020628492 [Eh]
	 Singles Energy            =      -0.0000000000000000 [Eh]
	 Same-Spin Energy          =      -0.5776388701956529 [Eh]
	 Opposite-Spin Energy      =      -1.7390396216310797 [Eh]
	 Correlation Energy        =      -2.3166784918267327 [Eh]
	 Total Energy              =    -527.8569966938895277 [Eh]

	 ================> DF-SCS-MP2 Energies <==================
	-----------------------------------------------------------
	 SCS Same-Spin Scale       =       0.3333333333333333 [-]
	 SCS Opposite-Spin Scale   =       1.2000000000000000 [-]
	 SCS Same-Spin Energy      =      -0.1925462900652176 [Eh]
	 SCS Opposite-Spin Energy  =      -2.0868475459572955 [Eh]
	 SCS Correlation Energy    =      -2.2793938360225132 [Eh]
	 SCS Total Energy          =    -527.8197120380854130 [Eh]
	-----------------------------------------------------------

  Dipole Moment: [D]
     X:    -2.3534      Y:     2.5002      Z:     0.4645     Total:     3.4648

*** Psi4 exiting successfully. Buy a developer a beer!
