                               Psi4 1.3.2 release

  ==> Input File <==

--------------------------------------------------------------------------
#psi4
#
memory 32 gb

molecule  {
0 1
  N        0.8160970    -0.2990240    -0.0443680
  N        1.3585440    -1.5263750    -0.2734470
  N       -1.0817850     0.9875590    -0.4601130
  N       -1.2686320    -1.2431920     0.4227390
  C        1.7597130     0.6951090     0.1272320
  C        2.9786120     0.0532150     0.0016160
  C       -0.4629892    -0.1273549    -0.0513436
  C        1.4539390     2.1247050     0.4316710
  C        2.6793880    -1.2992810    -0.2463060
  C       -2.4210880     1.0928180    -0.4382200
  C       -2.6039190    -1.1175230     0.3972460
  C       -3.2414650     0.0469210    -0.0276130
  H        3.9528590     0.5149220     0.0929350
  H        1.0131890     2.6387050    -0.4244530
  H        0.7544440     2.2203260     1.2670250
  H        2.3864280     2.6245280     0.7070350
  H        3.3561510    -2.1272050    -0.4162310
  H       -2.8304840     2.0415190    -0.7796900
  H       -3.1684390    -1.9801170     0.7461500
  H       -4.3226790     0.1358530    -0.0311710
units angstrom
no_reorient  #important for SAPT in psi4, default
symmetry c1  #important for SAPT in psi4, default
}

set PROPERTIES_ORIGIN ["COM"]
properties('MP2/aug-cc-pvtz', properties = ['dipole'])
--------------------------------------------------------------------------

    Molecular point group: c1
  Charge       = 0
  Multiplicity = 1
  Basis Set: AUG-CC-PVTZ
    Blend: AUG-CC-PVTZ
  Basis Set: (AUG-CC-PVTZ AUX)
    Blend: AUG-CC-PVTZ-JKFIT

    Orbital Energies [Eh]
    ---------------------

    Doubly Occupied:

       1A    -15.653095     2A    -15.594126     3A    -15.570964
       4A    -15.570721     5A    -11.367891     6A    -11.301909
       7A    -11.299689     8A    -11.295957     9A    -11.270141
      10A    -11.241410    11A    -11.241125    12A    -11.230284
      13A     -1.413732    14A     -1.289498    15A     -1.176220
      16A     -1.158630    17A     -1.095112    18A     -1.041390
      19A     -0.969179    20A     -0.906751    21A     -0.890922
      22A     -0.815341    23A     -0.802692    24A     -0.714826
      25A     -0.700769    26A     -0.681727    27A     -0.648688
      28A     -0.636543    29A     -0.608164    30A     -0.598477
      31A     -0.583333    32A     -0.573561    33A     -0.572725
      34A     -0.548255    35A     -0.544633    36A     -0.481985
      37A     -0.463486    38A     -0.423399    39A     -0.410661
      40A     -0.391819    41A     -0.344746    42A     -0.328294

  @DF-RHF Final Energy:  -525.51576344496823

   => Energetics <=

    Nuclear Repulsion Energy =            658.7350461139559457
    One-Electron Energy =               -2019.5958718931258318
    Two-Electron Energy =                 835.3450623342015433
    Total Energy =                       -525.5157634449682291
  Basis Set: (AUG-CC-PVTZ AUX)
    Blend: AUG-CC-PVTZ-RI
    Molecular point group: c1

    Geometry (in Angstrom), charge = 0, multiplicity = 1:

       Center              X                  Y                   Z               Mass
    ------------   -----------------  -----------------  -----------------  -----------------
         N            0.813627616576    -0.265280305163    -0.035174431681    14.003074004430
         N            1.356074616576    -1.492631305163    -0.264253431681    14.003074004430
         N           -1.084254383424     1.021302694837    -0.450919431681    14.003074004430
         N           -1.271101383424    -1.209448305163     0.431932568319    14.003074004430
         C            1.757243616576     0.728852694837     0.136425568319    12.000000000000
         C            2.976142616576     0.086958694837     0.010809568319    12.000000000000
         C           -0.465458583424    -0.093611205163    -0.042150031681    12.000000000000
         C            1.451469616576     2.158448694837     0.440864568319    12.000000000000
         C            2.676918616576    -1.265537305163    -0.237112431681    12.000000000000
         C           -2.423557383424     1.126561694837    -0.429026431681    12.000000000000
         C           -2.606388383424    -1.083779305163     0.406439568319    12.000000000000
         C           -3.243934383424     0.080664694837    -0.018419431681    12.000000000000
         H            3.950389616576     0.548665694837     0.102128568319     1.007825032230
         H            1.010719616576     2.672448694837    -0.415259431681     1.007825032230
         H            0.751974616576     2.254069694837     1.276218568319     1.007825032230
         H            2.383958616576     2.658271694837     0.716228568319     1.007825032230
         H            3.353681616576    -2.093461305163    -0.407037431681     1.007825032230
         H           -2.832953383424     2.075262694837    -0.770496431681     1.007825032230
         H           -3.170908383424    -1.946373305163     0.755343568319     1.007825032230
         H           -4.325148383424     0.169596694837    -0.021977431681     1.007825032230

  Basis Set: AUG-CC-PVTZ
    Blend: AUG-CC-PVTZ
  Basis Set: (AUG-CC-PVTZ AUX)
    Blend: AUG-CC-PVTZ-JKFIT
	 Reference Energy          =    -525.5157634449682291 [Eh]
	 Singles Energy            =      -0.0000000000000000 [Eh]
	 Same-Spin Energy          =      -0.5785413556240803 [Eh]
	 Opposite-Spin Energy      =      -1.7413309672386719 [Eh]
	 Correlation Energy        =      -2.3198723228627522 [Eh]
	 Total Energy              =    -527.8356357678310360 [Eh]

	 ================> DF-SCS-MP2 Energies <==================
	-----------------------------------------------------------
	 SCS Same-Spin Scale       =       0.3333333333333333 [-]
	 SCS Opposite-Spin Scale   =       1.2000000000000000 [-]
	 SCS Same-Spin Energy      =      -0.1928471185413601 [Eh]
	 SCS Opposite-Spin Energy  =      -2.0895971606864063 [Eh]
	 SCS Correlation Energy    =      -2.2824442792277666 [Eh]
	 SCS Total Energy          =    -527.7982077241960042 [Eh]
	-----------------------------------------------------------

  Dipole Moment: [D]
     X:    -1.1987      Y:     2.5445      Z:     0.3888     Total:     2.8395

*** Psi4 exiting successfully. Buy a developer a beer!
