                               Psi4 1.3.2 release

  ==> Input File <==

--------------------------------------------------------------------------
#psi4
#
memory 32 gb

molecule  {
0 1
  N        0.7975224    -0.4351600     0.0099932
  N        1.3585440    -1.5263750    -0.2734470
  N       -1.0817850     0.9875590    -0.4601130
  N       -1.2686320    -1.2431920     0.4227390
  C        1.7597130     0.6951090     0.1272320
  C        2.9786120     0.0532150     0.0016160
  C       -0.5903530    -0.1795160    -0.0248380
  C        1.4539390     2.1247050     0.4316710
  C        2.6793880    -1.2992810    -0.2463060
  C       -2.4210880     1.0928180    -0.4382200
  C       -2.6039190    -1.1175230     0.3972460
  C       -3.2414650     0.0469210    -0.0276130
  H        3.9528590     0.5149220     0.0929350
  H        1.0131890     2.6387050    -0.4244530
  H        0.7544440     2.2203260     1.2670250
  H        2.3864280     2.6245280     0.7070350
  H        3.3561510    -2.1272050    -0.4162310
  H       -2.8304840     2.0415190    -0.7796900
  H       -3.1684390    -1.9801170     0.7461500
  H       -4.3226790     0.1358530    -0.0311710
units angstrom
no_reorient  #important for SAPT in psi4, default
symmetry c1  #important for SAPT in psi4, default
}

set PROPERTIES_ORIGIN ["COM"]
properties('MP2/aug-cc-pvtz', properties = ['dipole'])
--------------------------------------------------------------------------

    Molecular point group: c1
  Charge       = 0
  Multiplicity = 1
  Basis Set: AUG-CC-PVTZ
    Blend: AUG-CC-PVTZ
  Basis Set: (AUG-CC-PVTZ AUX)
    Blend: AUG-CC-PVTZ-JKFIT

    Orbital Energies [Eh]
    ---------------------

    Doubly Occupied:

       1A    -15.647487     2A    -15.586352     3A    -15.584864
       4A    -15.576751     5A    -11.367440     6A    -11.313749
       7A    -11.308680     8A    -11.283288     9A    -11.253548
      10A    -11.246709    11A    -11.234019    12A    -11.223315
      13A     -1.411760    14A     -1.319301    15A     -1.206788
      16A     -1.126035    17A     -1.079886    18A     -1.045969
      19A     -0.958819    20A     -0.910298    21A     -0.893683
      22A     -0.805582    23A     -0.790286    24A     -0.712392
      25A     -0.711549    26A     -0.683265    27A     -0.642523
      28A     -0.634417    29A     -0.607638    30A     -0.599807
      31A     -0.583219    32A     -0.575423    33A     -0.562505
      34A     -0.559550    35A     -0.533168    36A     -0.491263
      37A     -0.448179    38A     -0.431487    39A     -0.420439
      40A     -0.406452    41A     -0.349030    42A     -0.313572

  @DF-RHF Final Energy:  -525.52193022312997

   => Energetics <=

    Nuclear Repulsion Energy =            658.1817991536894397
    One-Electron Energy =               -2018.5264853605497137
    Two-Electron Energy =                 834.8227559837304170
    Total Energy =                       -525.5219302231299707
  Basis Set: (AUG-CC-PVTZ AUX)
    Blend: AUG-CC-PVTZ-RI
    Molecular point group: c1

    Geometry (in Angstrom), charge = 0, multiplicity = 1:

       Center              X                  Y                   Z               Mass
    ------------   -----------------  -----------------  -----------------  -----------------
         N            0.806225705986    -0.385597112138     0.012444355039    14.003074004430
         N            1.367247305986    -1.476812112138    -0.270995844961    14.003074004430
         N           -1.073081694014     1.037121887862    -0.457661844961    14.003074004430
         N           -1.259928694014    -1.193629112138     0.425190155039    14.003074004430
         C            1.768416305986     0.744671887862     0.129683155039    12.000000000000
         C            2.987315305986     0.102777887862     0.004067155039    12.000000000000
         C           -0.581649694014    -0.129953112138    -0.022386844961    12.000000000000
         C            1.462642305986     2.174267887862     0.434122155039    12.000000000000
         C            2.688091305986    -1.249718112138    -0.243854844961    12.000000000000
         C           -2.412384694014     1.142380887862    -0.435768844961    12.000000000000
         C           -2.595215694014    -1.067960112138     0.399697155039    12.000000000000
         C           -3.232761694014     0.096483887862    -0.025161844961    12.000000000000
         H            3.961562305986     0.564484887862     0.095386155039     1.007825032230
         H            1.021892305986     2.688267887862    -0.422001844961     1.007825032230
         H            0.763147305986     2.269888887862     1.269476155039     1.007825032230
         H            2.395131305986     2.674090887862     0.709486155039     1.007825032230
         H            3.364854305986    -2.077642112138    -0.413779844961     1.007825032230
         H           -2.821780694014     2.091081887862    -0.777238844961     1.007825032230
         H           -3.159735694014    -1.930554112138     0.748601155039     1.007825032230
         H           -4.313975694014     0.185415887862    -0.028719844961     1.007825032230

  Basis Set: AUG-CC-PVTZ
    Blend: AUG-CC-PVTZ
  Basis Set: (AUG-CC-PVTZ AUX)
    Blend: AUG-CC-PVTZ-JKFIT
	 Reference Energy          =    -525.5219302231299707 [Eh]
	 Singles Energy            =      -0.0000000000000000 [Eh]
	 Same-Spin Energy          =      -0.5790784608145209 [Eh]
	 Opposite-Spin Energy      =      -1.7401865354640491 [Eh]
	 Correlation Energy        =      -2.3192649962785699 [Eh]
	 Total Energy              =    -527.8411952194085188 [Eh]

	 ================> DF-SCS-MP2 Energies <==================
	-----------------------------------------------------------
	 SCS Same-Spin Scale       =       0.3333333333333333 [-]
	 SCS Opposite-Spin Scale   =       1.2000000000000000 [-]
	 SCS Same-Spin Energy      =      -0.1930261536048403 [Eh]
	 SCS Opposite-Spin Energy  =      -2.0882238425568587 [Eh]
	 SCS Correlation Energy    =      -2.2812499961616988 [Eh]
	 SCS Total Energy          =    -527.8031802192916757 [Eh]
	-----------------------------------------------------------

  Dipole Moment: [D]
     X:    -2.6065      Y:     2.6035      Z:     0.4304     Total:     3.7091

*** Psi4 exiting successfully. Buy a developer a beer!
