                               Psi4 1.4a3.dev225

  ==> Input File <==

--------------------------------------------------------------------------
#psi4
#
memory 32 gb

molecule  {
0 1
  N        0.8160970    -0.2990240    -0.0443680
  N        1.3585440    -1.5263750    -0.2734470
  N       -1.0817850     0.9875590    -0.4601130
  N       -1.2686320    -1.2431920     0.4227390
  C        1.7597130     0.6951090     0.1272320
  C        2.9786120     0.0532150     0.0016160
  C       -0.5903530    -0.1795160    -0.0248380
  C        1.4539390     2.1247050     0.4316710
  C        2.6793880    -1.2992810    -0.2463060
  C       -2.4210880     1.0928180    -0.4382200
  C       -2.6039190    -1.1175230     0.3972460
  C       -3.2296714     0.0619566    -0.0335158
  H        3.9528590     0.5149220     0.0929350
  H        1.0131890     2.6387050    -0.4244530
  H        0.7544440     2.2203260     1.2670250
  H        2.3864280     2.6245280     0.7070350
  H        3.3561510    -2.1272050    -0.4162310
  H       -2.8304840     2.0415190    -0.7796900
  H       -3.1684390    -1.9801170     0.7461500
  H       -4.3226790     0.1358530    -0.0311710
units angstrom
no_reorient  #important for SAPT in psi4, default
symmetry c1  #important for SAPT in psi4, default
}

set PROPERTIES_ORIGIN ["COM"]
properties('MP2/aug-cc-pvtz', properties = ['dipole'])
--------------------------------------------------------------------------

    Molecular point group: c1
  Charge       = 0
  Multiplicity = 1
  Basis Set: AUG-CC-PVTZ
    Blend: AUG-CC-PVTZ
  Basis Set: (AUG-CC-PVTZ AUX)
    Blend: AUG-CC-PVTZ-JKFIT

    Orbital Energies [Eh]
    ---------------------

    Doubly Occupied:

       1A    -15.641976     2A    -15.581412     3A    -15.581378
       4A    -15.579375     5A    -11.367171     6A    -11.311609
       7A    -11.307982     8A    -11.286606     9A    -11.254438
      10A    -11.252399    11A    -11.234496    12A    -11.217186
      13A     -1.386260    14A     -1.312898    15A     -1.206154
      16A     -1.129884    17A     -1.084126    18A     -1.045477
      19A     -0.958604    20A     -0.910010    21A     -0.895984
      22A     -0.799957    23A     -0.795457    24A     -0.713244
      25A     -0.707976    26A     -0.681483    27A     -0.638444
      28A     -0.631169    29A     -0.607876    30A     -0.589706
      31A     -0.587319    32A     -0.575344    33A     -0.563715
      34A     -0.552726    35A     -0.535689    36A     -0.490488
      37A     -0.455098    38A     -0.430524    39A     -0.420414
      40A     -0.408445    41A     -0.338254    42A     -0.332273

  @DF-RHF Final Energy:  -525.54319141409314

   => Energetics <=

    Nuclear Repulsion Energy =            658.5171716627750129
    One-Electron Energy =               -2019.3186696063817180
    Two-Electron Energy =                 835.2583065295134475
    Total Energy =                       -525.5431914140931440
  Basis Set: (AUG-CC-PVTZ AUX)
    Blend: AUG-CC-PVTZ-RI
    Molecular point group: c1

    Geometry (in Angstrom), charge = 0, multiplicity = 1:

       Center              X                  Y                   Z               Mass
    ------------   -----------------  -----------------  -----------------  -----------------
         N            0.822291326078    -0.262497195442    -0.036718918704    14.003074004430
         N            1.364738326078    -1.489848195442    -0.265797918704    14.003074004430
         N           -1.075590673922     1.024085804558    -0.452463918704    14.003074004430
         N           -1.262437673922    -1.206665195442     0.430388081296    14.003074004430
         C            1.765907326078     0.731635804558     0.134881081296    12.000000000000
         C            2.984806326078     0.089741804558     0.009265081296    12.000000000000
         C           -0.584158673922    -0.142989195442    -0.017188918704    12.000000000000
         C            1.460133326078     2.161231804558     0.439320081296    12.000000000000
         C            2.685582326078    -1.262754195442    -0.238656918704    12.000000000000
         C           -2.414893673922     1.129344804558    -0.430570918704    12.000000000000
         C           -2.597724673922    -1.080996195442     0.404895081296    12.000000000000
         C           -3.223477073922     0.098483404558    -0.025866718704    12.000000000000
         H            3.959053326078     0.551448804558     0.100584081296     1.007825032230
         H            1.019383326078     2.675231804558    -0.416803918704     1.007825032230
         H            0.760638326078     2.256852804558     1.274674081296     1.007825032230
         H            2.392622326078     2.661054804558     0.714684081296     1.007825032230
         H            3.362345326078    -2.090678195442    -0.408581918704     1.007825032230
         H           -2.824289673922     2.078045804558    -0.772040918704     1.007825032230
         H           -3.162244673922    -1.943590195442     0.753799081296     1.007825032230
         H           -4.316484673922     0.172379804558    -0.023521918704     1.007825032230

  Basis Set: AUG-CC-PVTZ
    Blend: AUG-CC-PVTZ
  Basis Set: (AUG-CC-PVTZ AUX)
    Blend: AUG-CC-PVTZ-JKFIT
	 Reference Energy          =    -525.5431914140931440 [Eh]
	 Singles Energy            =      -0.0000000000000000 [Eh]
	 Same-Spin Energy          =      -0.5775819768708790 [Eh]
	 Opposite-Spin Energy      =      -1.7386238701257164 [Eh]
	 Correlation Energy        =      -2.3162058469965956 [Eh]
	 Total Energy              =    -527.8593972610897254 [Eh]

	 ================> DF-SCS-MP2 Energies <==================
	-----------------------------------------------------------
	 SCS Same-Spin Scale       =       0.3333333333333333 [-]
	 SCS Opposite-Spin Scale   =       1.2000000000000000 [-]
	 SCS Same-Spin Energy      =      -0.1925273256236263 [Eh]
	 SCS Opposite-Spin Energy  =      -2.0863486441508594 [Eh]
	 SCS Correlation Energy    =      -2.2788759697744858 [Eh]
	 SCS Total Energy          =    -527.8220673838676475 [Eh]
	-----------------------------------------------------------

  Dipole Moment: [D]
     X:    -2.5851      Y:     2.5258      Z:     0.4514     Total:     3.6423

*** Psi4 exiting successfully. Buy a developer a beer!
