                               Psi4 1.3.2 release

  ==> Input File <==

--------------------------------------------------------------------------
#psi4
#
memory 32 gb

molecule  {
0 1
  N        0.8160970    -0.2990240    -0.0443680
  N        1.3585440    -1.5263750    -0.2734470
  N       -1.0817850     0.9875590    -0.4601130
  N       -1.2686320    -1.2431920     0.4227390
  C        1.7597130     0.6951090     0.1272320
  C        2.9035812    -0.0676904    -0.0251647
  C       -0.5903530    -0.1795160    -0.0248380
  C        1.4539390     2.1247050     0.4316710
  C        2.6793880    -1.2992810    -0.2463060
  C       -2.4210880     1.0928180    -0.4382200
  C       -2.6039190    -1.1175230     0.3972460
  C       -3.2414650     0.0469210    -0.0276130
  H        3.9528590     0.5149220     0.0929350
  H        1.0131890     2.6387050    -0.4244530
  H        0.7544440     2.2203260     1.2670250
  H        2.3864280     2.6245280     0.7070350
  H        3.3561510    -2.1272050    -0.4162310
  H       -2.8304840     2.0415190    -0.7796900
  H       -3.1684390    -1.9801170     0.7461500
  H       -4.3226790     0.1358530    -0.0311710
units angstrom
no_reorient  #important for SAPT in psi4, default
symmetry c1  #important for SAPT in psi4, default
}

set PROPERTIES_ORIGIN ["COM"]
properties('MP2/aug-cc-pvtz', properties = ['dipole'])
--------------------------------------------------------------------------

    Molecular point group: c1
  Charge       = 0
  Multiplicity = 1
  Basis Set: AUG-CC-PVTZ
    Blend: AUG-CC-PVTZ
  Basis Set: (AUG-CC-PVTZ AUX)
    Blend: AUG-CC-PVTZ-JKFIT

    Orbital Energies [Eh]
    ---------------------

    Doubly Occupied:

       1A    -15.645982     2A    -15.584020     3A    -15.579657
       4A    -15.573910     5A    -11.367428     6A    -11.312399
       7A    -11.310071     8A    -11.284291     9A    -11.254045
      10A    -11.239124    11A    -11.235724    12A    -11.212547
      13A     -1.391509    14A     -1.315752    15A     -1.206973
      16A     -1.138531    17A     -1.082768    18A     -1.052295
      19A     -0.965227    20A     -0.909520    21A     -0.903331
      22A     -0.807846    23A     -0.782363    24A     -0.718053
      25A     -0.710307    26A     -0.685842    27A     -0.640965
      28A     -0.632868    29A     -0.603121    30A     -0.590680
      31A     -0.582659    32A     -0.578788    33A     -0.565479
      34A     -0.557344    35A     -0.520979    36A     -0.491014
      37A     -0.450644    38A     -0.431048    39A     -0.420476
      40A     -0.416137    41A     -0.347420    42A     -0.323808

  @DF-RHF Final Energy:  -525.50883808763865

   => Energetics <=

    Nuclear Repulsion Energy =            660.7780326427770206
    One-Electron Energy =               -2023.7278484410985584
    Two-Electron Energy =                 837.4409777106830006
    Total Energy =                       -525.5088380876386509
  Basis Set: (AUG-CC-PVTZ AUX)
    Blend: AUG-CC-PVTZ-RI
    Molecular point group: c1

    Geometry (in Angstrom), charge = 0, multiplicity = 1:

       Center              X                  Y                   Z               Mass
    ------------   -----------------  -----------------  -----------------  -----------------
         N            0.828800109306    -0.252306390775    -0.035153808834    14.003074004430
         N            1.371247109306    -1.479657390775    -0.264232808834    14.003074004430
         N           -1.069081890694     1.034276609225    -0.450898808834    14.003074004430
         N           -1.255928890694    -1.196474390775     0.431953191166    14.003074004430
         C            1.772416109306     0.741826609225     0.136446191166    12.000000000000
         C            2.916284309306    -0.020972790775    -0.015950508834    12.000000000000
         C           -0.577649890694    -0.132798390775    -0.015623808834    12.000000000000
         C            1.466642109306     2.171422609225     0.440885191166    12.000000000000
         C            2.692091109306    -1.252563390775    -0.237091808834    12.000000000000
         C           -2.408384890694     1.139535609225    -0.429005808834    12.000000000000
         C           -2.591215890694    -1.070805390775     0.406460191166    12.000000000000
         C           -3.228761890694     0.093638609225    -0.018398808834    12.000000000000
         H            3.965562109306     0.561639609225     0.102149191166     1.007825032230
         H            1.025892109306     2.685422609225    -0.415238808834     1.007825032230
         H            0.767147109306     2.267043609225     1.276239191166     1.007825032230
         H            2.399131109306     2.671245609225     0.716249191166     1.007825032230
         H            3.368854109306    -2.080487390775    -0.407016808834     1.007825032230
         H           -2.817780890694     2.088236609225    -0.770475808834     1.007825032230
         H           -3.155735890694    -1.933399390775     0.755364191166     1.007825032230
         H           -4.309975890694     0.182570609225    -0.021956808834     1.007825032230

  Basis Set: AUG-CC-PVTZ
    Blend: AUG-CC-PVTZ
  Basis Set: (AUG-CC-PVTZ AUX)
    Blend: AUG-CC-PVTZ-JKFIT
	 Reference Energy          =    -525.5088380876386509 [Eh]
	 Singles Energy            =      -0.0000000000000000 [Eh]
	 Same-Spin Energy          =      -0.5801760195054873 [Eh]
	 Opposite-Spin Energy      =      -1.7414570817664772 [Eh]
	 Correlation Energy        =      -2.3216331012719644 [Eh]
	 Total Energy              =    -527.8304711889105647 [Eh]

	 ================> DF-SCS-MP2 Energies <==================
	-----------------------------------------------------------
	 SCS Same-Spin Scale       =       0.3333333333333333 [-]
	 SCS Opposite-Spin Scale   =       1.2000000000000000 [-]
	 SCS Same-Spin Energy      =      -0.1933920065018291 [Eh]
	 SCS Opposite-Spin Energy  =      -2.0897484981197727 [Eh]
	 SCS Correlation Energy    =      -2.2831405046216018 [Eh]
	 SCS Total Energy          =    -527.7919785922603069 [Eh]
	-----------------------------------------------------------

  Dipole Moment: [D]
     X:    -2.7699      Y:     2.5751      Z:     0.4537     Total:     3.8092

*** Psi4 exiting successfully. Buy a developer a beer!
