                               Psi4 1.3.2 release

  ==> Input File <==

--------------------------------------------------------------------------
#psi4
#
memory 32 gb

molecule  {
0 1
  N        0.8160970    -0.2990240    -0.0443680
  N        1.3585440    -1.5263750    -0.2734470
  N       -1.0817850     0.9875590    -0.4601130
  N       -1.2686320    -1.2431920     0.4227390
  C        1.7597130     0.6951090     0.1272320
  C        2.9786120     0.0532150     0.0016160
  C       -0.5903530    -0.1795160    -0.0248380
  C        1.4539390     2.1247050     0.4316710
  C        2.6793880    -1.2992810    -0.2463060
  C       -2.4210880     1.0928180    -0.4382200
  C       -2.6039190    -1.1175230     0.3972460
  C       -3.3674610    -0.0202972     0.0022789
  H        3.9528590     0.5149220     0.0929350
  H        1.0131890     2.6387050    -0.4244530
  H        0.7544440     2.2203260     1.2670250
  H        2.3864280     2.6245280     0.7070350
  H        3.3561510    -2.1272050    -0.4162310
  H       -2.8304840     2.0415190    -0.7796900
  H       -3.1684390    -1.9801170     0.7461500
  H       -4.3226790     0.1358530    -0.0311710
units angstrom
no_reorient  #important for SAPT in psi4, default
symmetry c1  #important for SAPT in psi4, default
}

set PROPERTIES_ORIGIN ["COM"]
properties('MP2/aug-cc-pvtz', properties = ['dipole'])
--------------------------------------------------------------------------

    Molecular point group: c1
  Charge       = 0
  Multiplicity = 1
  Basis Set: AUG-CC-PVTZ
    Blend: AUG-CC-PVTZ
  Basis Set: (AUG-CC-PVTZ AUX)
    Blend: AUG-CC-PVTZ-JKFIT

    Orbital Energies [Eh]
    ---------------------

    Doubly Occupied:

       1A    -15.644165     2A    -15.587688     3A    -15.582842
       4A    -15.576642     5A    -11.371047     6A    -11.329538
       7A    -11.306014     8A    -11.288440     9A    -11.256253
      10A    -11.256122    11A    -11.236241    12A    -11.218913
      13A     -1.387706    14A     -1.309780    15A     -1.205599
      16A     -1.126152    17A     -1.084363    18A     -1.041742
      19A     -0.960459    20A     -0.908403    21A     -0.894922
      22A     -0.801583    23A     -0.795115    24A     -0.720382
      25A     -0.701128    26A     -0.696992    27A     -0.650655
      28A     -0.637781    29A     -0.600396    30A     -0.589650
      31A     -0.574998    32A     -0.570181    33A     -0.565532
      34A     -0.551880    35A     -0.537627    36A     -0.499362
      37A     -0.455471    38A     -0.432612    39A     -0.415486
      40A     -0.400746    41A     -0.336342    42A     -0.333717

  @DF-RHF Final Energy:  -525.51479407578950

   => Energetics <=

    Nuclear Repulsion Energy =            655.6897334368836709
    One-Electron Energy =               -2013.5277194848954423
    Two-Electron Energy =                 832.3231919722222756
    Total Energy =                       -525.5147940757894958
  Basis Set: (AUG-CC-PVTZ AUX)
    Blend: AUG-CC-PVTZ-RI
    Molecular point group: c1

    Geometry (in Angstrom), charge = 0, multiplicity = 1:

       Center              X                  Y                   Z               Mass
    ------------   -----------------  -----------------  -----------------  -----------------
         N            0.832620710876    -0.256331046827    -0.039402265125    14.003074004430
         N            1.375067710876    -1.483682046827    -0.268481265125    14.003074004430
         N           -1.065261289124     1.030251953173    -0.455147265125    14.003074004430
         N           -1.252108289124    -1.200499046827     0.427704734875    14.003074004430
         C            1.776236710876     0.737801953173     0.132197734875    12.000000000000
         C            2.995135710876     0.095907953173     0.006581734875    12.000000000000
         C           -0.573829289124    -0.136823046827    -0.019872265125    12.000000000000
         C            1.470462710876     2.167397953173     0.436636734875    12.000000000000
         C            2.695911710876    -1.256588046827    -0.241340265125    12.000000000000
         C           -2.404564289124     1.135510953173    -0.433254265125    12.000000000000
         C           -2.587395289124    -1.074830046827     0.402211734875    12.000000000000
         C           -3.350937289124     0.022395753173     0.007244634875    12.000000000000
         H            3.969382710876     0.557614953173     0.097900734875     1.007825032230
         H            1.029712710876     2.681397953173    -0.419487265125     1.007825032230
         H            0.770967710876     2.263018953173     1.271990734875     1.007825032230
         H            2.402951710876     2.667220953173     0.712000734875     1.007825032230
         H            3.372674710876    -2.084512046827    -0.411265265125     1.007825032230
         H           -2.813960289124     2.084211953173    -0.774724265125     1.007825032230
         H           -3.151915289124    -1.937424046827     0.751115734875     1.007825032230
         H           -4.306155289124     0.178545953173    -0.026205265125     1.007825032230

  Basis Set: AUG-CC-PVTZ
    Blend: AUG-CC-PVTZ
  Basis Set: (AUG-CC-PVTZ AUX)
    Blend: AUG-CC-PVTZ-JKFIT
	 Reference Energy          =    -525.5147940757894958 [Eh]
	 Singles Energy            =      -0.0000000000000000 [Eh]
	 Same-Spin Energy          =      -0.5773320478924990 [Eh]
	 Opposite-Spin Energy      =      -1.7401132365847776 [Eh]
	 Correlation Energy        =      -2.3174452844772766 [Eh]
	 Total Energy              =    -527.8322393602667262 [Eh]

	 ================> DF-SCS-MP2 Energies <==================
	-----------------------------------------------------------
	 SCS Same-Spin Scale       =       0.3333333333333333 [-]
	 SCS Opposite-Spin Scale   =       1.2000000000000000 [-]
	 SCS Same-Spin Energy      =      -0.1924440159641663 [Eh]
	 SCS Opposite-Spin Energy  =      -2.0881358839017330 [Eh]
	 SCS Correlation Energy    =      -2.2805798998658995 [Eh]
	 SCS Total Energy          =    -527.7953739756553659 [Eh]
	-----------------------------------------------------------

  Dipole Moment: [D]
     X:    -2.4569      Y:     2.6879      Z:     0.3865     Total:     3.6620

*** Psi4 exiting successfully. Buy a developer a beer!
