                               Psi4 1.3.2 release

  ==> Input File <==

--------------------------------------------------------------------------
#psi4
#
memory 32 gb

molecule  {
0 1
  N        0.8160970    -0.2990240    -0.0443680
  N        1.3585440    -1.5263750    -0.2734470
  N       -1.0817850     0.9875590    -0.4601130
  N       -1.2686320    -1.2431920     0.4227390
  C        1.7597130     0.6951090     0.1272320
  C        2.9786120     0.0532150     0.0016160
  C       -0.5903530    -0.1795160    -0.0248380
  C        1.4539390     2.1247050     0.4316710
  C        2.6793880    -1.2992810    -0.2463060
  C       -2.4210880     1.0928180    -0.4382200
  C       -2.6039190    -1.1175230     0.3972460
  C       -3.2197481     0.0569016    -0.0321505
  H        3.9528590     0.5149220     0.0929350
  H        1.0131890     2.6387050    -0.4244530
  H        0.7544440     2.2203260     1.2670250
  H        2.3864280     2.6245280     0.7070350
  H        3.3561510    -2.1272050    -0.4162310
  H       -2.8304840     2.0415190    -0.7796900
  H       -3.1684390    -1.9801170     0.7461500
  H       -4.3226790     0.1358530    -0.0311710
units angstrom
no_reorient  #important for SAPT in psi4, default
symmetry c1  #important for SAPT in psi4, default
}

set PROPERTIES_ORIGIN ["COM"]
properties('MP2/aug-cc-pvtz', properties = ['dipole'])
--------------------------------------------------------------------------

    Molecular point group: c1
  Charge       = 0
  Multiplicity = 1
  Basis Set: AUG-CC-PVTZ
    Blend: AUG-CC-PVTZ
  Basis Set: (AUG-CC-PVTZ AUX)
    Blend: AUG-CC-PVTZ-JKFIT

    Orbital Energies [Eh]
    ---------------------

    Doubly Occupied:

       1A    -15.641830     2A    -15.581554     3A    -15.581269
       4A    -15.579099     5A    -11.366854     6A    -11.310347
       7A    -11.308103     8A    -11.286498     9A    -11.254311
      10A    -11.252190    11A    -11.234473    12A    -11.217082
      13A     -1.386177    14A     -1.313289    15A     -1.206312
      16A     -1.130223    17A     -1.084234    18A     -1.045707
      19A     -0.958549    20A     -0.910832    21A     -0.895692
      22A     -0.800036    23A     -0.795468    24A     -0.713893
      25A     -0.707976    26A     -0.680555    27A     -0.638433
      28A     -0.629187    29A     -0.609395    30A     -0.589549
      31A     -0.587719    32A     -0.575617    33A     -0.563595
      34A     -0.552849    35A     -0.535546    36A     -0.489424
      37A     -0.455022    38A     -0.430535    39A     -0.420704
      40A     -0.409022    41A     -0.338359    42A     -0.332174

  @DF-RHF Final Energy:  -525.54289339774948

   => Energetics <=

    Nuclear Repulsion Energy =            658.7446630227989317
    One-Electron Energy =               -2019.7757421959754538
    Two-Electron Energy =                 835.4881857754270413
    Total Energy =                       -525.5428933977494808
  Basis Set: (AUG-CC-PVTZ AUX)
    Blend: AUG-CC-PVTZ-RI
    Molecular point group: c1

    Geometry (in Angstrom), charge = 0, multiplicity = 1:

       Center              X                  Y                   Z               Mass
    ------------   -----------------  -----------------  -----------------  -----------------
         N            0.821547426799    -0.262118247828    -0.036821268294    14.003074004430
         N            1.363994426799    -1.489469247828    -0.265900268294    14.003074004430
         N           -1.076334573201     1.024464752172    -0.452566268294    14.003074004430
         N           -1.263181573201    -1.206286247828     0.430285731706    14.003074004430
         C            1.765163426799     0.732014752172     0.134778731706    12.000000000000
         C            2.984062426799     0.090120752172     0.009162731706    12.000000000000
         C           -0.584902573201    -0.142610247828    -0.017291268294    12.000000000000
         C            1.459389426799     2.161610752172     0.439217731706    12.000000000000
         C            2.684838426799    -1.262375247828    -0.238759268294    12.000000000000
         C           -2.415637573201     1.129723752172    -0.430673268294    12.000000000000
         C           -2.598468573201    -1.080617247828     0.404792731706    12.000000000000
         C           -3.214297673201     0.093807352172    -0.024603768294    12.000000000000
         H            3.958309426799     0.551827752172     0.100481731706     1.007825032230
         H            1.018639426799     2.675610752172    -0.416906268294     1.007825032230
         H            0.759894426799     2.257231752172     1.274571731706     1.007825032230
         H            2.391878426799     2.661433752172     0.714581731706     1.007825032230
         H            3.361601426799    -2.090299247828    -0.408684268294     1.007825032230
         H           -2.825033573201     2.078424752172    -0.772143268294     1.007825032230
         H           -3.162988573201    -1.943211247828     0.753696731706     1.007825032230
         H           -4.317228573201     0.172758752172    -0.023624268294     1.007825032230

  Basis Set: AUG-CC-PVTZ
    Blend: AUG-CC-PVTZ
  Basis Set: (AUG-CC-PVTZ AUX)
    Blend: AUG-CC-PVTZ-JKFIT
	 Reference Energy          =    -525.5428933977494808 [Eh]
	 Singles Energy            =      -0.0000000000000000 [Eh]
	 Same-Spin Energy          =      -0.5776560256630857 [Eh]
	 Opposite-Spin Energy      =      -1.7386631008564413 [Eh]
	 Correlation Energy        =      -2.3163191265195269 [Eh]
	 Total Energy              =    -527.8592125242689690 [Eh]

	 ================> DF-SCS-MP2 Energies <==================
	-----------------------------------------------------------
	 SCS Same-Spin Scale       =       0.3333333333333333 [-]
	 SCS Opposite-Spin Scale   =       1.2000000000000000 [-]
	 SCS Same-Spin Energy      =      -0.1925520085543619 [Eh]
	 SCS Opposite-Spin Energy  =      -2.0863957210277295 [Eh]
	 SCS Correlation Energy    =      -2.2789477295820912 [Eh]
	 SCS Total Energy          =    -527.8218411273315951 [Eh]
	-----------------------------------------------------------

  Dipole Moment: [D]
     X:    -2.5877      Y:     2.5334      Z:     0.4484     Total:     3.6490

*** Psi4 exiting successfully. Buy a developer a beer!
