                               Psi4 1.4a3.dev225

  ==> Input File <==

--------------------------------------------------------------------------
#psi4
#
memory 32 gb

molecule  {
0 1
  N        0.8160970    -0.2990240    -0.0443680
  N        1.3585440    -1.5263750    -0.2734470
  N       -1.0817850     0.9875590    -0.4601130
  N       -1.2686320    -1.2431920     0.4227390
  C        1.7597130     0.6951090     0.1272320
  C        2.9786120     0.0532150     0.0016160
  C       -0.5903530    -0.1795160    -0.0248380
  C        1.4539390     2.1247050     0.4316710
  C        2.6793880    -1.2992810    -0.2463060
  C       -2.4210880     1.0928180    -0.4382200
  C       -2.6238274    -1.1156493     0.3968659
  C       -3.2414650     0.0469210    -0.0276130
  H        3.9528590     0.5149220     0.0929350
  H        1.0131890     2.6387050    -0.4244530
  H        0.7544440     2.2203260     1.2670250
  H        2.3864280     2.6245280     0.7070350
  H        3.3561510    -2.1272050    -0.4162310
  H       -2.8304840     2.0415190    -0.7796900
  H       -3.1684390    -1.9801170     0.7461500
  H       -4.3226790     0.1358530    -0.0311710
units angstrom
no_reorient  #important for SAPT in psi4, default
symmetry c1  #important for SAPT in psi4, default
}

set PROPERTIES_ORIGIN ["COM"]
properties('MP2/aug-cc-pvtz', properties = ['dipole'])
--------------------------------------------------------------------------

    Molecular point group: c1
  Charge       = 0
  Multiplicity = 1
  Basis Set: AUG-CC-PVTZ
    Blend: AUG-CC-PVTZ
  Basis Set: (AUG-CC-PVTZ AUX)
    Blend: AUG-CC-PVTZ-JKFIT

    Orbital Energies [Eh]
    ---------------------

    Doubly Occupied:

       1A    -15.641651     2A    -15.582862     3A    -15.581076
       4A    -15.579068     5A    -11.366416     6A    -11.312851
       7A    -11.309396     8A    -11.286396     9A    -11.254114
      10A    -11.252598    11A    -11.234563    12A    -11.216969
      13A     -1.385577    14A     -1.310347    15A     -1.201855
      16A     -1.129577    17A     -1.084301    18A     -1.046105
      19A     -0.958574    20A     -0.910962    21A     -0.894800
      22A     -0.799638    23A     -0.795309    24A     -0.712955
      25A     -0.706736    26A     -0.682677    27A     -0.637922
      28A     -0.632736    29A     -0.608767    30A     -0.589692
      31A     -0.586560    32A     -0.574378    33A     -0.563788
      34A     -0.552289    35A     -0.535630    36A     -0.490387
      37A     -0.454745    38A     -0.427640    39A     -0.420776
      40A     -0.408820    41A     -0.338576    42A     -0.332019

  @DF-RHF Final Energy:  -525.54237750755135

   => Energetics <=

    Nuclear Repulsion Energy =            657.9664790459812593
    One-Electron Energy =               -2018.2335157758093374
    Two-Electron Energy =                 834.7246592222767276
    Total Energy =                       -525.5423775075513504
  Basis Set: (AUG-CC-PVTZ AUX)
    Blend: AUG-CC-PVTZ-RI
    Molecular point group: c1

    Geometry (in Angstrom), charge = 0, multiplicity = 1:

       Center              X                  Y                   Z               Mass
    ------------   -----------------  -----------------  -----------------  -----------------
         N            0.824667863617    -0.261510514809    -0.037132927405    14.003074004430
         N            1.367114863617    -1.488861514809    -0.266211927405    14.003074004430
         N           -1.073214136383     1.025072485191    -0.452877927405    14.003074004430
         N           -1.260061136383    -1.205678514809     0.429974072595    14.003074004430
         C            1.768283863617     0.732622485191     0.134467072595    12.000000000000
         C            2.987182863617     0.090728485191     0.008851072595    12.000000000000
         C           -0.581782136383    -0.142002514809    -0.017602927405    12.000000000000
         C            1.462509863617     2.162218485191     0.438906072595    12.000000000000
         C            2.687958863617    -1.261767514809    -0.239070927405    12.000000000000
         C           -2.412517136383     1.130331485191    -0.430984927405    12.000000000000
         C           -2.615256536383    -1.078135814809     0.404100972595    12.000000000000
         C           -3.232894136383     0.084434485191    -0.020377927405    12.000000000000
         H            3.961429863617     0.552435485191     0.100170072595     1.007825032230
         H            1.021759863617     2.676218485191    -0.417217927405     1.007825032230
         H            0.763014863617     2.257839485191     1.274260072595     1.007825032230
         H            2.394998863617     2.662041485191     0.714270072595     1.007825032230
         H            3.364721863617    -2.089691514809    -0.408995927405     1.007825032230
         H           -2.821913136383     2.079032485191    -0.772454927405     1.007825032230
         H           -3.159868136383    -1.942603514809     0.753385072595     1.007825032230
         H           -4.314108136383     0.173366485191    -0.023935927405     1.007825032230

  Basis Set: AUG-CC-PVTZ
    Blend: AUG-CC-PVTZ
  Basis Set: (AUG-CC-PVTZ AUX)
    Blend: AUG-CC-PVTZ-JKFIT
	 Reference Energy          =    -525.5423775075513504 [Eh]
	 Singles Energy            =      -0.0000000000000000 [Eh]
	 Same-Spin Energy          =      -0.5777315557132887 [Eh]
	 Opposite-Spin Energy      =      -1.7391080020119332 [Eh]
	 Correlation Energy        =      -2.3168395577252219 [Eh]
	 Total Energy              =    -527.8592170652765390 [Eh]

	 ================> DF-SCS-MP2 Energies <==================
	-----------------------------------------------------------
	 SCS Same-Spin Scale       =       0.3333333333333333 [-]
	 SCS Opposite-Spin Scale   =       1.2000000000000000 [-]
	 SCS Same-Spin Energy      =      -0.1925771852377629 [Eh]
	 SCS Opposite-Spin Energy  =      -2.0869296024143198 [Eh]
	 SCS Correlation Energy    =      -2.2795067876520827 [Eh]
	 SCS Total Energy          =    -527.8218842952034038 [Eh]
	-----------------------------------------------------------

  Dipole Moment: [D]
     X:    -2.6149      Y:     2.5637      Z:     0.4365     Total:     3.6880

*** Psi4 exiting successfully. Buy a developer a beer!
