                               Psi4 1.3.2 release

  ==> Input File <==

--------------------------------------------------------------------------
#psi4
#
memory 32 gb

molecule  {
0 1
  N        0.8160970    -0.2990240    -0.0443680
  N        1.3585440    -1.5263750    -0.2734470
  N       -1.0817850     0.9875590    -0.4601130
  N       -1.2686320    -1.2431920     0.4227390
  C        1.8083044     0.7772077     0.1421035
  C        2.9786120     0.0532150     0.0016160
  C       -0.5903530    -0.1795160    -0.0248380
  C        1.4539390     2.1247050     0.4316710
  C        2.6793880    -1.2992810    -0.2463060
  C       -2.4210880     1.0928180    -0.4382200
  C       -2.6039190    -1.1175230     0.3972460
  C       -3.2414650     0.0469210    -0.0276130
  H        3.9528590     0.5149220     0.0929350
  H        1.0131890     2.6387050    -0.4244530
  H        0.7544440     2.2203260     1.2670250
  H        2.3864280     2.6245280     0.7070350
  H        3.3561510    -2.1272050    -0.4162310
  H       -2.8304840     2.0415190    -0.7796900
  H       -3.1684390    -1.9801170     0.7461500
  H       -4.3226790     0.1358530    -0.0311710
units angstrom
no_reorient  #important for SAPT in psi4, default
symmetry c1  #important for SAPT in psi4, default
}

set PROPERTIES_ORIGIN ["COM"]
properties('MP2/aug-cc-pvtz', properties = ['dipole'])
--------------------------------------------------------------------------

    Molecular point group: c1
  Charge       = 0
  Multiplicity = 1
  Basis Set: AUG-CC-PVTZ
    Blend: AUG-CC-PVTZ
  Basis Set: (AUG-CC-PVTZ AUX)
    Blend: AUG-CC-PVTZ-JKFIT

    Orbital Energies [Eh]
    ---------------------

    Doubly Occupied:

       1A    -15.636508     2A    -15.590217     3A    -15.578498
       4A    -15.574513     5A    -11.362691     6A    -11.308839
       7A    -11.306691     8A    -11.292807     9A    -11.255697
      10A    -11.249170    11A    -11.233264    12A    -11.224675
      13A     -1.372953    14A     -1.306929    15A     -1.202446
      16A     -1.123946    17A     -1.091340    18A     -1.041449
      19A     -0.968723    20A     -0.905932    21A     -0.888066
      22A     -0.797971    23A     -0.782730    24A     -0.713448
      25A     -0.706670    26A     -0.683158    27A     -0.633526
      28A     -0.629995    29A     -0.606666    30A     -0.590176
      31A     -0.588555    32A     -0.577400    33A     -0.568062
      34A     -0.549936    35A     -0.543405    36A     -0.486662
      37A     -0.455133    38A     -0.428012    39A     -0.417490
      40A     -0.406038    41A     -0.338319    42A     -0.326774

  @DF-RHF Final Energy:  -525.52838378794263

   => Energetics <=

    Nuclear Repulsion Energy =            656.7968715719100601
    One-Electron Energy =               -2015.9595583563091168
    Two-Electron Energy =                 833.6343029964564266
    Total Energy =                       -525.5283837879426301
  Basis Set: (AUG-CC-PVTZ AUX)
    Blend: AUG-CC-PVTZ-RI
    Molecular point group: c1

    Geometry (in Angstrom), charge = 0, multiplicity = 1:

       Center              X                  Y                   Z               Mass
    ------------   -----------------  -----------------  -----------------  -----------------
         N            0.819532782357    -0.267524574617    -0.038276262208    14.003074004430
         N            1.361979782357    -1.494875574617    -0.267355262208    14.003074004430
         N           -1.078349217643     1.019058425383    -0.454021262208    14.003074004430
         N           -1.265196217643    -1.211692574617     0.428830737792    14.003074004430
         C            1.811740182357     0.808707125383     0.148195237792    12.000000000000
         C            2.982047782357     0.084714425383     0.007707737792    12.000000000000
         C           -0.586917217643    -0.148016574617    -0.018746262208    12.000000000000
         C            1.457374782357     2.156204425383     0.437762737792    12.000000000000
         C            2.682823782357    -1.267781574617    -0.240214262208    12.000000000000
         C           -2.417652217643     1.124317425383    -0.432128262208    12.000000000000
         C           -2.600483217643    -1.086023574617     0.403337737792    12.000000000000
         C           -3.238029217643     0.078420425383    -0.021521262208    12.000000000000
         H            3.956294782357     0.546421425383     0.099026737792     1.007825032230
         H            1.016624782357     2.670204425383    -0.418361262208     1.007825032230
         H            0.757879782357     2.251825425383     1.273116737792     1.007825032230
         H            2.389863782357     2.656027425383     0.713126737792     1.007825032230
         H            3.359586782357    -2.095705574617    -0.410139262208     1.007825032230
         H           -2.827048217643     2.073018425383    -0.773598262208     1.007825032230
         H           -3.165003217643    -1.948617574617     0.752241737792     1.007825032230
         H           -4.319243217643     0.167352425383    -0.025079262208     1.007825032230

  Basis Set: AUG-CC-PVTZ
    Blend: AUG-CC-PVTZ
  Basis Set: (AUG-CC-PVTZ AUX)
    Blend: AUG-CC-PVTZ-JKFIT
	 Reference Energy          =    -525.5283837879426301 [Eh]
	 Singles Energy            =      -0.0000000000000000 [Eh]
	 Same-Spin Energy          =      -0.5791254704590871 [Eh]
	 Opposite-Spin Energy      =      -1.7417485180667651 [Eh]
	 Correlation Energy        =      -2.3208739885258520 [Eh]
	 Total Energy              =    -527.8492577764684484 [Eh]

	 ================> DF-SCS-MP2 Energies <==================
	-----------------------------------------------------------
	 SCS Same-Spin Scale       =       0.3333333333333333 [-]
	 SCS Opposite-Spin Scale   =       1.2000000000000000 [-]
	 SCS Same-Spin Energy      =      -0.1930418234863624 [Eh]
	 SCS Opposite-Spin Energy  =      -2.0900982216801181 [Eh]
	 SCS Correlation Energy    =      -2.2831400451664803 [Eh]
	 SCS Total Energy          =    -527.8115238331091632 [Eh]
	-----------------------------------------------------------

  Dipole Moment: [D]
     X:    -2.2727      Y:     2.6448      Z:     0.4627     Total:     3.5178

*** Psi4 exiting successfully. Buy a developer a beer!
