                               Psi4 1.3.2 release

  ==> Input File <==

--------------------------------------------------------------------------
#psi4
#
memory 32 gb

molecule  {
0 1
  N        0.8160970    -0.2990240    -0.0443680
  N        1.3585440    -1.5263750    -0.2734470
  N       -1.0817850     0.9875590    -0.4601130
  N       -1.2686320    -1.2431920     0.4227390
  C        1.7597130     0.6951090     0.1272320
  C        2.9304526     0.0624724     0.0043733
  C       -0.5903530    -0.1795160    -0.0248380
  C        1.4539390     2.1247050     0.4316710
  C        2.6793880    -1.2992810    -0.2463060
  C       -2.4210880     1.0928180    -0.4382200
  C       -2.6039190    -1.1175230     0.3972460
  C       -3.2414650     0.0469210    -0.0276130
  H        3.9528590     0.5149220     0.0929350
  H        1.0131890     2.6387050    -0.4244530
  H        0.7544440     2.2203260     1.2670250
  H        2.3864280     2.6245280     0.7070350
  H        3.3561510    -2.1272050    -0.4162310
  H       -2.8304840     2.0415190    -0.7796900
  H       -3.1684390    -1.9801170     0.7461500
  H       -4.3226790     0.1358530    -0.0311710
units angstrom
no_reorient  #important for SAPT in psi4, default
symmetry c1  #important for SAPT in psi4, default
}

set PROPERTIES_ORIGIN ["COM"]
properties('MP2/aug-cc-pvtz', properties = ['dipole'])
--------------------------------------------------------------------------

    Molecular point group: c1
  Charge       = 0
  Multiplicity = 1
  Basis Set: AUG-CC-PVTZ
    Blend: AUG-CC-PVTZ
  Basis Set: (AUG-CC-PVTZ AUX)
    Blend: AUG-CC-PVTZ-JKFIT

    Orbital Energies [Eh]
    ---------------------

    Doubly Occupied:

       1A    -15.639113     2A    -15.583919     3A    -15.581333
       4A    -15.577573     5A    -11.366274     6A    -11.310807
       7A    -11.308754     8A    -11.279388     9A    -11.254340
      10A    -11.251734    11A    -11.234185    12A    -11.215609
      13A     -1.387509    14A     -1.312674    15A     -1.205142
      16A     -1.129343    17A     -1.089510    18A     -1.045165
      19A     -0.959697    20A     -0.908439    21A     -0.895101
      22A     -0.802758    23A     -0.790921    24A     -0.713954
      25A     -0.707826    26A     -0.682909    27A     -0.638977
      28A     -0.631840    29A     -0.604711    30A     -0.588264
      31A     -0.585287    32A     -0.575165    33A     -0.556730
      34A     -0.552069    35A     -0.544183    36A     -0.490992
      37A     -0.454577    38A     -0.429811    39A     -0.419415
      40A     -0.407818    41A     -0.339280    42A     -0.336645

  @DF-RHF Final Energy:  -525.54136410343870

   => Energetics <=

    Nuclear Repulsion Energy =            659.3834361992704771
    One-Electron Energy =               -2021.0701139955235703
    Two-Electron Energy =                 836.1453136928145113
    Total Energy =                       -525.5413641034386956
  Basis Set: (AUG-CC-PVTZ AUX)
    Blend: AUG-CC-PVTZ-RI
    Molecular point group: c1

    Geometry (in Angstrom), charge = 0, multiplicity = 1:

       Center              X                  Y                   Z               Mass
    ------------   -----------------  -----------------  -----------------  -----------------
         N            0.826785697255    -0.262064033206    -0.037368122310    14.003074004430
         N            1.369232697255    -1.489415033206    -0.266447122310    14.003074004430
         N           -1.071096302745     1.024518966794    -0.453113122310    14.003074004430
         N           -1.257943302745    -1.206232033206     0.429738877690    14.003074004430
         C            1.770401697255     0.732068966794     0.134231877690    12.000000000000
         C            2.941141297255     0.099432366794     0.011373177690    12.000000000000
         C           -0.579664302745    -0.142556033206    -0.017838122310    12.000000000000
         C            1.464627697255     2.161664966794     0.438670877690    12.000000000000
         C            2.690076697255    -1.262321033206    -0.239306122310    12.000000000000
         C           -2.410399302745     1.129777966794    -0.431220122310    12.000000000000
         C           -2.593230302745    -1.080563033206     0.404245877690    12.000000000000
         C           -3.230776302745     0.083880966794    -0.020613122310    12.000000000000
         H            3.963547697255     0.551881966794     0.099934877690     1.007825032230
         H            1.023877697255     2.675664966794    -0.417453122310     1.007825032230
         H            0.765132697255     2.257285966794     1.274024877690     1.007825032230
         H            2.397116697255     2.661487966794     0.714034877690     1.007825032230
         H            3.366839697255    -2.090245033206    -0.409231122310     1.007825032230
         H           -2.819795302745     2.078478966794    -0.772690122310     1.007825032230
         H           -3.157750302745    -1.943157033206     0.753149877690     1.007825032230
         H           -4.311990302745     0.172812966794    -0.024171122310     1.007825032230

  Basis Set: AUG-CC-PVTZ
    Blend: AUG-CC-PVTZ
  Basis Set: (AUG-CC-PVTZ AUX)
    Blend: AUG-CC-PVTZ-JKFIT
	 Reference Energy          =    -525.5413641034386956 [Eh]
	 Singles Energy            =      -0.0000000000000000 [Eh]
	 Same-Spin Energy          =      -0.5772104384154612 [Eh]
	 Opposite-Spin Energy      =      -1.7381127086573813 [Eh]
	 Correlation Energy        =      -2.3153231470728426 [Eh]
	 Total Energy              =    -527.8566872505115271 [Eh]

	 ================> DF-SCS-MP2 Energies <==================
	-----------------------------------------------------------
	 SCS Same-Spin Scale       =       0.3333333333333333 [-]
	 SCS Opposite-Spin Scale   =       1.2000000000000000 [-]
	 SCS Same-Spin Energy      =      -0.1924034794718204 [Eh]
	 SCS Opposite-Spin Energy  =      -2.0857352503888573 [Eh]
	 SCS Correlation Energy    =      -2.2781387298606779 [Eh]
	 SCS Total Energy          =    -527.8195028332993388 [Eh]
	-----------------------------------------------------------

  Dipole Moment: [D]
     X:    -2.4869      Y:     2.5272      Z:     0.4334     Total:     3.5720

*** Psi4 exiting successfully. Buy a developer a beer!
