                               Psi4 1.3.2 release

  ==> Input File <==

--------------------------------------------------------------------------
#psi4
#
memory 32 gb

molecule  {
0 1
  N        0.8160970    -0.2990240    -0.0443680
  N        1.3585440    -1.5263750    -0.2734470
  N       -1.0817850     0.9875590    -0.4601130
  N       -1.2686320    -1.2431920     0.4227390
  C        1.7597130     0.6951090     0.1272320
  C        2.9786120     0.0532150     0.0016160
  C       -0.5903530    -0.1795160    -0.0248380
  C        1.4539390     2.1247050     0.4316710
  C        2.6793880    -1.2992810    -0.2463060
  C       -2.4210880     1.0928180    -0.4382200
  C       -2.6256395    -1.1275487     0.4016653
  C       -3.2414650     0.0469210    -0.0276130
  H        3.9528590     0.5149220     0.0929350
  H        1.0131890     2.6387050    -0.4244530
  H        0.7544440     2.2203260     1.2670250
  H        2.3864280     2.6245280     0.7070350
  H        3.3561510    -2.1272050    -0.4162310
  H       -2.8304840     2.0415190    -0.7796900
  H       -3.1684390    -1.9801170     0.7461500
  H       -4.3226790     0.1358530    -0.0311710
units angstrom
no_reorient  #important for SAPT in psi4, default
symmetry c1  #important for SAPT in psi4, default
}

set PROPERTIES_ORIGIN ["COM"]
properties('MP2/aug-cc-pvtz', properties = ['dipole'])
--------------------------------------------------------------------------

    Molecular point group: c1
  Charge       = 0
  Multiplicity = 1
  Basis Set: AUG-CC-PVTZ
    Blend: AUG-CC-PVTZ
  Basis Set: (AUG-CC-PVTZ AUX)
    Blend: AUG-CC-PVTZ-JKFIT

    Orbital Energies [Eh]
    ---------------------

    Doubly Occupied:

       1A    -15.641648     2A    -15.582718     3A    -15.581019
       4A    -15.579224     5A    -11.366472     6A    -11.312288
       7A    -11.310407     8A    -11.286348     9A    -11.254055
      10A    -11.253636    11A    -11.234485    12A    -11.216917
      13A     -1.385444    14A     -1.309658    15A     -1.201633
      16A     -1.128978    17A     -1.083951    18A     -1.044882
      19A     -0.958494    20A     -0.911376    21A     -0.894700
      22A     -0.799744    23A     -0.795947    24A     -0.712074
      25A     -0.706867    26A     -0.682119    27A     -0.638203
      28A     -0.633449    29A     -0.610000    30A     -0.591058
      31A     -0.586694    32A     -0.573981    33A     -0.563703
      34A     -0.551991    35A     -0.535526    36A     -0.489405
      37A     -0.454683    38A     -0.427458    39A     -0.420270
      40A     -0.407949    41A     -0.338051    42A     -0.331954

  @DF-RHF Final Energy:  -525.54187899099657

   => Energetics <=

    Nuclear Repulsion Energy =            657.7433166628657091
    One-Electron Energy =               -2017.7914712853187211
    Two-Electron Energy =                 834.5062756314564467
    Total Energy =                       -525.5418789909965653
  Basis Set: (AUG-CC-PVTZ AUX)
    Blend: AUG-CC-PVTZ-RI
    Molecular point group: c1

    Geometry (in Angstrom), charge = 0, multiplicity = 1:

       Center              X                  Y                   Z               Mass
    ------------   -----------------  -----------------  -----------------  -----------------
         N            0.824803707528    -0.260618477373    -0.037492713989    14.003074004430
         N            1.367250707528    -1.487969477373    -0.266571713989    14.003074004430
         N           -1.073078292472     1.025964522627    -0.453237713989    14.003074004430
         N           -1.259925292472    -1.204786477373     0.429614286011    14.003074004430
         C            1.768419707528     0.733514522627     0.134107286011    12.000000000000
         C            2.987318707528     0.091620522627     0.008491286011    12.000000000000
         C           -0.581646292472    -0.141110477373    -0.017962713989    12.000000000000
         C            1.462645707528     2.163110522627     0.438546286011    12.000000000000
         C            2.688094707528    -1.260875477373    -0.239430713989    12.000000000000
         C           -2.412381292472     1.131223522627    -0.431344713989    12.000000000000
         C           -2.616932792472    -1.089143177373     0.408540586011    12.000000000000
         C           -3.232758292472     0.085326522627    -0.020737713989    12.000000000000
         H            3.961565707528     0.553327522627     0.099810286011     1.007825032230
         H            1.021895707528     2.677110522627    -0.417577713989     1.007825032230
         H            0.763150707528     2.258731522627     1.273900286011     1.007825032230
         H            2.395134707528     2.662933522627     0.713910286011     1.007825032230
         H            3.364857707528    -2.088799477373    -0.409355713989     1.007825032230
         H           -2.821777292472     2.079924522627    -0.772814713989     1.007825032230
         H           -3.159732292472    -1.941711477373     0.753025286011     1.007825032230
         H           -4.313972292472     0.174258522627    -0.024295713989     1.007825032230

  Basis Set: AUG-CC-PVTZ
    Blend: AUG-CC-PVTZ
  Basis Set: (AUG-CC-PVTZ AUX)
    Blend: AUG-CC-PVTZ-JKFIT
	 Reference Energy          =    -525.5418789909965653 [Eh]
	 Singles Energy            =      -0.0000000000000000 [Eh]
	 Same-Spin Energy          =      -0.5777665136591805 [Eh]
	 Opposite-Spin Energy      =      -1.7392160992746146 [Eh]
	 Correlation Energy        =      -2.3169826129337951 [Eh]
	 Total Energy              =    -527.8588616039303361 [Eh]

	 ================> DF-SCS-MP2 Energies <==================
	-----------------------------------------------------------
	 SCS Same-Spin Scale       =       0.3333333333333333 [-]
	 SCS Opposite-Spin Scale   =       1.2000000000000000 [-]
	 SCS Same-Spin Energy      =      -0.1925888378863935 [Eh]
	 SCS Opposite-Spin Energy  =      -2.0870593191295375 [Eh]
	 SCS Correlation Energy    =      -2.2796481570159308 [Eh]
	 SCS Total Energy          =    -527.8215271480124784 [Eh]
	-----------------------------------------------------------

  Dipole Moment: [D]
     X:    -2.6265      Y:     2.5398      Z:     0.4458     Total:     3.6808

*** Psi4 exiting successfully. Buy a developer a beer!
