                               Psi4 1.3.2 release

  ==> Input File <==

--------------------------------------------------------------------------
#psi4
#
memory 32 gb

molecule  {
0 1
  N        0.8160970    -0.2990240    -0.0443680
  N        1.3585440    -1.5263750    -0.2734470
  N       -1.0817850     0.9875590    -0.4601130
  N       -1.2686320    -1.2431920     0.4227390
  C        1.7597130     0.6951090     0.1272320
  C        2.9786120     0.0532150     0.0016160
  C       -0.5903530    -0.1795160    -0.0248380
  C        1.4539390     2.1247050     0.4316710
  C        2.5373016    -1.2609033    -0.2404253
  C       -2.4210880     1.0928180    -0.4382200
  C       -2.6039190    -1.1175230     0.3972460
  C       -3.2414650     0.0469210    -0.0276130
  H        3.9528590     0.5149220     0.0929350
  H        1.0131890     2.6387050    -0.4244530
  H        0.7544440     2.2203260     1.2670250
  H        2.3864280     2.6245280     0.7070350
  H        3.3561510    -2.1272050    -0.4162310
  H       -2.8304840     2.0415190    -0.7796900
  H       -3.1684390    -1.9801170     0.7461500
  H       -4.3226790     0.1358530    -0.0311710
units angstrom
no_reorient  #important for SAPT in psi4, default
symmetry c1  #important for SAPT in psi4, default
}

set PROPERTIES_ORIGIN ["COM"]
properties('MP2/aug-cc-pvtz', properties = ['dipole'])
--------------------------------------------------------------------------

    Molecular point group: c1
  Charge       = 0
  Multiplicity = 1
  Basis Set: AUG-CC-PVTZ
    Blend: AUG-CC-PVTZ
  Basis Set: (AUG-CC-PVTZ AUX)
    Blend: AUG-CC-PVTZ-JKFIT

    Orbital Energies [Eh]
    ---------------------

    Doubly Occupied:

       1A    -15.635271     2A    -15.580566     3A    -15.577291
       4A    -15.572014     5A    -11.365773     6A    -11.310763
       7A    -11.308939     8A    -11.290432     9A    -11.251215
      10A    -11.250502    11A    -11.235542    12A    -11.214636
      13A     -1.408308    14A     -1.319562    15A     -1.205057
      16A     -1.152795    17A     -1.092020    18A     -1.044473
      19A     -0.967683    20A     -0.908921    21A     -0.891205
      22A     -0.801226    23A     -0.784983    24A     -0.717403
      25A     -0.708998    26A     -0.685334    27A     -0.645822
      28A     -0.631537    29A     -0.606534    30A     -0.590154
      31A     -0.583588    32A     -0.576298    33A     -0.563225
      34A     -0.561409    35A     -0.525048    36A     -0.490789
      37A     -0.449773    38A     -0.430122    39A     -0.419727
      40A     -0.416130    41A     -0.354079    42A     -0.333183

  @DF-RHF Final Energy:  -525.52021610920360

   => Energetics <=

    Nuclear Repulsion Energy =            661.9403280992071359
    One-Electron Energy =               -2026.0044268293156620
    Two-Electron Energy =                 838.5438826209049239
    Total Energy =                       -525.5202161092036022
  Basis Set: (AUG-CC-PVTZ AUX)
    Blend: AUG-CC-PVTZ-RI
    Molecular point group: c1

    Geometry (in Angstrom), charge = 0, multiplicity = 1:

       Center              X                  Y                   Z               Mass
    ------------   -----------------  -----------------  -----------------  -----------------
         N            0.833826926244    -0.264247033839    -0.037602267706    14.003074004430
         N            1.376273926244    -1.491598033839    -0.266681267706    14.003074004430
         N           -1.064055073756     1.022335966161    -0.453347267706    14.003074004430
         N           -1.250902073756    -1.208415033839     0.429504732294    14.003074004430
         C            1.777442926244     0.729885966161     0.133997732294    12.000000000000
         C            2.996341926244     0.087991966161     0.008381732294    12.000000000000
         C           -0.572623073756    -0.144739033839    -0.018072267706    12.000000000000
         C            1.471668926244     2.159481966161     0.438436732294    12.000000000000
         C            2.555031526244    -1.226126333839    -0.233659567706    12.000000000000
         C           -2.403358073756     1.127594966161    -0.431454267706    12.000000000000
         C           -2.586189073756    -1.082746033839     0.404011732294    12.000000000000
         C           -3.223735073756     0.081697966161    -0.020847267706    12.000000000000
         H            3.970588926244     0.549698966161     0.099700732294     1.007825032230
         H            1.030918926244     2.673481966161    -0.417687267706     1.007825032230
         H            0.772173926244     2.255102966161     1.273790732294     1.007825032230
         H            2.404157926244     2.659304966161     0.713800732294     1.007825032230
         H            3.373880926244    -2.092428033839    -0.409465267706     1.007825032230
         H           -2.812754073756     2.076295966161    -0.772924267706     1.007825032230
         H           -3.150709073756    -1.945340033839     0.752915732294     1.007825032230
         H           -4.304949073756     0.170629966161    -0.024405267706     1.007825032230

  Basis Set: AUG-CC-PVTZ
    Blend: AUG-CC-PVTZ
  Basis Set: (AUG-CC-PVTZ AUX)
    Blend: AUG-CC-PVTZ-JKFIT
	 Reference Energy          =    -525.5202161092036022 [Eh]
	 Singles Energy            =      -0.0000000000000000 [Eh]
	 Same-Spin Energy          =      -0.5747021256027740 [Eh]
	 Opposite-Spin Energy      =      -1.7333561642692994 [Eh]
	 Correlation Energy        =      -2.3080582898720734 [Eh]
	 Total Energy              =    -527.8282743990756671 [Eh]

	 ================> DF-SCS-MP2 Energies <==================
	-----------------------------------------------------------
	 SCS Same-Spin Scale       =       0.3333333333333333 [-]
	 SCS Opposite-Spin Scale   =       1.2000000000000000 [-]
	 SCS Same-Spin Energy      =      -0.1915673752009246 [Eh]
	 SCS Opposite-Spin Energy  =      -2.0800273971231591 [Eh]
	 SCS Correlation Energy    =      -2.2715947723240837 [Eh]
	 SCS Total Energy          =    -527.7918108815276810 [Eh]
	-----------------------------------------------------------

  Dipole Moment: [D]
     X:    -2.4696      Y:     2.6266      Z:     0.4511     Total:     3.6334

*** Psi4 exiting successfully. Buy a developer a beer!
