                               Psi4 1.4a3.dev225

  ==> Input File <==

--------------------------------------------------------------------------
#psi4
#
memory 32 gb

molecule  {
0 1
  N        0.8160970    -0.2990240    -0.0443680
  N        1.3585440    -1.5263750    -0.2734470
  N       -1.0817850     0.9875590    -0.4601130
  N       -1.2686320    -1.2431920     0.4227390
  C        1.7597130     0.6951090     0.1272320
  C        2.9786120     0.0532150     0.0016160
  C       -0.5903530    -0.1795160    -0.0248380
  C        1.4539390     2.1247050     0.4316710
  C        2.6793880    -1.2992810    -0.2463060
  C       -2.4210880     1.0928180    -0.4382200
  C       -2.6536900    -1.1128389     0.3962958
  C       -3.2414650     0.0469210    -0.0276130
  H        3.9528590     0.5149220     0.0929350
  H        1.0131890     2.6387050    -0.4244530
  H        0.7544440     2.2203260     1.2670250
  H        2.3864280     2.6245280     0.7070350
  H        3.3561510    -2.1272050    -0.4162310
  H       -2.8304840     2.0415190    -0.7796900
  H       -3.1684390    -1.9801170     0.7461500
  H       -4.3226790     0.1358530    -0.0311710
units angstrom
no_reorient  #important for SAPT in psi4, default
symmetry c1  #important for SAPT in psi4, default
}

set PROPERTIES_ORIGIN ["COM"]
properties('MP2/aug-cc-pvtz', properties = ['dipole'])
--------------------------------------------------------------------------

    Molecular point group: c1
  Charge       = 0
  Multiplicity = 1
  Basis Set: AUG-CC-PVTZ
    Blend: AUG-CC-PVTZ
  Basis Set: (AUG-CC-PVTZ AUX)
    Blend: AUG-CC-PVTZ-JKFIT

    Orbital Energies [Eh]
    ---------------------

    Doubly Occupied:

       1A    -15.640989     2A    -15.583593     3A    -15.580531
       4A    -15.579548     5A    -11.364995     6A    -11.314798
       7A    -11.309125     8A    -11.285908     9A    -11.253519
      10A    -11.252466    11A    -11.234376    12A    -11.216486
      13A     -1.384564    14A     -1.307548    15A     -1.195760
      16A     -1.129944    17A     -1.084558    18A     -1.047539
      19A     -0.958272    20A     -0.913898    21A     -0.892193
      22A     -0.799061    23A     -0.795435    24A     -0.713249
      25A     -0.705454    26A     -0.682878    27A     -0.637712
      28A     -0.631494    29A     -0.611555    30A     -0.589549
      31A     -0.586359    32A     -0.573380    33A     -0.563511
      34A     -0.551763    35A     -0.535222    36A     -0.488044
      37A     -0.454294    38A     -0.424251    39A     -0.420753
      40A     -0.410556    41A     -0.339284    42A     -0.331514

  @DF-RHF Final Energy:  -525.53882288410921

   => Energetics <=

    Nuclear Repulsion Energy =            657.5168768363174649
    One-Electron Energy =               -2017.3595447594657344
    Two-Electron Energy =                 834.3038450390391745
    Total Energy =                       -525.5388228841092086
  Basis Set: (AUG-CC-PVTZ AUX)
    Blend: AUG-CC-PVTZ-RI
    Molecular point group: c1

    Geometry (in Angstrom), charge = 0, multiplicity = 1:

       Center              X                  Y                   Z               Mass
    ------------   -----------------  -----------------  -----------------  -----------------
         N            0.826906510702    -0.261721196188    -0.037090189911    14.003074004430
         N            1.369353510702    -1.489072196188    -0.266169189911    14.003074004430
         N           -1.070975489298     1.024861803812    -0.452835189911    14.003074004430
         N           -1.257822489298    -1.205889196188     0.430016810089    14.003074004430
         C            1.770522510702     0.732411803812     0.134509810089    12.000000000000
         C            2.989421510702     0.090517803812     0.008893810089    12.000000000000
         C           -0.579543489298    -0.142213196188    -0.017560189911    12.000000000000
         C            1.464748510702     2.162007803812     0.438948810089    12.000000000000
         C            2.690197510702    -1.261978196188    -0.239028189911    12.000000000000
         C           -2.410278489298     1.130120803812    -0.430942189911    12.000000000000
         C           -2.642880489298    -1.075536096188     0.403573610089    12.000000000000
         C           -3.230655489298     0.084223803812    -0.020335189911    12.000000000000
         H            3.963668510702     0.552224803812     0.100212810089     1.007825032230
         H            1.023998510702     2.676007803812    -0.417175189911     1.007825032230
         H            0.765253510702     2.257628803812     1.274302810089     1.007825032230
         H            2.397237510702     2.661830803812     0.714312810089     1.007825032230
         H            3.366960510702    -2.089902196188    -0.408953189911     1.007825032230
         H           -2.819674489298     2.078821803812    -0.772412189911     1.007825032230
         H           -3.157629489298    -1.942814196188     0.753427810089     1.007825032230
         H           -4.311869489298     0.173155803812    -0.023893189911     1.007825032230

  Basis Set: AUG-CC-PVTZ
    Blend: AUG-CC-PVTZ
  Basis Set: (AUG-CC-PVTZ AUX)
    Blend: AUG-CC-PVTZ-JKFIT
	 Reference Energy          =    -525.5388228841092086 [Eh]
	 Singles Energy            =      -0.0000000000000000 [Eh]
	 Same-Spin Energy          =      -0.5779735683544901 [Eh]
	 Opposite-Spin Energy      =      -1.7399090386502489 [Eh]
	 Correlation Energy        =      -2.3178826070047389 [Eh]
	 Total Energy              =    -527.8567054911139849 [Eh]

	 ================> DF-SCS-MP2 Energies <==================
	-----------------------------------------------------------
	 SCS Same-Spin Scale       =       0.3333333333333333 [-]
	 SCS Opposite-Spin Scale   =       1.2000000000000000 [-]
	 SCS Same-Spin Energy      =      -0.1926578561181634 [Eh]
	 SCS Opposite-Spin Energy  =      -2.0878908463802985 [Eh]
	 SCS Correlation Energy    =      -2.2805487024984621 [Eh]
	 SCS Total Energy          =    -527.8193715866076445 [Eh]
	-----------------------------------------------------------

  Dipole Moment: [D]
     X:    -2.6637      Y:     2.5764      Z:     0.4316     Total:     3.7309

*** Psi4 exiting successfully. Buy a developer a beer!
