                               Psi4 1.4a3.dev225

  ==> Input File <==

--------------------------------------------------------------------------
#psi4
#
memory 32 gb

molecule  {
0 1
  N        0.8160970    -0.2990240    -0.0443680
  N        1.3585440    -1.5263750    -0.2734470
  N       -1.0817850     0.9875590    -0.4601130
  N       -1.2686320    -1.2431920     0.4227390
  C        1.7255577     0.6591252     0.1210207
  C        2.9786120     0.0532150     0.0016160
  C       -0.5903530    -0.1795160    -0.0248380
  C        1.4539390     2.1247050     0.4316710
  C        2.6793880    -1.2992810    -0.2463060
  C       -2.4210880     1.0928180    -0.4382200
  C       -2.6039190    -1.1175230     0.3972460
  C       -3.2414650     0.0469210    -0.0276130
  H        3.9528590     0.5149220     0.0929350
  H        1.0131890     2.6387050    -0.4244530
  H        0.7544440     2.2203260     1.2670250
  H        2.3864280     2.6245280     0.7070350
  H        3.3561510    -2.1272050    -0.4162310
  H       -2.8304840     2.0415190    -0.7796900
  H       -3.1684390    -1.9801170     0.7461500
  H       -4.3226790     0.1358530    -0.0311710
units angstrom
no_reorient  #important for SAPT in psi4, default
symmetry c1  #important for SAPT in psi4, default
}

set PROPERTIES_ORIGIN ["COM"]
properties('MP2/aug-cc-pvtz', properties = ['dipole'])
--------------------------------------------------------------------------

    Molecular point group: c1
  Charge       = 0
  Multiplicity = 1
  Basis Set: AUG-CC-PVTZ
    Blend: AUG-CC-PVTZ
  Basis Set: (AUG-CC-PVTZ AUX)
    Blend: AUG-CC-PVTZ-JKFIT

    Orbital Energies [Eh]
    ---------------------

    Doubly Occupied:

       1A    -15.644955     2A    -15.584813     3A    -15.581014
       4A    -15.576078     5A    -11.369750     6A    -11.313140
       7A    -11.311078     8A    -11.284845     9A    -11.254786
      10A    -11.253667    11A    -11.235648    12A    -11.214492
      13A     -1.395150    14A     -1.315650    15A     -1.208151
      16A     -1.133112    17A     -1.083058    18A     -1.045325
      19A     -0.954471    20A     -0.910837    21A     -0.901720
      22A     -0.802597    23A     -0.799954    24A     -0.714661
      25A     -0.706534    26A     -0.681580    27A     -0.642626
      28A     -0.634604    29A     -0.608023    30A     -0.592231
      31A     -0.586602    32A     -0.574945    33A     -0.565945
      34A     -0.553873    35A     -0.524067    36A     -0.493552
      37A     -0.453989    38A     -0.431972    39A     -0.421662
      40A     -0.408516    41A     -0.343102    42A     -0.328064

  @DF-RHF Final Energy:  -525.54274506771878

   => Energetics <=

    Nuclear Repulsion Energy =            659.0942132123018382
    One-Electron Energy =               -2020.3922423623066607
    Two-Electron Energy =                 835.7552840822860389
    Total Energy =                       -525.5427450677187835
  Basis Set: (AUG-CC-PVTZ AUX)
    Blend: AUG-CC-PVTZ-RI
    Molecular point group: c1

    Geometry (in Angstrom), charge = 0, multiplicity = 1:

       Center              X                  Y                   Z               Mass
    ------------   -----------------  -----------------  -----------------  -----------------
         N            0.825735881176    -0.258672530774    -0.036695792029    14.003074004430
         N            1.368182881176    -1.486023530774    -0.265774792029    14.003074004430
         N           -1.072146118824     1.027910469226    -0.452440792029    14.003074004430
         N           -1.258993118824    -1.202840530774     0.430411207971    14.003074004430
         C            1.735196581176     0.699476669226     0.128692907971    12.000000000000
         C            2.988250881176     0.093566469226     0.009288207971    12.000000000000
         C           -0.580714118824    -0.139164530774    -0.017165792029    12.000000000000
         C            1.463577881176     2.165056469226     0.439343207971    12.000000000000
         C            2.689026881176    -1.258929530774    -0.238633792029    12.000000000000
         C           -2.411449118824     1.133169469226    -0.430547792029    12.000000000000
         C           -2.594280118824    -1.077171530774     0.404918207971    12.000000000000
         C           -3.231826118824     0.087272469226    -0.019940792029    12.000000000000
         H            3.962497881176     0.555273469226     0.100607207971     1.007825032230
         H            1.022827881176     2.679056469226    -0.416780792029     1.007825032230
         H            0.764082881176     2.260677469226     1.274697207971     1.007825032230
         H            2.396066881176     2.664879469226     0.714707207971     1.007825032230
         H            3.365789881176    -2.086853530774    -0.408558792029     1.007825032230
         H           -2.820845118824     2.081870469226    -0.772017792029     1.007825032230
         H           -3.158800118824    -1.939765530774     0.753822207971     1.007825032230
         H           -4.313040118824     0.176204469226    -0.023498792029     1.007825032230

  Basis Set: AUG-CC-PVTZ
    Blend: AUG-CC-PVTZ
  Basis Set: (AUG-CC-PVTZ AUX)
    Blend: AUG-CC-PVTZ-JKFIT
	 Reference Energy          =    -525.5427450677187835 [Eh]
	 Singles Energy            =      -0.0000000000000000 [Eh]
	 Same-Spin Energy          =      -0.5771805330991100 [Eh]
	 Opposite-Spin Energy      =      -1.7376381329835322 [Eh]
	 Correlation Energy        =      -2.3148186660826422 [Eh]
	 Total Energy              =    -527.8575637338013848 [Eh]

	 ================> DF-SCS-MP2 Energies <==================
	-----------------------------------------------------------
	 SCS Same-Spin Scale       =       0.3333333333333333 [-]
	 SCS Opposite-Spin Scale   =       1.2000000000000000 [-]
	 SCS Same-Spin Energy      =      -0.1923935110330366 [Eh]
	 SCS Opposite-Spin Energy  =      -2.0851657595802386 [Eh]
	 SCS Correlation Energy    =      -2.2775592706132755 [Eh]
	 SCS Total Energy          =    -527.8203043383321074 [Eh]
	-----------------------------------------------------------

  Dipole Moment: [D]
     X:    -2.7673      Y:     2.5348      Z:     0.4351     Total:     3.7779

*** Psi4 exiting successfully. Buy a developer a beer!
