                               Psi4 1.3.2 release

  ==> Input File <==

--------------------------------------------------------------------------
#psi4
#
memory 32 gb

molecule  {
0 1
  N        0.8160970    -0.2990240    -0.0443680
  N        1.3585440    -1.5263750    -0.2734470
  N       -1.0817850     0.9875590    -0.4601130
  N       -1.2686320    -1.2431920     0.4227390
  C        1.7597130     0.6951090     0.1272320
  C        2.8904968     0.0996181     0.0106969
  C       -0.5903530    -0.1795160    -0.0248380
  C        1.4539390     2.1247050     0.4316710
  C        2.6793880    -1.2992810    -0.2463060
  C       -2.4210880     1.0928180    -0.4382200
  C       -2.6039190    -1.1175230     0.3972460
  C       -3.2414650     0.0469210    -0.0276130
  H        3.9528590     0.5149220     0.0929350
  H        1.0131890     2.6387050    -0.4244530
  H        0.7544440     2.2203260     1.2670250
  H        2.3864280     2.6245280     0.7070350
  H        3.3561510    -2.1272050    -0.4162310
  H       -2.8304840     2.0415190    -0.7796900
  H       -3.1684390    -1.9801170     0.7461500
  H       -4.3226790     0.1358530    -0.0311710
units angstrom
no_reorient  #important for SAPT in psi4, default
symmetry c1  #important for SAPT in psi4, default
}

set PROPERTIES_ORIGIN ["COM"]
properties('MP2/aug-cc-pvtz', properties = ['dipole'])
--------------------------------------------------------------------------

    Molecular point group: c1
  Charge       = 0
  Multiplicity = 1
  Basis Set: AUG-CC-PVTZ
    Blend: AUG-CC-PVTZ
  Basis Set: (AUG-CC-PVTZ AUX)
    Blend: AUG-CC-PVTZ-JKFIT

    Orbital Energies [Eh]
    ---------------------

    Doubly Occupied:

       1A    -15.635195     2A    -15.588146     3A    -15.579850
       4A    -15.576218     5A    -11.365070     6A    -11.309866
       7A    -11.307861     8A    -11.271069     9A    -11.257723
      10A    -11.250441    11A    -11.232707    12A    -11.214646
      13A     -1.388206    14A     -1.312295    15A     -1.204013
      16A     -1.127904    17A     -1.097354    18A     -1.043962
      19A     -0.959589    20A     -0.907735    21A     -0.892286
      22A     -0.805613    23A     -0.787705    24A     -0.714763
      25A     -0.707189    26A     -0.682640    27A     -0.639720
      28A     -0.630746    29A     -0.604082    30A     -0.587819
      31A     -0.585970    32A     -0.575917    33A     -0.553974
      34A     -0.551866    35A     -0.541366    36A     -0.490097
      37A     -0.453804    38A     -0.428948    39A     -0.418424
      40A     -0.406884    41A     -0.349624    42A     -0.333665

  @DF-RHF Final Energy:  -525.53238889210445

   => Energetics <=

    Nuclear Repulsion Energy =            660.1979216361153249
    One-Electron Energy =               -2022.7147184585103332
    Two-Electron Energy =                 836.9844079302905584
    Total Energy =                       -525.5323888921044500
  Basis Set: (AUG-CC-PVTZ AUX)
    Blend: AUG-CC-PVTZ-RI
    Molecular point group: c1

    Geometry (in Angstrom), charge = 0, multiplicity = 1:

       Center              X                  Y                   Z               Mass
    ------------   -----------------  -----------------  -----------------  -----------------
         N            0.829780980158    -0.264848657219    -0.037842170408    14.003074004430
         N            1.372227980158    -1.492199657219    -0.266921170408    14.003074004430
         N           -1.068101019842     1.021734342781    -0.453587170408    14.003074004430
         N           -1.254948019842    -1.209016657219     0.429264829592    14.003074004430
         C            1.773396980158     0.729284342781     0.133757829592    12.000000000000
         C            2.904180780158     0.133793442781     0.017222729592    12.000000000000
         C           -0.576669019842    -0.145340657219    -0.018312170408    12.000000000000
         C            1.467622980158     2.158880342781     0.438196829592    12.000000000000
         C            2.693071980158    -1.265105657219    -0.239780170408    12.000000000000
         C           -2.407404019842     1.126993342781    -0.431694170408    12.000000000000
         C           -2.590235019842    -1.083347657219     0.403771829592    12.000000000000
         C           -3.227781019842     0.081096342781    -0.021087170408    12.000000000000
         H            3.966542980158     0.549097342781     0.099460829592     1.007825032230
         H            1.026872980158     2.672880342781    -0.417927170408     1.007825032230
         H            0.768127980158     2.254501342781     1.273550829592     1.007825032230
         H            2.400111980158     2.658703342781     0.713560829592     1.007825032230
         H            3.369834980158    -2.093029657219    -0.409705170408     1.007825032230
         H           -2.816800019842     2.075694342781    -0.773164170408     1.007825032230
         H           -3.154755019842    -1.945941657219     0.752675829592     1.007825032230
         H           -4.308995019842     0.170028342781    -0.024645170408     1.007825032230

  Basis Set: AUG-CC-PVTZ
    Blend: AUG-CC-PVTZ
  Basis Set: (AUG-CC-PVTZ AUX)
    Blend: AUG-CC-PVTZ-JKFIT
	 Reference Energy          =    -525.5323888921044500 [Eh]
	 Singles Energy            =      -0.0000000000000000 [Eh]
	 Same-Spin Energy          =      -0.5764135315941602 [Eh]
	 Opposite-Spin Energy      =      -1.7374175438342876 [Eh]
	 Correlation Energy        =      -2.3138310754284479 [Eh]
	 Total Energy              =    -527.8462199675328748 [Eh]

	 ================> DF-SCS-MP2 Energies <==================
	-----------------------------------------------------------
	 SCS Same-Spin Scale       =       0.3333333333333333 [-]
	 SCS Opposite-Spin Scale   =       1.2000000000000000 [-]
	 SCS Same-Spin Energy      =      -0.1921378438647200 [Eh]
	 SCS Opposite-Spin Energy  =      -2.0849010526011451 [Eh]
	 SCS Correlation Energy    =      -2.2770388964658652 [Eh]
	 SCS Total Energy          =    -527.8094277885703605 [Eh]
	-----------------------------------------------------------

  Dipole Moment: [D]
     X:    -2.3432      Y:     2.4731      Z:     0.4216     Total:     3.4328

*** Psi4 exiting successfully. Buy a developer a beer!
