                               Psi4 1.4a3.dev225

  ==> Input File <==

--------------------------------------------------------------------------
#psi4
#
memory 32 gb

molecule  {
0 1
  N        0.8160970    -0.2990240    -0.0443680
  N        1.3585440    -1.5263750    -0.2734470
  N       -1.0817850     0.9875590    -0.4601130
  N       -1.2686320    -1.2431920     0.4227390
  C        1.7597130     0.6951090     0.1272320
  C        2.9786120     0.0532150     0.0016160
  C       -0.5903530    -0.1795160    -0.0248380
  C        1.4539390     2.1247050     0.4316710
  C        2.6793880    -1.2992810    -0.2463060
  C       -2.4210880     1.0928180    -0.4382200
  C       -2.6039190    -1.1175230     0.3972460
  C       -3.2323172     0.0302130    -0.0215169
  H        3.9528590     0.5149220     0.0929350
  H        1.0131890     2.6387050    -0.4244530
  H        0.7544440     2.2203260     1.2670250
  H        2.3864280     2.6245280     0.7070350
  H        3.3561510    -2.1272050    -0.4162310
  H       -2.8304840     2.0415190    -0.7796900
  H       -3.1684390    -1.9801170     0.7461500
  H       -4.3226790     0.1358530    -0.0311710
units angstrom
no_reorient  #important for SAPT in psi4, default
symmetry c1  #important for SAPT in psi4, default
}

set PROPERTIES_ORIGIN ["COM"]
properties('MP2/aug-cc-pvtz', properties = ['dipole'])
--------------------------------------------------------------------------

    Molecular point group: c1
  Charge       = 0
  Multiplicity = 1
  Basis Set: AUG-CC-PVTZ
    Blend: AUG-CC-PVTZ
  Basis Set: (AUG-CC-PVTZ AUX)
    Blend: AUG-CC-PVTZ-JKFIT

    Orbital Energies [Eh]
    ---------------------

    Doubly Occupied:

       1A    -15.641952     2A    -15.583211     3A    -15.581319
       4A    -15.577739     5A    -11.366996     6A    -11.313703
       7A    -11.306015     8A    -11.286633     9A    -11.254373
      10A    -11.252447    11A    -11.234775    12A    -11.217206
      13A     -1.386212    14A     -1.312929    15A     -1.206198
      16A     -1.129671    17A     -1.084455    18A     -1.045256
      19A     -0.958806    20A     -0.910254    21A     -0.895853
      22A     -0.800299    23A     -0.795076    24A     -0.714037
      25A     -0.707140    26A     -0.681402    27A     -0.638120
      28A     -0.631941    29A     -0.608694    30A     -0.589426
      31A     -0.586730    32A     -0.575439    33A     -0.563912
      34A     -0.552855    35A     -0.535780    36A     -0.490523
      37A     -0.454932    38A     -0.430746    39A     -0.420512
      40A     -0.408125    41A     -0.338126    42A     -0.332260

  @DF-RHF Final Energy:  -525.54307980367128

   => Energetics <=

    Nuclear Repulsion Energy =            658.5036395095316948
    One-Electron Energy =               -2019.2892864395957986
    Two-Electron Energy =                 835.2425671263928280
    Total Energy =                       -525.5430798036712758
  Basis Set: (AUG-CC-PVTZ AUX)
    Blend: AUG-CC-PVTZ-RI
    Molecular point group: c1

    Geometry (in Angstrom), charge = 0, multiplicity = 1:

       Center              X                  Y                   Z               Mass
    ------------   -----------------  -----------------  -----------------  -----------------
         N            0.822489668234    -0.260117539363    -0.037618415148    14.003074004430
         N            1.364936668234    -1.487468539363    -0.266697415148    14.003074004430
         N           -1.075392331766     1.026465460637    -0.453363415148    14.003074004430
         N           -1.262239331766    -1.204285539363     0.429488584852    14.003074004430
         C            1.766105668234     0.734015460637     0.133981584852    12.000000000000
         C            2.985004668234     0.092121460637     0.008365584852    12.000000000000
         C           -0.583960331766    -0.140609539363    -0.018088415148    12.000000000000
         C            1.460331668234     2.163611460637     0.438420584852    12.000000000000
         C            2.685780668234    -1.260374539363    -0.239556415148    12.000000000000
         C           -2.414695331766     1.131724460637    -0.431470415148    12.000000000000
         C           -2.597526331766    -1.078616539363     0.403995584852    12.000000000000
         C           -3.225924531766     0.069119460637    -0.014767315148    12.000000000000
         H            3.959251668234     0.553828460637     0.099684584852     1.007825032230
         H            1.019581668234     2.677611460637    -0.417703415148     1.007825032230
         H            0.760836668234     2.259232460637     1.273774584852     1.007825032230
         H            2.392820668234     2.663434460637     0.713784584852     1.007825032230
         H            3.362543668234    -2.088298539363    -0.409481415148     1.007825032230
         H           -2.824091331766     2.080425460637    -0.772940415148     1.007825032230
         H           -3.162046331766    -1.941210539363     0.752899584852     1.007825032230
         H           -4.316286331766     0.174759460637    -0.024421415148     1.007825032230

  Basis Set: AUG-CC-PVTZ
    Blend: AUG-CC-PVTZ
  Basis Set: (AUG-CC-PVTZ AUX)
    Blend: AUG-CC-PVTZ-JKFIT
	 Reference Energy          =    -525.5430798036712758 [Eh]
	 Singles Energy            =      -0.0000000000000000 [Eh]
	 Same-Spin Energy          =      -0.5776379872184224 [Eh]
	 Opposite-Spin Energy      =      -1.7386880761771430 [Eh]
	 Correlation Energy        =      -2.3163260633955653 [Eh]
	 Total Energy              =    -527.8594058670668119 [Eh]

	 ================> DF-SCS-MP2 Energies <==================
	-----------------------------------------------------------
	 SCS Same-Spin Scale       =       0.3333333333333333 [-]
	 SCS Opposite-Spin Scale   =       1.2000000000000000 [-]
	 SCS Same-Spin Energy      =      -0.1925459957394741 [Eh]
	 SCS Opposite-Spin Energy  =      -2.0864256914125714 [Eh]
	 SCS Correlation Energy    =      -2.2789716871520453 [Eh]
	 SCS Total Energy          =    -527.8220514908233554 [Eh]
	-----------------------------------------------------------

  Dipole Moment: [D]
     X:    -2.5805      Y:     2.5842      Z:     0.4284     Total:     3.6771

*** Psi4 exiting successfully. Buy a developer a beer!
