                               Psi4 1.3.2 release

  ==> Input File <==

--------------------------------------------------------------------------
#psi4
#
memory 32 gb

molecule  {
0 1
  N        0.8116110    -0.3446222    -0.0262420
  N        1.3585440    -1.5263750    -0.2734470
  N       -1.0817850     0.9875590    -0.4601130
  N       -1.2686320    -1.2431920     0.4227390
  C        1.7597130     0.6951090     0.1272320
  C        2.9786120     0.0532150     0.0016160
  C       -0.5903530    -0.1795160    -0.0248380
  C        1.4539390     2.1247050     0.4316710
  C        2.6793880    -1.2992810    -0.2463060
  C       -2.4210880     1.0928180    -0.4382200
  C       -2.6039190    -1.1175230     0.3972460
  C       -3.2414650     0.0469210    -0.0276130
  H        3.9528590     0.5149220     0.0929350
  H        1.0131890     2.6387050    -0.4244530
  H        0.7544440     2.2203260     1.2670250
  H        2.3864280     2.6245280     0.7070350
  H        3.3561510    -2.1272050    -0.4162310
  H       -2.8304840     2.0415190    -0.7796900
  H       -3.1684390    -1.9801170     0.7461500
  H       -4.3226790     0.1358530    -0.0311710
units angstrom
no_reorient  #important for SAPT in psi4, default
symmetry c1  #important for SAPT in psi4, default
}

set PROPERTIES_ORIGIN ["COM"]
properties('MP2/aug-cc-pvtz', properties = ['dipole'])
--------------------------------------------------------------------------

    Molecular point group: c1
  Charge       = 0
  Multiplicity = 1
  Basis Set: AUG-CC-PVTZ
    Blend: AUG-CC-PVTZ
  Basis Set: (AUG-CC-PVTZ AUX)
    Blend: AUG-CC-PVTZ-JKFIT

    Orbital Energies [Eh]
    ---------------------

    Doubly Occupied:

       1A    -15.643997     2A    -15.583591     3A    -15.582474
       4A    -15.577848     5A    -11.367069     6A    -11.312195
       7A    -11.309136     8A    -11.285942     9A    -11.252827
      10A    -11.251982    11A    -11.234686    12A    -11.219430
      13A     -1.393245    14A     -1.314778    15A     -1.206066
      16A     -1.127907    17A     -1.082448    18A     -1.045999
      19A     -0.958770    20A     -0.909318    21A     -0.895256
      22A     -0.801804    23A     -0.793725    24A     -0.712745
      25A     -0.708818    26A     -0.682834    27A     -0.638693
      28A     -0.634040    29A     -0.607206    30A     -0.591963
      31A     -0.585735    32A     -0.575812    33A     -0.564323
      34A     -0.555182    35A     -0.535236    36A     -0.491216
      37A     -0.454278    38A     -0.430728    39A     -0.420352
      40A     -0.407013    41A     -0.339914    42A     -0.328150

  @DF-RHF Final Energy:  -525.54114176568237

   => Energetics <=

    Nuclear Repulsion Energy =            658.2484491718723802
    One-Electron Energy =               -2018.7497210838703268
    Two-Electron Energy =                 834.9601301463155778
    Total Energy =                       -525.5411417656823687
  Basis Set: (AUG-CC-PVTZ AUX)
    Blend: AUG-CC-PVTZ-RI
    Molecular point group: c1

    Geometry (in Angstrom), charge = 0, multiplicity = 1:

       Center              X                  Y                   Z               Mass
    ------------   -----------------  -----------------  -----------------  -----------------
         N            0.819081859718    -0.302979401691    -0.020621052577    14.003074004430
         N            1.366014859718    -1.484732201691    -0.267826052577    14.003074004430
         N           -1.074314140282     1.029201798309    -0.454492052577    14.003074004430
         N           -1.261161140282    -1.201549201691     0.428359947423    14.003074004430
         C            1.767183859718     0.736751798309     0.132852947423    12.000000000000
         C            2.986082859718     0.094857798309     0.007236947423    12.000000000000
         C           -0.582882140282    -0.137873201691    -0.019217052577    12.000000000000
         C            1.461409859718     2.166347798309     0.437291947423    12.000000000000
         C            2.686858859718    -1.257638201691    -0.240685052577    12.000000000000
         C           -2.413617140282     1.134460798309    -0.432599052577    12.000000000000
         C           -2.596448140282    -1.075880201691     0.402866947423    12.000000000000
         C           -3.233994140282     0.088563798309    -0.021992052577    12.000000000000
         H            3.960329859718     0.556564798309     0.098555947423     1.007825032230
         H            1.020659859718     2.680347798309    -0.418832052577     1.007825032230
         H            0.761914859718     2.261968798309     1.272645947423     1.007825032230
         H            2.393898859718     2.666170798309     0.712655947423     1.007825032230
         H            3.363621859718    -2.085562201691    -0.410610052577     1.007825032230
         H           -2.823013140282     2.083161798309    -0.774069052577     1.007825032230
         H           -3.160968140282    -1.938474201691     0.751770947423     1.007825032230
         H           -4.315208140282     0.177495798309    -0.025550052577     1.007825032230

  Basis Set: AUG-CC-PVTZ
    Blend: AUG-CC-PVTZ
  Basis Set: (AUG-CC-PVTZ AUX)
    Blend: AUG-CC-PVTZ-JKFIT
	 Reference Energy          =    -525.5411417656823687 [Eh]
	 Singles Energy            =      -0.0000000000000000 [Eh]
	 Same-Spin Energy          =      -0.5779022785164738 [Eh]
	 Opposite-Spin Energy      =      -1.7387940862430686 [Eh]
	 Correlation Energy        =      -2.3166963647595424 [Eh]
	 Total Energy              =    -527.8578381304419054 [Eh]

	 ================> DF-SCS-MP2 Energies <==================
	-----------------------------------------------------------
	 SCS Same-Spin Scale       =       0.3333333333333333 [-]
	 SCS Opposite-Spin Scale   =       1.2000000000000000 [-]
	 SCS Same-Spin Energy      =      -0.1926340928388246 [Eh]
	 SCS Opposite-Spin Energy  =      -2.0865529034916821 [Eh]
	 SCS Correlation Energy    =      -2.2791869963305067 [Eh]
	 SCS Total Energy          =    -527.8203287620128776 [Eh]
	-----------------------------------------------------------

  Dipole Moment: [D]
     X:    -2.5842      Y:     2.5801      Z:     0.4362     Total:     3.6777

*** Psi4 exiting successfully. Buy a developer a beer!
