                               Psi4 1.3.2 release

  ==> Input File <==

--------------------------------------------------------------------------
#psi4
#
memory 32 gb

molecule  {
0 1
  N        0.8160970    -0.2990240    -0.0443680
  N        1.3585440    -1.5263750    -0.2734470
  N       -1.0817850     0.9875590    -0.4601130
  N       -1.2686320    -1.2431920     0.4227390
  C        1.7713137     0.7158829     0.1313240
  C        2.9786120     0.0532150     0.0016160
  C       -0.5903530    -0.1795160    -0.0248380
  C        1.4539390     2.1247050     0.4316710
  C        2.6793880    -1.2992810    -0.2463060
  C       -2.4210880     1.0928180    -0.4382200
  C       -2.6039190    -1.1175230     0.3972460
  C       -3.2414650     0.0469210    -0.0276130
  H        3.9528590     0.5149220     0.0929350
  H        1.0131890     2.6387050    -0.4244530
  H        0.7544440     2.2203260     1.2670250
  H        2.3864280     2.6245280     0.7070350
  H        3.3561510    -2.1272050    -0.4162310
  H       -2.8304840     2.0415190    -0.7796900
  H       -3.1684390    -1.9801170     0.7461500
  H       -4.3226790     0.1358530    -0.0311710
units angstrom
no_reorient  #important for SAPT in psi4, default
symmetry c1  #important for SAPT in psi4, default
}

set PROPERTIES_ORIGIN ["COM"]
properties('MP2/aug-cc-pvtz', properties = ['dipole'])
--------------------------------------------------------------------------

    Molecular point group: c1
  Charge       = 0
  Multiplicity = 1
  Basis Set: AUG-CC-PVTZ
    Blend: AUG-CC-PVTZ
  Basis Set: (AUG-CC-PVTZ AUX)
    Blend: AUG-CC-PVTZ-JKFIT

    Orbital Energies [Eh]
    ---------------------

    Doubly Occupied:

       1A    -15.640968     2A    -15.583734     3A    -15.581426
       4A    -15.577607     5A    -11.366223     6A    -11.310851
       7A    -11.308784     8A    -11.288237     9A    -11.254854
      10A    -11.251798    11A    -11.234282    12A    -11.219081
      13A     -1.382598    14A     -1.311088    15A     -1.205128
      16A     -1.127945    17A     -1.085433    18A     -1.044253
      19A     -0.961356    20A     -0.908277    21A     -0.894257
      22A     -0.799441    23A     -0.792215    24A     -0.712709
      25A     -0.707599    26A     -0.682797    27A     -0.636595
      28A     -0.632655    29A     -0.606893    30A     -0.588685
      31A     -0.586997    32A     -0.575602    33A     -0.564229
      34A     -0.552081    35A     -0.540156    36A     -0.490512
      37A     -0.455384    38A     -0.429886    39A     -0.419566
      40A     -0.407271    41A     -0.336826    42A     -0.332281

  @DF-RHF Final Energy:  -525.54168445073140

   => Energetics <=

    Nuclear Repulsion Energy =            657.8930776533725293
    One-Electron Energy =               -2018.0924005259814749
    Two-Electron Energy =                 834.6576384218775502
    Total Energy =                       -525.5416844507313954
  Basis Set: (AUG-CC-PVTZ AUX)
    Blend: AUG-CC-PVTZ-RI
    Molecular point group: c1

    Geometry (in Angstrom), charge = 0, multiplicity = 1:

       Center              X                  Y                   Z               Mass
    ------------   -----------------  -----------------  -----------------  -----------------
         N            0.822305786809    -0.262927366578    -0.037468177974    14.003074004430
         N            1.364752786809    -1.490278366578    -0.266547177974    14.003074004430
         N           -1.075576213191     1.023655633422    -0.453213177974    14.003074004430
         N           -1.262423213191    -1.207095366578     0.429638822026    14.003074004430
         C            1.777522486809     0.751979533422     0.138223822026    12.000000000000
         C            2.984820786809     0.089311633422     0.008515822026    12.000000000000
         C           -0.584144213191    -0.143419366578    -0.017938177974    12.000000000000
         C            1.460147786809     2.160801633422     0.438570822026    12.000000000000
         C            2.685596786809    -1.263184366578    -0.239406177974    12.000000000000
         C           -2.414879213191     1.128914633422    -0.431320177974    12.000000000000
         C           -2.597710213191    -1.081426366578     0.404145822026    12.000000000000
         C           -3.235256213191     0.083017633422    -0.020713177974    12.000000000000
         H            3.959067786809     0.551018633422     0.099834822026     1.007825032230
         H            1.019397786809     2.674801633422    -0.417553177974     1.007825032230
         H            0.760652786809     2.256422633422     1.273924822026     1.007825032230
         H            2.392636786809     2.660624633422     0.713934822026     1.007825032230
         H            3.362359786809    -2.091108366578    -0.409331177974     1.007825032230
         H           -2.824275213191     2.077615633422    -0.772790177974     1.007825032230
         H           -3.162230213191    -1.944020366578     0.753049822026     1.007825032230
         H           -4.316470213191     0.171949633422    -0.024271177974     1.007825032230

  Basis Set: AUG-CC-PVTZ
    Blend: AUG-CC-PVTZ
  Basis Set: (AUG-CC-PVTZ AUX)
    Blend: AUG-CC-PVTZ-JKFIT
	 Reference Energy          =    -525.5416844507313954 [Eh]
	 Singles Energy            =      -0.0000000000000000 [Eh]
	 Same-Spin Energy          =      -0.5779011282116289 [Eh]
	 Opposite-Spin Energy      =      -1.7393215938205613 [Eh]
	 Correlation Energy        =      -2.3172227220321902 [Eh]
	 Total Energy              =    -527.8589071727635655 [Eh]

	 ================> DF-SCS-MP2 Energies <==================
	-----------------------------------------------------------
	 SCS Same-Spin Scale       =       0.3333333333333333 [-]
	 SCS Opposite-Spin Scale   =       1.2000000000000000 [-]
	 SCS Same-Spin Energy      =      -0.1926337094038763 [Eh]
	 SCS Opposite-Spin Energy  =      -2.0871859125846735 [Eh]
	 SCS Correlation Energy    =      -2.2798196219885498 [Eh]
	 SCS Total Energy          =    -527.8215040727199039 [Eh]
	-----------------------------------------------------------

  Dipole Moment: [D]
     X:    -2.5030      Y:     2.5729      Z:     0.4443     Total:     3.6169

*** Psi4 exiting successfully. Buy a developer a beer!
