                               Psi4 1.3.2 release

  ==> Input File <==

--------------------------------------------------------------------------
#psi4
#
memory 32 gb

molecule  {
0 1
  N        0.8160970    -0.2990240    -0.0443680
  N        1.3585440    -1.5263750    -0.2734470
  N       -1.0817850     0.9875590    -0.4601130
  N       -1.2630516    -1.1556699     0.3899457
  C        1.7597130     0.6951090     0.1272320
  C        2.9786120     0.0532150     0.0016160
  C       -0.5903530    -0.1795160    -0.0248380
  C        1.4539390     2.1247050     0.4316710
  C        2.6793880    -1.2992810    -0.2463060
  C       -2.4210880     1.0928180    -0.4382200
  C       -2.6039190    -1.1175230     0.3972460
  C       -3.2414650     0.0469210    -0.0276130
  H        3.9528590     0.5149220     0.0929350
  H        1.0131890     2.6387050    -0.4244530
  H        0.7544440     2.2203260     1.2670250
  H        2.3864280     2.6245280     0.7070350
  H        3.3561510    -2.1272050    -0.4162310
  H       -2.8304840     2.0415190    -0.7796900
  H       -3.1684390    -1.9801170     0.7461500
  H       -4.3226790     0.1358530    -0.0311710
units angstrom
no_reorient  #important for SAPT in psi4, default
symmetry c1  #important for SAPT in psi4, default
}

set PROPERTIES_ORIGIN ["COM"]
properties('MP2/aug-cc-pvtz', properties = ['dipole'])
--------------------------------------------------------------------------

    Molecular point group: c1
  Charge       = 0
  Multiplicity = 1
  Basis Set: AUG-CC-PVTZ
    Blend: AUG-CC-PVTZ
  Basis Set: (AUG-CC-PVTZ AUX)
    Blend: AUG-CC-PVTZ-JKFIT

    Orbital Energies [Eh]
    ---------------------

    Doubly Occupied:

       1A    -15.638094     2A    -15.579605     3A    -15.578660
       4A    -15.565493     5A    -11.354612     6A    -11.313078
       7A    -11.310296     8A    -11.284481     9A    -11.254226
      10A    -11.252328    11A    -11.233212    12A    -11.215096
      13A     -1.388544    14A     -1.323374    15A     -1.207659
      16A     -1.129777    17A     -1.083902    18A     -1.047327
      19A     -0.956997    20A     -0.919308    21A     -0.893880
      22A     -0.801670    23A     -0.795264    24A     -0.719254
      25A     -0.710161    26A     -0.682155    27A     -0.640336
      28A     -0.634263    29A     -0.608525    30A     -0.595047
      31A     -0.587809    32A     -0.577831    33A     -0.562387
      34A     -0.552054    35A     -0.534150    36A     -0.485852
      37A     -0.452503    38A     -0.430089    39A     -0.412909
      40A     -0.408670    41A     -0.339581    42A     -0.330398

  @DF-RHF Final Energy:  -525.54037701850609

   => Energetics <=

    Nuclear Repulsion Energy =            660.7359391588131530
    One-Electron Energy =               -2023.7709163966296728
    Two-Electron Energy =                 837.4946002193104277
    Total Energy =                       -525.5403770185060921
  Basis Set: (AUG-CC-PVTZ AUX)
    Blend: AUG-CC-PVTZ-RI
    Molecular point group: c1

    Geometry (in Angstrom), charge = 0, multiplicity = 1:

       Center              X                  Y                   Z               Mass
    ------------   -----------------  -----------------  -----------------  -----------------
         N            0.822687268523    -0.269026334411    -0.034292720619    14.003074004430
         N            1.365134268523    -1.496377334411    -0.263371720619    14.003074004430
         N           -1.075194731477     1.017556665589    -0.450037720619    14.003074004430
         N           -1.256461331477    -1.125672234411     0.400020979381    14.003074004430
         C            1.766303268523     0.725106665589     0.137307279381    12.000000000000
         C            2.985202268523     0.083212665589     0.011691279381    12.000000000000
         C           -0.583762731477    -0.149518334411    -0.014762720619    12.000000000000
         C            1.460529268523     2.154702665589     0.441746279381    12.000000000000
         C            2.685978268523    -1.269283334411    -0.236230720619    12.000000000000
         C           -2.414497731477     1.122815665589    -0.428144720619    12.000000000000
         C           -2.597328731477    -1.087525334411     0.407321279381    12.000000000000
         C           -3.234874731477     0.076918665589    -0.017537720619    12.000000000000
         H            3.959449268523     0.544919665589     0.103010279381     1.007825032230
         H            1.019779268523     2.668702665589    -0.414377720619     1.007825032230
         H            0.761034268523     2.250323665589     1.277100279381     1.007825032230
         H            2.393018268523     2.654525665589     0.717110279381     1.007825032230
         H            3.362741268523    -2.097207334411    -0.406155720619     1.007825032230
         H           -2.823893731477     2.071516665589    -0.769614720619     1.007825032230
         H           -3.161848731477    -1.950119334411     0.756225279381     1.007825032230
         H           -4.316088731477     0.165850665589    -0.021095720619     1.007825032230

  Basis Set: AUG-CC-PVTZ
    Blend: AUG-CC-PVTZ
  Basis Set: (AUG-CC-PVTZ AUX)
    Blend: AUG-CC-PVTZ-JKFIT
	 Reference Energy          =    -525.5403770185060921 [Eh]
	 Singles Energy            =      -0.0000000000000000 [Eh]
	 Same-Spin Energy          =      -0.5771373447054824 [Eh]
	 Opposite-Spin Energy      =      -1.7366578846580063 [Eh]
	 Correlation Energy        =      -2.3137952293634889 [Eh]
	 Total Energy              =    -527.8541722478695419 [Eh]

	 ================> DF-SCS-MP2 Energies <==================
	-----------------------------------------------------------
	 SCS Same-Spin Scale       =       0.3333333333333333 [-]
	 SCS Opposite-Spin Scale   =       1.2000000000000000 [-]
	 SCS Same-Spin Energy      =      -0.1923791149018275 [Eh]
	 SCS Opposite-Spin Energy  =      -2.0839894615896073 [Eh]
	 SCS Correlation Energy    =      -2.2763685764914348 [Eh]
	 SCS Total Energy          =    -527.8167455949975420 [Eh]
	-----------------------------------------------------------

  Dipole Moment: [D]
     X:    -2.7684      Y:     2.4081      Z:     0.5050     Total:     3.7037

*** Psi4 exiting successfully. Buy a developer a beer!
