                               Psi4 1.4a3.dev225

  ==> Input File <==

--------------------------------------------------------------------------
#psi4
#
memory 32 gb

molecule  {
0 1
  N        0.8160970    -0.2990240    -0.0443680
  N        1.3585440    -1.5263750    -0.2734470
  N       -1.0817850     0.9875590    -0.4601130
  N       -1.2686320    -1.2431920     0.4227390
  C        1.7597130     0.6951090     0.1272320
  C        3.0226696     0.0300135    -0.0029244
  C       -0.5903530    -0.1795160    -0.0248380
  C        1.4539390     2.1247050     0.4316710
  C        2.6793880    -1.2992810    -0.2463060
  C       -2.4210880     1.0928180    -0.4382200
  C       -2.6039190    -1.1175230     0.3972460
  C       -3.2414650     0.0469210    -0.0276130
  H        3.9528590     0.5149220     0.0929350
  H        1.0131890     2.6387050    -0.4244530
  H        0.7544440     2.2203260     1.2670250
  H        2.3864280     2.6245280     0.7070350
  H        3.3561510    -2.1272050    -0.4162310
  H       -2.8304840     2.0415190    -0.7796900
  H       -3.1684390    -1.9801170     0.7461500
  H       -4.3226790     0.1358530    -0.0311710
units angstrom
no_reorient  #important for SAPT in psi4, default
symmetry c1  #important for SAPT in psi4, default
}

set PROPERTIES_ORIGIN ["COM"]
properties('MP2/aug-cc-pvtz', properties = ['dipole'])
--------------------------------------------------------------------------

    Molecular point group: c1
  Charge       = 0
  Multiplicity = 1
  Basis Set: AUG-CC-PVTZ
    Blend: AUG-CC-PVTZ
  Basis Set: (AUG-CC-PVTZ AUX)
    Blend: AUG-CC-PVTZ-JKFIT

    Orbital Energies [Eh]
    ---------------------

    Doubly Occupied:

       1A    -15.645602     2A    -15.583706     3A    -15.579869
       4A    -15.578119     5A    -11.368549     6A    -11.312361
       7A    -11.310297     8A    -11.293617     9A    -11.253810
      10A    -11.253361    11A    -11.235733    12A    -11.218650
      13A     -1.385738    14A     -1.312710    15A     -1.207050
      16A     -1.130018    17A     -1.079729    18A     -1.045191
      19A     -0.958825    20A     -0.909815    21A     -0.898418
      22A     -0.799084    23A     -0.797611    24A     -0.713615
      25A     -0.706811    26A     -0.682984    27A     -0.637928
      28A     -0.635084    29A     -0.609615    30A     -0.591899
      31A     -0.586972    32A     -0.575696    33A     -0.568768
      34A     -0.553091    35A     -0.526760    36A     -0.492087
      37A     -0.455265    38A     -0.431291    39A     -0.421103
      40A     -0.408388    41A     -0.340326    42A     -0.324998

  @DF-RHF Final Energy:  -525.53887328614542

   => Energetics <=

    Nuclear Repulsion Energy =            657.3657994556300537
    One-Electron Energy =               -2016.9682568588516460
    Two-Electron Energy =                 834.0635841170762887
    Total Energy =                       -525.5388732861454173
  Basis Set: (AUG-CC-PVTZ AUX)
    Blend: AUG-CC-PVTZ-RI
    Molecular point group: c1

    Geometry (in Angstrom), charge = 0, multiplicity = 1:

       Center              X                  Y                   Z               Mass
    ------------   -----------------  -----------------  -----------------  -----------------
         N            0.819872658261    -0.259630754728    -0.036821050895    14.003074004430
         N            1.362319658261    -1.486981754728    -0.265900050895    14.003074004430
         N           -1.078009341739     1.026952245272    -0.452566050895    14.003074004430
         N           -1.264856341739    -1.203798754728     0.430285949105    14.003074004430
         C            1.763488658261     0.734502245272     0.134778949105    12.000000000000
         C            3.026445258261     0.069406745272     0.004622549105    12.000000000000
         C           -0.586577341739    -0.140122754728    -0.017291050895    12.000000000000
         C            1.457714658261     2.164098245272     0.439217949105    12.000000000000
         C            2.683163658261    -1.259887754728    -0.238759050895    12.000000000000
         C           -2.417312341739     1.132211245272    -0.430673050895    12.000000000000
         C           -2.600143341739    -1.078129754728     0.404792949105    12.000000000000
         C           -3.237689341739     0.086314245272    -0.020066050895    12.000000000000
         H            3.956634658261     0.554315245272     0.100481949105     1.007825032230
         H            1.016964658261     2.678098245272    -0.416906050895     1.007825032230
         H            0.758219658261     2.259719245272     1.274571949105     1.007825032230
         H            2.390203658261     2.663921245272     0.714581949105     1.007825032230
         H            3.359926658261    -2.087811754728    -0.408684050895     1.007825032230
         H           -2.826708341739     2.080912245272    -0.772143050895     1.007825032230
         H           -3.164663341739    -1.940723754728     0.753696949105     1.007825032230
         H           -4.318903341739     0.175246245272    -0.023624050895     1.007825032230

  Basis Set: AUG-CC-PVTZ
    Blend: AUG-CC-PVTZ
  Basis Set: (AUG-CC-PVTZ AUX)
    Blend: AUG-CC-PVTZ-JKFIT
	 Reference Energy          =    -525.5388732861454173 [Eh]
	 Singles Energy            =      -0.0000000000000000 [Eh]
	 Same-Spin Energy          =      -0.5781841039295992 [Eh]
	 Opposite-Spin Energy      =      -1.7395470441152308 [Eh]
	 Correlation Energy        =      -2.3177311480448299 [Eh]
	 Total Energy              =    -527.8566044341902170 [Eh]

	 ================> DF-SCS-MP2 Energies <==================
	-----------------------------------------------------------
	 SCS Same-Spin Scale       =       0.3333333333333333 [-]
	 SCS Opposite-Spin Scale   =       1.2000000000000000 [-]
	 SCS Same-Spin Energy      =      -0.1927280346431997 [Eh]
	 SCS Opposite-Spin Energy  =      -2.0874564529382766 [Eh]
	 SCS Correlation Energy    =      -2.2801844875814763 [Eh]
	 SCS Total Energy          =    -527.8190577737268541 [Eh]
	-----------------------------------------------------------

  Dipole Moment: [D]
     X:    -2.6922      Y:     2.5857      Z:     0.4469     Total:     3.7594

*** Psi4 exiting successfully. Buy a developer a beer!
