                               Psi4 1.3.2 release

  ==> Input File <==

--------------------------------------------------------------------------
#psi4
#
memory 32 gb

molecule  {
0 1
  N        0.8188734    -0.2532472    -0.0623863
  N        1.3585440    -1.5263750    -0.2734470
  N       -1.0817850     0.9875590    -0.4601130
  N       -1.2686320    -1.2431920     0.4227390
  C        1.7597130     0.6951090     0.1272320
  C        2.9786120     0.0532150     0.0016160
  C       -0.5903530    -0.1795160    -0.0248380
  C        1.4539390     2.1247050     0.4316710
  C        2.6793880    -1.2992810    -0.2463060
  C       -2.4210880     1.0928180    -0.4382200
  C       -2.6039190    -1.1175230     0.3972460
  C       -3.2414650     0.0469210    -0.0276130
  H        3.9528590     0.5149220     0.0929350
  H        1.0131890     2.6387050    -0.4244530
  H        0.7544440     2.2203260     1.2670250
  H        2.3864280     2.6245280     0.7070350
  H        3.3561510    -2.1272050    -0.4162310
  H       -2.8304840     2.0415190    -0.7796900
  H       -3.1684390    -1.9801170     0.7461500
  H       -4.3226790     0.1358530    -0.0311710
units angstrom
no_reorient  #important for SAPT in psi4, default
symmetry c1  #important for SAPT in psi4, default
}

set PROPERTIES_ORIGIN ["COM"]
properties('MP2/aug-cc-pvtz', properties = ['dipole'])
--------------------------------------------------------------------------

    Molecular point group: c1
  Charge       = 0
  Multiplicity = 1
  Basis Set: AUG-CC-PVTZ
    Blend: AUG-CC-PVTZ
  Basis Set: (AUG-CC-PVTZ AUX)
    Blend: AUG-CC-PVTZ-JKFIT

    Orbital Energies [Eh]
    ---------------------

    Doubly Occupied:

       1A    -15.640109     2A    -15.581383     3A    -15.580586
       4A    -15.579607     5A    -11.368025     6A    -11.310916
       7A    -11.309896     8A    -11.287228     9A    -11.256980
      10A    -11.252686    11A    -11.234497    12A    -11.215138
      13A     -1.381038    14A     -1.310482    15A     -1.206172
      16A     -1.131208    17A     -1.086089    18A     -1.043469
      19A     -0.958778    20A     -0.909019    21A     -0.898085
      22A     -0.798954    23A     -0.796263    24A     -0.713599
      25A     -0.706024    26A     -0.682095    27A     -0.638556
      28A     -0.632594    29A     -0.607198    30A     -0.590974
      31A     -0.585313    32A     -0.574296    33A     -0.561216
      34A     -0.550218    35A     -0.536432    36A     -0.492348
      37A     -0.454515    38A     -0.430381    39A     -0.420080
      40A     -0.408762    41A     -0.343555    42A     -0.328869

  @DF-RHF Final Energy:  -525.54138683025951

   => Energetics <=

    Nuclear Repulsion Energy =            658.2982086206237682
    One-Electron Energy =               -2018.8919236891736091
    Two-Electron Energy =                 835.0523282382904426
    Total Energy =                       -525.5413868302595120
  Basis Set: (AUG-CC-PVTZ AUX)
    Blend: AUG-CC-PVTZ-RI
    Molecular point group: c1

    Geometry (in Angstrom), charge = 0, multiplicity = 1:

       Center              X                  Y                   Z               Mass
    ------------   -----------------  -----------------  -----------------  -----------------
         N            0.825708957575    -0.219597728046    -0.053603511967    14.003074004430
         N            1.365379557575    -1.492725528046    -0.264664211967    14.003074004430
         N           -1.074949442425     1.021208471954    -0.451330211967    14.003074004430
         N           -1.261796442425    -1.209542528046     0.431521788033    14.003074004430
         C            1.766548557575     0.728758471954     0.136014788033    12.000000000000
         C            2.985447557575     0.086864471954     0.010398788033    12.000000000000
         C           -0.583517442425    -0.145866528046    -0.016055211967    12.000000000000
         C            1.460774557575     2.158354471954     0.440453788033    12.000000000000
         C            2.686223557575    -1.265631528046    -0.237523211967    12.000000000000
         C           -2.414252442425     1.126467471954    -0.429437211967    12.000000000000
         C           -2.597083442425    -1.083873528046     0.406028788033    12.000000000000
         C           -3.234629442425     0.080570471954    -0.018830211967    12.000000000000
         H            3.959694557575     0.548571471954     0.101717788033     1.007825032230
         H            1.020024557575     2.672354471954    -0.415670211967     1.007825032230
         H            0.761279557575     2.253975471954     1.275807788033     1.007825032230
         H            2.393263557575     2.658177471954     0.715817788033     1.007825032230
         H            3.362986557575    -2.093555528046    -0.407448211967     1.007825032230
         H           -2.823648442425     2.075168471954    -0.770907211967     1.007825032230
         H           -3.161603442425    -1.946467528046     0.754932788033     1.007825032230
         H           -4.315843442425     0.169502471954    -0.022388211967     1.007825032230

  Basis Set: AUG-CC-PVTZ
    Blend: AUG-CC-PVTZ
  Basis Set: (AUG-CC-PVTZ AUX)
    Blend: AUG-CC-PVTZ-JKFIT
	 Reference Energy          =    -525.5413868302595120 [Eh]
	 Singles Energy            =      -0.0000000000000000 [Eh]
	 Same-Spin Energy          =      -0.5773887216747675 [Eh]
	 Opposite-Spin Energy      =      -1.7388323120952789 [Eh]
	 Correlation Energy        =      -2.3162210337700464 [Eh]
	 Total Energy              =    -527.8576078640295464 [Eh]

	 ================> DF-SCS-MP2 Energies <==================
	-----------------------------------------------------------
	 SCS Same-Spin Scale       =       0.3333333333333333 [-]
	 SCS Opposite-Spin Scale   =       1.2000000000000000 [-]
	 SCS Same-Spin Energy      =      -0.1924629072249225 [Eh]
	 SCS Opposite-Spin Energy  =      -2.0865987745143344 [Eh]
	 SCS Correlation Energy    =      -2.2790616817392571 [Eh]
	 SCS Total Energy          =    -527.8204485119987339 [Eh]
	-----------------------------------------------------------

  Dipole Moment: [D]
     X:    -2.5796      Y:     2.5243      Z:     0.4444     Total:     3.6365

*** Psi4 exiting successfully. Buy a developer a beer!
