                               Psi4 1.4a3.dev225

  ==> Input File <==

--------------------------------------------------------------------------
#psi4
#
memory 32 gb

molecule  {
0 1
  N        0.8160970    -0.2990240    -0.0443680
  N        1.3585440    -1.5263750    -0.2734470
  N       -1.0817850     0.9875590    -0.4601130
  N       -1.2686320    -1.2431920     0.4227390
  C        1.7597130     0.6951090     0.1272320
  C        2.9345544     0.0764165     0.0061564
  C       -0.5903530    -0.1795160    -0.0248380
  C        1.4539390     2.1247050     0.4316710
  C        2.6793880    -1.2992810    -0.2463060
  C       -2.4210880     1.0928180    -0.4382200
  C       -2.6039190    -1.1175230     0.3972460
  C       -3.2414650     0.0469210    -0.0276130
  H        3.9528590     0.5149220     0.0929350
  H        1.0131890     2.6387050    -0.4244530
  H        0.7544440     2.2203260     1.2670250
  H        2.3864280     2.6245280     0.7070350
  H        3.3561510    -2.1272050    -0.4162310
  H       -2.8304840     2.0415190    -0.7796900
  H       -3.1684390    -1.9801170     0.7461500
  H       -4.3226790     0.1358530    -0.0311710
units angstrom
no_reorient  #important for SAPT in psi4, default
symmetry c1  #important for SAPT in psi4, default
}

set PROPERTIES_ORIGIN ["COM"]
properties('MP2/aug-cc-pvtz', properties = ['dipole'])
--------------------------------------------------------------------------

    Molecular point group: c1
  Charge       = 0
  Multiplicity = 1
  Basis Set: AUG-CC-PVTZ
    Blend: AUG-CC-PVTZ
  Basis Set: (AUG-CC-PVTZ AUX)
    Blend: AUG-CC-PVTZ-JKFIT

    Orbital Energies [Eh]
    ---------------------

    Doubly Occupied:

       1A    -15.638618     2A    -15.584812     3A    -15.581125
       4A    -15.577427     5A    -11.366220     6A    -11.310686
       7A    -11.308663     8A    -11.279194     9A    -11.256007
      10A    -11.251557    11A    -11.233678    12A    -11.215994
      13A     -1.387130    14A     -1.312402    15A     -1.205009
      16A     -1.128685    17A     -1.090051    18A     -1.044587
      19A     -0.959048    20A     -0.908372    21A     -0.894487
      22A     -0.802710    23A     -0.791546    24A     -0.713526
      25A     -0.707553    26A     -0.682449    27A     -0.638817
      28A     -0.631944    29A     -0.605338    30A     -0.588258
      31A     -0.586186    32A     -0.575282    33A     -0.557341
      34A     -0.552024    35A     -0.542577    36A     -0.490936
      37A     -0.454636    38A     -0.429719    39A     -0.419314
      40A     -0.407182    41A     -0.340599    42A     -0.335813

  @DF-RHF Final Energy:  -525.54189612834386

   => Energetics <=

    Nuclear Repulsion Energy =            659.2170340670047608
    One-Electron Energy =               -2020.7428572003234422
    Two-Electron Energy =                 835.9839270049748166
    Total Energy =                       -525.5418961283438648
  Basis Set: (AUG-CC-PVTZ AUX)
    Blend: AUG-CC-PVTZ-RI
    Molecular point group: c1

    Geometry (in Angstrom), charge = 0, multiplicity = 1:

       Center              X                  Y                   Z               Mass
    ------------   -----------------  -----------------  -----------------  -----------------
         N            0.826478206193    -0.263109351391    -0.037501792239    14.003074004430
         N            1.368925206193    -1.490460351391    -0.266580792239    14.003074004430
         N           -1.071403793807     1.023473648609    -0.453246792239    14.003074004430
         N           -1.258250793807    -1.207277351391     0.429605207761    14.003074004430
         C            1.770094206193     0.731023648609     0.134098207761    12.000000000000
         C            2.944935606193     0.112331148609     0.013022607761    12.000000000000
         C           -0.579971793807    -0.143601351391    -0.017971792239    12.000000000000
         C            1.464320206193     2.160619648609     0.438537207761    12.000000000000
         C            2.689769206193    -1.263366351391    -0.239439792239    12.000000000000
         C           -2.410706793807     1.128732648609    -0.431353792239    12.000000000000
         C           -2.593537793807    -1.081608351391     0.404112207761    12.000000000000
         C           -3.231083793807     0.082835648609    -0.020746792239    12.000000000000
         H            3.963240206193     0.550836648609     0.099801207761     1.007825032230
         H            1.023570206193     2.674619648609    -0.417586792239     1.007825032230
         H            0.764825206193     2.256240648609     1.273891207761     1.007825032230
         H            2.396809206193     2.660442648609     0.713901207761     1.007825032230
         H            3.366532206193    -2.091290351391    -0.409364792239     1.007825032230
         H           -2.820102793807     2.077433648609    -0.772823792239     1.007825032230
         H           -3.158057793807    -1.944202351391     0.753016207761     1.007825032230
         H           -4.312297793807     0.171767648609    -0.024304792239     1.007825032230

  Basis Set: AUG-CC-PVTZ
    Blend: AUG-CC-PVTZ
  Basis Set: (AUG-CC-PVTZ AUX)
    Blend: AUG-CC-PVTZ-JKFIT
	 Reference Energy          =    -525.5418961283438648 [Eh]
	 Singles Energy            =      -0.0000000000000000 [Eh]
	 Same-Spin Energy          =      -0.5769603376986369 [Eh]
	 Opposite-Spin Energy      =      -1.7379165987865168 [Eh]
	 Correlation Energy        =      -2.3148769364851538 [Eh]
	 Total Energy              =    -527.8567730648289853 [Eh]

	 ================> DF-SCS-MP2 Energies <==================
	-----------------------------------------------------------
	 SCS Same-Spin Scale       =       0.3333333333333333 [-]
	 SCS Opposite-Spin Scale   =       1.2000000000000000 [-]
	 SCS Same-Spin Energy      =      -0.1923201125662123 [Eh]
	 SCS Opposite-Spin Energy  =      -2.0854999185438201 [Eh]
	 SCS Correlation Energy    =      -2.2778200311100325 [Eh]
	 SCS Total Energy          =    -527.8197161594539466 [Eh]
	-----------------------------------------------------------

  Dipole Moment: [D]
     X:    -2.4628      Y:     2.5173      Z:     0.4314     Total:     3.5480

*** Psi4 exiting successfully. Buy a developer a beer!
