                               Psi4 1.3.2 release

  ==> Input File <==

--------------------------------------------------------------------------
#psi4
#
memory 32 gb

molecule  {
0 1
  N        0.8160970    -0.2990240    -0.0443680
  N        1.3585440    -1.5263750    -0.2734470
  N       -1.1249122     0.9715326    -0.4518830
  N       -1.2686320    -1.2431920     0.4227390
  C        1.7597130     0.6951090     0.1272320
  C        2.9786120     0.0532150     0.0016160
  C       -0.5903530    -0.1795160    -0.0248380
  C        1.4539390     2.1247050     0.4316710
  C        2.6793880    -1.2992810    -0.2463060
  C       -2.4210880     1.0928180    -0.4382200
  C       -2.6039190    -1.1175230     0.3972460
  C       -3.2414650     0.0469210    -0.0276130
  H        3.9528590     0.5149220     0.0929350
  H        1.0131890     2.6387050    -0.4244530
  H        0.7544440     2.2203260     1.2670250
  H        2.3864280     2.6245280     0.7070350
  H        3.3561510    -2.1272050    -0.4162310
  H       -2.8304840     2.0415190    -0.7796900
  H       -3.1684390    -1.9801170     0.7461500
  H       -4.3226790     0.1358530    -0.0311710
units angstrom
no_reorient  #important for SAPT in psi4, default
symmetry c1  #important for SAPT in psi4, default
}

set PROPERTIES_ORIGIN ["COM"]
properties('MP2/aug-cc-pvtz', properties = ['dipole'])
--------------------------------------------------------------------------

    Molecular point group: c1
  Charge       = 0
  Multiplicity = 1
  Basis Set: AUG-CC-PVTZ
    Blend: AUG-CC-PVTZ
  Basis Set: (AUG-CC-PVTZ AUX)
    Blend: AUG-CC-PVTZ-JKFIT

    Orbital Energies [Eh]
    ---------------------

    Doubly Occupied:

       1A    -15.644360     2A    -15.582791     3A    -15.577453
       4A    -15.577228     5A    -11.368119     6A    -11.306097
       7A    -11.305652     8A    -11.288065     9A    -11.255831
      10A    -11.249975    11A    -11.236101    12A    -11.218488
      13A     -1.387636    14A     -1.318109    15A     -1.210256
      16A     -1.130892    17A     -1.084957    18A     -1.044236
      19A     -0.960104    20A     -0.907935    21A     -0.899356
      22A     -0.802656    23A     -0.797252    24A     -0.716492
      25A     -0.708048    26A     -0.683209    27A     -0.639603
      28A     -0.632539    29A     -0.608425    30A     -0.591872
      31A     -0.588217    32A     -0.577744    33A     -0.564988
      34A     -0.554770    35A     -0.536876    36A     -0.489938
      37A     -0.455491    38A     -0.434158    39A     -0.414934
      40A     -0.406810    41A     -0.337359    42A     -0.333538

  @DF-RHF Final Energy:  -525.54412778225128

   => Energetics <=

    Nuclear Repulsion Energy =            658.7513113479396907
    One-Electron Energy =               -2019.7337550792547063
    Two-Electron Energy =                 835.4383159490637354
    Total Energy =                       -525.5441277822512802
  Basis Set: (AUG-CC-PVTZ AUX)
    Blend: AUG-CC-PVTZ-RI
    Molecular point group: c1

    Geometry (in Angstrom), charge = 0, multiplicity = 1:

       Center              X                  Y                   Z               Mass
    ------------   -----------------  -----------------  -----------------  -----------------
         N            0.826948124805    -0.259968091412    -0.037881367678    14.003074004430
         N            1.369395124805    -1.487319091412    -0.266960367678    14.003074004430
         N           -1.114061075195     1.010588508588    -0.445396367678    14.003074004430
         N           -1.257780875195    -1.204136091412     0.429225632322    14.003074004430
         C            1.770564124805     0.734164908588     0.133718632322    12.000000000000
         C            2.989463124805     0.092270908588     0.008102632322    12.000000000000
         C           -0.579501875195    -0.140460091412    -0.018351367678    12.000000000000
         C            1.464790124805     2.163760908588     0.438157632322    12.000000000000
         C            2.690239124805    -1.260225091412    -0.239819367678    12.000000000000
         C           -2.410236875195     1.131873908588    -0.431733367678    12.000000000000
         C           -2.593067875195    -1.078467091412     0.403732632322    12.000000000000
         C           -3.230613875195     0.085976908588    -0.021126367678    12.000000000000
         H            3.963710124805     0.553977908588     0.099421632322     1.007825032230
         H            1.024040124805     2.677760908588    -0.417966367678     1.007825032230
         H            0.765295124805     2.259381908588     1.273511632322     1.007825032230
         H            2.397279124805     2.663583908588     0.713521632322     1.007825032230
         H            3.367002124805    -2.088149091412    -0.409744367678     1.007825032230
         H           -2.819632875195     2.080574908588    -0.773203367678     1.007825032230
         H           -3.157587875195    -1.941061091412     0.752636632322     1.007825032230
         H           -4.311827875195     0.174908908588    -0.024684367678     1.007825032230

  Basis Set: AUG-CC-PVTZ
    Blend: AUG-CC-PVTZ
  Basis Set: (AUG-CC-PVTZ AUX)
    Blend: AUG-CC-PVTZ-JKFIT
	 Reference Energy          =    -525.5441277822512802 [Eh]
	 Singles Energy            =      -0.0000000000000000 [Eh]
	 Same-Spin Energy          =      -0.5771896812994474 [Eh]
	 Opposite-Spin Energy      =      -1.7373140639062234 [Eh]
	 Correlation Energy        =      -2.3145037452056707 [Eh]
	 Total Energy              =    -527.8586315274569642 [Eh]

	 ================> DF-SCS-MP2 Energies <==================
	-----------------------------------------------------------
	 SCS Same-Spin Scale       =       0.3333333333333333 [-]
	 SCS Opposite-Spin Scale   =       1.2000000000000000 [-]
	 SCS Same-Spin Energy      =      -0.1923965604331491 [Eh]
	 SCS Opposite-Spin Energy  =      -2.0847768766874681 [Eh]
	 SCS Correlation Energy    =      -2.2771734371206174 [Eh]
	 SCS Total Energy          =    -527.8213012193718896 [Eh]
	-----------------------------------------------------------

  Dipole Moment: [D]
     X:    -2.4237      Y:     2.5995      Z:     0.4193     Total:     3.5787

*** Psi4 exiting successfully. Buy a developer a beer!
