                               Psi4 1.3.2 release

  ==> Input File <==

--------------------------------------------------------------------------
#psi4
#
memory 32 gb

molecule  {
0 1
  N        0.8160970    -0.2990240    -0.0443680
  N        1.3585440    -1.5263750    -0.2734470
  N       -1.0817850     0.9875590    -0.4601130
  N       -1.2686320    -1.2431920     0.4227390
  C        1.7597130     0.6951090     0.1272320
  C        3.0264068     0.0423098    -0.0014433
  C       -0.5903530    -0.1795160    -0.0248380
  C        1.4539390     2.1247050     0.4316710
  C        2.6793880    -1.2992810    -0.2463060
  C       -2.4210880     1.0928180    -0.4382200
  C       -2.6039190    -1.1175230     0.3972460
  C       -3.2414650     0.0469210    -0.0276130
  H        3.9528590     0.5149220     0.0929350
  H        1.0131890     2.6387050    -0.4244530
  H        0.7544440     2.2203260     1.2670250
  H        2.3864280     2.6245280     0.7070350
  H        3.3561510    -2.1272050    -0.4162310
  H       -2.8304840     2.0415190    -0.7796900
  H       -3.1684390    -1.9801170     0.7461500
  H       -4.3226790     0.1358530    -0.0311710
units angstrom
no_reorient  #important for SAPT in psi4, default
symmetry c1  #important for SAPT in psi4, default
}

set PROPERTIES_ORIGIN ["COM"]
properties('MP2/aug-cc-pvtz', properties = ['dipole'])
--------------------------------------------------------------------------

    Molecular point group: c1
  Charge       = 0
  Multiplicity = 1
  Basis Set: AUG-CC-PVTZ
    Blend: AUG-CC-PVTZ
  Basis Set: (AUG-CC-PVTZ AUX)
    Blend: AUG-CC-PVTZ-JKFIT

    Orbital Energies [Eh]
    ---------------------

    Doubly Occupied:

       1A    -15.645206     2A    -15.583550     3A    -15.579771
       4A    -15.579079     5A    -11.368534     6A    -11.312281
       7A    -11.310244     8A    -11.293679     9A    -11.255040
      10A    -11.253680    11A    -11.235327    12A    -11.219067
      13A     -1.385572    14A     -1.312543    15A     -1.206963
      16A     -1.129521    17A     -1.080053    18A     -1.044608
      19A     -0.958211    20A     -0.909795    21A     -0.897990
      22A     -0.799695    23A     -0.797893    24A     -0.713528
      25A     -0.706417    26A     -0.682557    27A     -0.638024
      28A     -0.635456    29A     -0.610496    30A     -0.592606
      31A     -0.586964    32A     -0.575856    33A     -0.568199
      34A     -0.552825    35A     -0.526463    36A     -0.492089
      37A     -0.455368    38A     -0.431241    39A     -0.421051
      40A     -0.407809    41A     -0.339538    42A     -0.326009

  @DF-RHF Final Energy:  -525.53889764929170

   => Energetics <=

    Nuclear Repulsion Energy =            657.2174391339142403
    One-Electron Energy =               -2016.6710765569450814
    Two-Electron Energy =                 833.9147397737391429
    Total Energy =                       -525.5388976492916981
  Basis Set: (AUG-CC-PVTZ AUX)
    Blend: AUG-CC-PVTZ-RI
    Molecular point group: c1

    Geometry (in Angstrom), charge = 0, multiplicity = 1:

       Center              X                  Y                   Z               Mass
    ------------   -----------------  -----------------  -----------------  -----------------
         N            0.819592499404    -0.260552545736    -0.036932081422    14.003074004430
         N            1.362039499404    -1.487903545736    -0.266011081422    14.003074004430
         N           -1.078289500596     1.026030454264    -0.452677081422    14.003074004430
         N           -1.265136500596    -1.204720545736     0.430174918578    14.003074004430
         C            1.763208499404     0.733580454264     0.134667918578    12.000000000000
         C            3.029902299404     0.080781254264     0.005992618578    12.000000000000
         C           -0.586857500596    -0.141044545736    -0.017402081422    12.000000000000
         C            1.457434499404     2.163176454264     0.439106918578    12.000000000000
         C            2.682883499404    -1.260809545736    -0.238870081422    12.000000000000
         C           -2.417592500596     1.131289454264    -0.430784081422    12.000000000000
         C           -2.600423500596    -1.079051545736     0.404681918578    12.000000000000
         C           -3.237969500596     0.085392454264    -0.020177081422    12.000000000000
         H            3.956354499404     0.553393454264     0.100370918578     1.007825032230
         H            1.016684499404     2.677176454264    -0.417017081422     1.007825032230
         H            0.757939499404     2.258797454264     1.274460918578     1.007825032230
         H            2.389923499404     2.662999454264     0.714470918578     1.007825032230
         H            3.359646499404    -2.088733545736    -0.408795081422     1.007825032230
         H           -2.826988500596     2.079990454264    -0.772254081422     1.007825032230
         H           -3.164943500596    -1.941645545736     0.753585918578     1.007825032230
         H           -4.319183500596     0.174324454264    -0.023735081422     1.007825032230

  Basis Set: AUG-CC-PVTZ
    Blend: AUG-CC-PVTZ
  Basis Set: (AUG-CC-PVTZ AUX)
    Blend: AUG-CC-PVTZ-JKFIT
	 Reference Energy          =    -525.5388976492916981 [Eh]
	 Singles Energy            =      -0.0000000000000000 [Eh]
	 Same-Spin Energy          =      -0.5779894652308717 [Eh]
	 Opposite-Spin Energy      =      -1.7394222153466825 [Eh]
	 Correlation Energy        =      -2.3174116805775542 [Eh]
	 Total Energy              =    -527.8563093298693047 [Eh]

	 ================> DF-SCS-MP2 Energies <==================
	-----------------------------------------------------------
	 SCS Same-Spin Scale       =       0.3333333333333333 [-]
	 SCS Opposite-Spin Scale   =       1.2000000000000000 [-]
	 SCS Same-Spin Energy      =      -0.1926631550769572 [Eh]
	 SCS Opposite-Spin Energy  =      -2.0873066584160189 [Eh]
	 SCS Correlation Energy    =      -2.2799698134929760 [Eh]
	 SCS Total Energy          =    -527.8188674627846240 [Eh]
	-----------------------------------------------------------

  Dipole Moment: [D]
     X:    -2.6786      Y:     2.5769      Z:     0.4454     Total:     3.7435

*** Psi4 exiting successfully. Buy a developer a beer!
