                               Psi4 1.4a3.dev225

  ==> Input File <==

--------------------------------------------------------------------------
#psi4
#
memory 32 gb

molecule  {
0 1
  N        0.8160970    -0.2990240    -0.0443680
  N        1.3585440    -1.5263750    -0.2734470
  N       -1.0817850     0.9875590    -0.4601130
  N       -1.2686320    -1.2431920     0.4227390
  C        1.7597130     0.6951090     0.1272320
  C        2.9786120     0.0532150     0.0016160
  C       -0.5903530    -0.1795160    -0.0248380
  C        1.4539390     2.1247050     0.4316710
  C        2.6793880    -1.2992810    -0.2463060
  C       -2.3712483     1.0889010    -0.4390347
  C       -2.6039190    -1.1175230     0.3972460
  C       -3.2414650     0.0469210    -0.0276130
  H        3.9528590     0.5149220     0.0929350
  H        1.0131890     2.6387050    -0.4244530
  H        0.7544440     2.2203260     1.2670250
  H        2.3864280     2.6245280     0.7070350
  H        3.3561510    -2.1272050    -0.4162310
  H       -2.8304840     2.0415190    -0.7796900
  H       -3.1684390    -1.9801170     0.7461500
  H       -4.3226790     0.1358530    -0.0311710
units angstrom
no_reorient  #important for SAPT in psi4, default
symmetry c1  #important for SAPT in psi4, default
}

set PROPERTIES_ORIGIN ["COM"]
properties('MP2/aug-cc-pvtz', properties = ['dipole'])
--------------------------------------------------------------------------

    Molecular point group: c1
  Charge       = 0
  Multiplicity = 1
  Basis Set: AUG-CC-PVTZ
    Blend: AUG-CC-PVTZ
  Basis Set: (AUG-CC-PVTZ AUX)
    Blend: AUG-CC-PVTZ-JKFIT

    Orbital Energies [Eh]
    ---------------------

    Doubly Occupied:

       1A    -15.643266     2A    -15.582251     3A    -15.581452
       4A    -15.577736     5A    -11.369357     6A    -11.311659
       7A    -11.306201     8A    -11.287725     9A    -11.255407
      10A    -11.252775    11A    -11.235908    12A    -11.218267
      13A     -1.388356    14A     -1.320141    15A     -1.215430
      16A     -1.129828    17A     -1.084359    18A     -1.041457
      19A     -0.959975    20A     -0.906687    21A     -0.898919
      22A     -0.800303    23A     -0.796610    24A     -0.715495
      25A     -0.707417    26A     -0.682233    27A     -0.640316
      28A     -0.633356    29A     -0.606009    30A     -0.590149
      31A     -0.584807    32A     -0.576999    33A     -0.565239
      34A     -0.554695    35A     -0.536975    36A     -0.493542
      37A     -0.455588    38A     -0.437959    39A     -0.417984
      40A     -0.405074    41A     -0.336304    42A     -0.333205

  @DF-RHF Final Energy:  -525.54208185964706

   => Energetics <=

    Nuclear Repulsion Energy =            659.1128447786400102
    One-Electron Energy =               -2020.4350228289656570
    Two-Electron Energy =                 835.7800961906785915
    Total Energy =                       -525.5420818596470554
  Basis Set: (AUG-CC-PVTZ AUX)
    Blend: AUG-CC-PVTZ-RI
    Molecular point group: c1

    Geometry (in Angstrom), charge = 0, multiplicity = 1:

       Center              X                  Y                   Z               Mass
    ------------   -----------------  -----------------  -----------------  -----------------
         N            0.819439203662    -0.261076415511    -0.037100347656    14.003074004430
         N            1.361886203662    -1.488427415511    -0.266179347656    14.003074004430
         N           -1.078442796338     1.025506584489    -0.452845347656    14.003074004430
         N           -1.265289796338    -1.205244415511     0.430006652344    14.003074004430
         C            1.763055203662     0.733056584489     0.134499652344    12.000000000000
         C            2.981954203662     0.091162584489     0.008883652344    12.000000000000
         C           -0.587010796338    -0.141568415511    -0.017570347656    12.000000000000
         C            1.457281203662     2.162652584489     0.438938652344    12.000000000000
         C            2.682730203662    -1.261333415511    -0.239038347656    12.000000000000
         C           -2.367906096338     1.126848584489    -0.431767047656    12.000000000000
         C           -2.600576796338    -1.079575415511     0.404513652344    12.000000000000
         C           -3.238122796338     0.084868584489    -0.020345347656    12.000000000000
         H            3.956201203662     0.552869584489     0.100202652344     1.007825032230
         H            1.016531203662     2.676652584489    -0.417185347656     1.007825032230
         H            0.757786203662     2.258273584489     1.274292652344     1.007825032230
         H            2.389770203662     2.662475584489     0.714302652344     1.007825032230
         H            3.359493203662    -2.089257415511    -0.408963347656     1.007825032230
         H           -2.827141796338     2.079466584489    -0.772422347656     1.007825032230
         H           -3.165096796338    -1.942169415511     0.753417652344     1.007825032230
         H           -4.319336796338     0.173800584489    -0.023903347656     1.007825032230

  Basis Set: AUG-CC-PVTZ
    Blend: AUG-CC-PVTZ
  Basis Set: (AUG-CC-PVTZ AUX)
    Blend: AUG-CC-PVTZ-JKFIT
	 Reference Energy          =    -525.5420818596470554 [Eh]
	 Singles Energy            =      -0.0000000000000000 [Eh]
	 Same-Spin Energy          =      -0.5772046606198360 [Eh]
	 Opposite-Spin Energy      =      -1.7377405945066573 [Eh]
	 Correlation Energy        =      -2.3149452551264931 [Eh]
	 Total Energy              =    -527.8570271147735866 [Eh]

	 ================> DF-SCS-MP2 Energies <==================
	-----------------------------------------------------------
	 SCS Same-Spin Scale       =       0.3333333333333333 [-]
	 SCS Opposite-Spin Scale   =       1.2000000000000000 [-]
	 SCS Same-Spin Energy      =      -0.1924015535399453 [Eh]
	 SCS Opposite-Spin Energy  =      -2.0852887134079885 [Eh]
	 SCS Correlation Energy    =      -2.2776902669479338 [Eh]
	 SCS Total Energy          =    -527.8197721265950122 [Eh]
	-----------------------------------------------------------

  Dipole Moment: [D]
     X:    -2.4732      Y:     2.5661      Z:     0.4310     Total:     3.5899

*** Psi4 exiting successfully. Buy a developer a beer!
