                               Psi4 1.3.2 release

  ==> Input File <==

--------------------------------------------------------------------------
#psi4
#
memory 32 gb

molecule  {
0 1
  N        0.8160970    -0.2990240    -0.0443680
  N        1.3585440    -1.5263750    -0.2734470
  N       -1.0817850     0.9875590    -0.4601130
  N       -1.2686320    -1.2431920     0.4227390
  C        1.7771759     0.6787252     0.1244278
  C        2.9786120     0.0532150     0.0016160
  C       -0.5903530    -0.1795160    -0.0248380
  C        1.4539390     2.1247050     0.4316710
  C        2.6793880    -1.2992810    -0.2463060
  C       -2.4210880     1.0928180    -0.4382200
  C       -2.6039190    -1.1175230     0.3972460
  C       -3.2414650     0.0469210    -0.0276130
  H        3.9528590     0.5149220     0.0929350
  H        1.0131890     2.6387050    -0.4244530
  H        0.7544440     2.2203260     1.2670250
  H        2.3864280     2.6245280     0.7070350
  H        3.3561510    -2.1272050    -0.4162310
  H       -2.8304840     2.0415190    -0.7796900
  H       -3.1684390    -1.9801170     0.7461500
  H       -4.3226790     0.1358530    -0.0311710
units angstrom
no_reorient  #important for SAPT in psi4, default
symmetry c1  #important for SAPT in psi4, default
}

set PROPERTIES_ORIGIN ["COM"]
properties('MP2/aug-cc-pvtz', properties = ['dipole'])
--------------------------------------------------------------------------

    Molecular point group: c1
  Charge       = 0
  Multiplicity = 1
  Basis Set: AUG-CC-PVTZ
    Blend: AUG-CC-PVTZ
  Basis Set: (AUG-CC-PVTZ AUX)
    Blend: AUG-CC-PVTZ-JKFIT

    Orbital Energies [Eh]
    ---------------------

    Doubly Occupied:

       1A    -15.640593     2A    -15.582070     3A    -15.581921
       4A    -15.578535     5A    -11.367628     6A    -11.311273
       7A    -11.309341     8A    -11.284423     9A    -11.254703
      10A    -11.252453    11A    -11.234886    12A    -11.215642
      13A     -1.386716    14A     -1.312813    15A     -1.205782
      16A     -1.128909    17A     -1.084226    18A     -1.046030
      19A     -0.956854    20A     -0.908954    21A     -0.896639
      22A     -0.801164    23A     -0.795316    24A     -0.713621
      25A     -0.707226    26A     -0.682533    27A     -0.637969
      28A     -0.634057    29A     -0.606857    30A     -0.591023
      31A     -0.585827    32A     -0.574240    33A     -0.559753
      34A     -0.552316    35A     -0.536128    36A     -0.491823
      37A     -0.455077    38A     -0.430294    39A     -0.420002
      40A     -0.408199    41A     -0.338226    42A     -0.335836

  @DF-RHF Final Energy:  -525.54392910176603

   => Energetics <=

    Nuclear Repulsion Energy =            658.3353860972863458
    One-Electron Energy =               -2018.9628776435608870
    Two-Electron Energy =                 835.0835624445085159
    Total Energy =                       -525.5439291017660253
  Basis Set: (AUG-CC-PVTZ AUX)
    Blend: AUG-CC-PVTZ-RI
    Molecular point group: c1

    Geometry (in Angstrom), charge = 0, multiplicity = 1:

       Center              X                  Y                   Z               Mass
    ------------   -----------------  -----------------  -----------------  -----------------
         N            0.821866327521    -0.260141842986    -0.036951204970    14.003074004430
         N            1.364313327521    -1.487492842986    -0.266030204970    14.003074004430
         N           -1.076015672479     1.026441157014    -0.452696204970    14.003074004430
         N           -1.262862672479    -1.204309842986     0.430155795030    14.003074004430
         C            1.782945227521     0.717607357014     0.131844595030    12.000000000000
         C            2.984381327521     0.092097157014     0.009032795030    12.000000000000
         C           -0.584583672479    -0.140633842986    -0.017421204970    12.000000000000
         C            1.459708327521     2.163587157014     0.439087795030    12.000000000000
         C            2.685157327521    -1.260398842986    -0.238889204970    12.000000000000
         C           -2.415318672479     1.131700157014    -0.430803204970    12.000000000000
         C           -2.598149672479    -1.078640842986     0.404662795030    12.000000000000
         C           -3.235695672479     0.085803157014    -0.020196204970    12.000000000000
         H            3.958628327521     0.553804157014     0.100351795030     1.007825032230
         H            1.018958327521     2.677587157014    -0.417036204970     1.007825032230
         H            0.760213327521     2.259208157014     1.274441795030     1.007825032230
         H            2.392197327521     2.663410157014     0.714451795030     1.007825032230
         H            3.361920327521    -2.088322842986    -0.408814204970     1.007825032230
         H           -2.824714672479     2.080401157014    -0.772273204970     1.007825032230
         H           -3.162669672479    -1.941234842986     0.753566795030     1.007825032230
         H           -4.316909672479     0.174735157014    -0.023754204970     1.007825032230

  Basis Set: AUG-CC-PVTZ
    Blend: AUG-CC-PVTZ
  Basis Set: (AUG-CC-PVTZ AUX)
    Blend: AUG-CC-PVTZ-JKFIT
	 Reference Energy          =    -525.5439291017660253 [Eh]
	 Singles Energy            =      -0.0000000000000000 [Eh]
	 Same-Spin Energy          =      -0.5770812386123534 [Eh]
	 Opposite-Spin Energy      =      -1.7380795274862906 [Eh]
	 Correlation Energy        =      -2.3151607660986437 [Eh]
	 Total Energy              =    -527.8590898678646681 [Eh]

	 ================> DF-SCS-MP2 Energies <==================
	-----------------------------------------------------------
	 SCS Same-Spin Scale       =       0.3333333333333333 [-]
	 SCS Opposite-Spin Scale   =       1.2000000000000000 [-]
	 SCS Same-Spin Energy      =      -0.1923604128707845 [Eh]
	 SCS Opposite-Spin Energy  =      -2.0856954329835484 [Eh]
	 SCS Correlation Energy    =      -2.2780558458543330 [Eh]
	 SCS Total Energy          =    -527.8219849476203080 [Eh]
	-----------------------------------------------------------

  Dipole Moment: [D]
     X:    -2.5398      Y:     2.5401      Z:     0.4352     Total:     3.6184

*** Psi4 exiting successfully. Buy a developer a beer!
