                               Psi4 1.3.2 release

  ==> Input File <==

--------------------------------------------------------------------------
#psi4
#
memory 32 gb

molecule  {
0 1
  N        0.8160970    -0.2990240    -0.0443680
  N        1.3585440    -1.5263750    -0.2734470
  N       -1.0817850     0.9875590    -0.4601130
  N       -1.2686320    -1.2431920     0.4227390
  C        1.7688622     0.6921450     0.1514552
  C        2.9786120     0.0532150     0.0016160
  C       -0.5903530    -0.1795160    -0.0248380
  C        1.4539390     2.1247050     0.4316710
  C        2.6793880    -1.2992810    -0.2463060
  C       -2.4210880     1.0928180    -0.4382200
  C       -2.6039190    -1.1175230     0.3972460
  C       -3.2414650     0.0469210    -0.0276130
  H        3.9528590     0.5149220     0.0929350
  H        1.0131890     2.6387050    -0.4244530
  H        0.7544440     2.2203260     1.2670250
  H        2.3864280     2.6245280     0.7070350
  H        3.3561510    -2.1272050    -0.4162310
  H       -2.8304840     2.0415190    -0.7796900
  H       -3.1684390    -1.9801170     0.7461500
  H       -4.3226790     0.1358530    -0.0311710
units angstrom
no_reorient  #important for SAPT in psi4, default
symmetry c1  #important for SAPT in psi4, default
}

set PROPERTIES_ORIGIN ["COM"]
properties('MP2/aug-cc-pvtz', properties = ['dipole'])
--------------------------------------------------------------------------

    Molecular point group: c1
  Charge       = 0
  Multiplicity = 1
  Basis Set: AUG-CC-PVTZ
    Blend: AUG-CC-PVTZ
  Basis Set: (AUG-CC-PVTZ AUX)
    Blend: AUG-CC-PVTZ-JKFIT

    Orbital Energies [Eh]
    ---------------------

    Doubly Occupied:

       1A    -15.641182     2A    -15.582288     3A    -15.582109
       4A    -15.578386     5A    -11.367068     6A    -11.311263
       7A    -11.309240     8A    -11.286433     9A    -11.254603
      10A    -11.252473    11A    -11.234585    12A    -11.217319
      13A     -1.385180    14A     -1.312197    15A     -1.205718
      16A     -1.128747    17A     -1.084496    18A     -1.045094
      19A     -0.959039    20A     -0.908819    21A     -0.895861
      22A     -0.800177    23A     -0.794334    24A     -0.713206
      25A     -0.707517    26A     -0.682676    27A     -0.637183
      28A     -0.633438    29A     -0.607032    30A     -0.589652
      31A     -0.586620    32A     -0.574934    33A     -0.562206
      34A     -0.552740    35A     -0.537555    36A     -0.491342
      37A     -0.455201    38A     -0.430252    39A     -0.419989
      40A     -0.407518    41A     -0.337715    42A     -0.333547

  @DF-RHF Final Energy:  -525.54325360510029

   => Energetics <=

    Nuclear Repulsion Energy =            658.1627902269026436
    One-Electron Energy =               -2018.6182195361691356
    Two-Electron Energy =                 834.9121757041662022
    Total Energy =                       -525.5432536051002899
  Basis Set: (AUG-CC-PVTZ AUX)
    Blend: AUG-CC-PVTZ-RI
    Molecular point group: c1

    Geometry (in Angstrom), charge = 0, multiplicity = 1:

       Center              X                  Y                   Z               Mass
    ------------   -----------------  -----------------  -----------------  -----------------
         N            0.822489563283    -0.261147857069    -0.038977311546    14.003074004430
         N            1.364936563283    -1.488498857069    -0.268056311546    14.003074004430
         N           -1.075392436717     1.025435142931    -0.454722311546    14.003074004430
         N           -1.262239436717    -1.205315857069     0.428129688454    14.003074004430
         C            1.775254763283     0.730021142931     0.156845888454    12.000000000000
         C            2.985004563283     0.091091142931     0.007006688454    12.000000000000
         C           -0.583960436717    -0.141639857069    -0.019447311546    12.000000000000
         C            1.460331563283     2.162581142931     0.437061688454    12.000000000000
         C            2.685780563283    -1.261404857069    -0.240915311546    12.000000000000
         C           -2.414695436717     1.130694142931    -0.432829311546    12.000000000000
         C           -2.597526436717    -1.079646857069     0.402636688454    12.000000000000
         C           -3.235072436717     0.084797142931    -0.022222311546    12.000000000000
         H            3.959251563283     0.552798142931     0.098325688454     1.007825032230
         H            1.019581563283     2.676581142931    -0.419062311546     1.007825032230
         H            0.760836563283     2.258202142931     1.272415688454     1.007825032230
         H            2.392820563283     2.662404142931     0.712425688454     1.007825032230
         H            3.362543563283    -2.089328857069    -0.410840311546     1.007825032230
         H           -2.824091436717     2.079395142931    -0.774299311546     1.007825032230
         H           -3.162046436717    -1.942240857069     0.751540688454     1.007825032230
         H           -4.316286436717     0.173729142931    -0.025780311546     1.007825032230

  Basis Set: AUG-CC-PVTZ
    Blend: AUG-CC-PVTZ
  Basis Set: (AUG-CC-PVTZ AUX)
    Blend: AUG-CC-PVTZ-JKFIT
	 Reference Energy          =    -525.5432536051002899 [Eh]
	 Singles Energy            =      -0.0000000000000000 [Eh]
	 Same-Spin Energy          =      -0.5775304963200274 [Eh]
	 Opposite-Spin Energy      =      -1.7386742687455217 [Eh]
	 Correlation Energy        =      -2.3162047650655491 [Eh]
	 Total Energy              =    -527.8594583701658394 [Eh]

	 ================> DF-SCS-MP2 Energies <==================
	-----------------------------------------------------------
	 SCS Same-Spin Scale       =       0.3333333333333333 [-]
	 SCS Opposite-Spin Scale   =       1.2000000000000000 [-]
	 SCS Same-Spin Energy      =      -0.1925101654400091 [Eh]
	 SCS Opposite-Spin Energy  =      -2.0864091224946257 [Eh]
	 SCS Correlation Energy    =      -2.2789192879346349 [Eh]
	 SCS Total Energy          =    -527.8221728930349173 [Eh]
	-----------------------------------------------------------

  Dipole Moment: [D]
     X:    -2.5555      Y:     2.5572      Z:     0.4305     Total:     3.6408

*** Psi4 exiting successfully. Buy a developer a beer!
