                               Psi4 1.3.2 release

  ==> Input File <==

--------------------------------------------------------------------------
#psi4
#
memory 32 gb

molecule  {
0 1
  N        0.8160970    -0.2990240    -0.0443680
  N        1.3585440    -1.5263750    -0.2734470
  N       -1.0817850     0.9875590    -0.4601130
  N       -1.2686320    -1.2431920     0.4227390
  C        1.7597130     0.6951090     0.1272320
  C        2.9786120     0.0532150     0.0016160
  C       -0.5903530    -0.1795160    -0.0248380
  C        1.4539390     2.1247050     0.4316710
  C        2.6793880    -1.2992810    -0.2463060
  C       -2.4210880     1.0928180    -0.4382200
  C       -2.6039190    -1.1175230     0.3972460
  C       -3.2414650     0.0469210    -0.0276130
  H        3.9528590     0.5149220     0.0929350
  H        1.0131890     2.6387050    -0.4244530
  H        0.7544440     2.2203260     1.2670250
  H        2.3864280     2.6245280     0.7070350
  H        3.3561510    -2.1272050    -0.4162310
  H       -2.8304840     2.0415190    -0.7796900
  H       -3.1684390    -1.9801170     0.7461500
  H       -4.1233532     0.1194581    -0.0305151
units angstrom
no_reorient  #important for SAPT in psi4, default
symmetry c1  #important for SAPT in psi4, default
}

set PROPERTIES_ORIGIN ["COM"]
properties('MP2/aug-cc-pvtz', properties = ['dipole'])
--------------------------------------------------------------------------

    Molecular point group: c1
  Charge       = 0
  Multiplicity = 1
  Basis Set: AUG-CC-PVTZ
    Blend: AUG-CC-PVTZ
  Basis Set: (AUG-CC-PVTZ AUX)
    Blend: AUG-CC-PVTZ-JKFIT

    Orbital Energies [Eh]
    ---------------------

    Doubly Occupied:

       1A    -15.641867     2A    -15.581414     3A    -15.581250
       4A    -15.577611     5A    -11.366992     6A    -11.310564
       7A    -11.308479     8A    -11.286534     9A    -11.254337
      10A    -11.234502    11A    -11.229562    12A    -11.217125
      13A     -1.385984    14A     -1.311888    15A     -1.205179
      16A     -1.131218    17A     -1.085838    18A     -1.053461
      19A     -0.958680    20A     -0.908493    21A     -0.905880
      22A     -0.800734    23A     -0.795393    24A     -0.732398
      25A     -0.710700    26A     -0.697339    27A     -0.647150
      28A     -0.637432    29A     -0.606482    30A     -0.589868
      31A     -0.586261    32A     -0.574661    33A     -0.564120
      34A     -0.552400    35A     -0.536073    36A     -0.494867
      37A     -0.454830    38A     -0.429735    39A     -0.419616
      40A     -0.407471    41A     -0.337900    42A     -0.332167

  @DF-RHF Final Energy:  -525.50836231239828

   => Energetics <=

    Nuclear Repulsion Energy =            659.4885552285408039
    One-Electron Energy =               -2021.1049219006454223
    Two-Electron Energy =                 836.1080043597062286
    Total Energy =                       -525.5083623123982761
  Basis Set: (AUG-CC-PVTZ AUX)
    Blend: AUG-CC-PVTZ-RI
    Molecular point group: c1

    Geometry (in Angstrom), charge = 0, multiplicity = 1:

       Center              X                  Y                   Z               Mass
    ------------   -----------------  -----------------  -----------------  -----------------
         N            0.821920485102    -0.261266831436    -0.037165551087    14.003074004430
         N            1.364367485102    -1.488617831436    -0.266244551087    14.003074004430
         N           -1.075961514898     1.025316168564    -0.452910551087    14.003074004430
         N           -1.262808514898    -1.205434831436     0.429941448913    14.003074004430
         C            1.765536485102     0.732866168564     0.134434448913    12.000000000000
         C            2.984435485102     0.090972168564     0.008818448913    12.000000000000
         C           -0.584529514898    -0.141758831436    -0.017635551087    12.000000000000
         C            1.459762485102     2.162462168564     0.438873448913    12.000000000000
         C            2.685211485102    -1.261523831436    -0.239103551087    12.000000000000
         C           -2.415264514898     1.130575168564    -0.431017551087    12.000000000000
         C           -2.598095514898    -1.079765831436     0.404448448913    12.000000000000
         C           -3.235641514898     0.084678168564    -0.020410551087    12.000000000000
         H            3.958682485102     0.552679168564     0.100137448913     1.007825032230
         H            1.019012485102     2.676462168564    -0.417250551087     1.007825032230
         H            0.760267485102     2.258083168564     1.274227448913     1.007825032230
         H            2.392251485102     2.662285168564     0.714237448913     1.007825032230
         H            3.361974485102    -2.089447831436    -0.409028551087     1.007825032230
         H           -2.824660514898     2.079276168564    -0.772487551087     1.007825032230
         H           -3.162615514898    -1.942359831436     0.753352448913     1.007825032230
         H           -4.117529714898     0.157215268564    -0.023312651087     1.007825032230

  Basis Set: AUG-CC-PVTZ
    Blend: AUG-CC-PVTZ
  Basis Set: (AUG-CC-PVTZ AUX)
    Blend: AUG-CC-PVTZ-JKFIT
	 Reference Energy          =    -525.5083623123982761 [Eh]
	 Singles Energy            =      -0.0000000000000000 [Eh]
	 Same-Spin Energy          =      -0.5773513984742165 [Eh]
	 Opposite-Spin Energy      =      -1.7382158283702016 [Eh]
	 Correlation Energy        =      -2.3155672268444181 [Eh]
	 Total Energy              =    -527.8239295392427266 [Eh]

	 ================> DF-SCS-MP2 Energies <==================
	-----------------------------------------------------------
	 SCS Same-Spin Scale       =       0.3333333333333333 [-]
	 SCS Opposite-Spin Scale   =       1.2000000000000000 [-]
	 SCS Same-Spin Energy      =      -0.1924504661580722 [Eh]
	 SCS Opposite-Spin Energy  =      -2.0858589940442420 [Eh]
	 SCS Correlation Energy    =      -2.2783094602023142 [Eh]
	 SCS Total Energy          =    -527.7866717726005845 [Eh]
	-----------------------------------------------------------

  Dipole Moment: [D]
     X:    -2.5833      Y:     2.5553      Z:     0.4394     Total:     3.6601

*** Psi4 exiting successfully. Buy a developer a beer!
