                               Psi4 1.3.2 release

  ==> Input File <==

--------------------------------------------------------------------------
#psi4
#
memory 32 gb

molecule  {
0 1
  N        0.8160970    -0.2990240    -0.0443680
  N        1.3585440    -1.5263750    -0.2734470
  N       -1.0599936     0.9950402    -0.4640297
  N       -1.2686320    -1.2431920     0.4227390
  C        1.7597130     0.6951090     0.1272320
  C        2.9786120     0.0532150     0.0016160
  C       -0.5903530    -0.1795160    -0.0248380
  C        1.4539390     2.1247050     0.4316710
  C        2.6793880    -1.2992810    -0.2463060
  C       -2.4210880     1.0928180    -0.4382200
  C       -2.6039190    -1.1175230     0.3972460
  C       -3.2414650     0.0469210    -0.0276130
  H        3.9528590     0.5149220     0.0929350
  H        1.0131890     2.6387050    -0.4244530
  H        0.7544440     2.2203260     1.2670250
  H        2.3864280     2.6245280     0.7070350
  H        3.3561510    -2.1272050    -0.4162310
  H       -2.8304840     2.0415190    -0.7796900
  H       -3.1684390    -1.9801170     0.7461500
  H       -4.3226790     0.1358530    -0.0311710
units angstrom
no_reorient  #important for SAPT in psi4, default
symmetry c1  #important for SAPT in psi4, default
}

set PROPERTIES_ORIGIN ["COM"]
properties('MP2/aug-cc-pvtz', properties = ['dipole'])
--------------------------------------------------------------------------

    Molecular point group: c1
  Charge       = 0
  Multiplicity = 1
  Basis Set: AUG-CC-PVTZ
    Blend: AUG-CC-PVTZ
  Basis Set: (AUG-CC-PVTZ AUX)
    Blend: AUG-CC-PVTZ-JKFIT

    Orbital Energies [Eh]
    ---------------------

    Doubly Occupied:

       1A    -15.640992     2A    -15.584912     3A    -15.580785
       4A    -15.579274     5A    -11.367077     6A    -11.314318
       7A    -11.311146     8A    -11.286068     9A    -11.254029
      10A    -11.253871    11A    -11.234016    12A    -11.216718
      13A     -1.385715    14A     -1.310116    15A     -1.204073
      16A     -1.128506    17A     -1.083833    18A     -1.045333
      19A     -0.958149    20A     -0.910183    21A     -0.894632
      22A     -0.799128    23A     -0.794034    24A     -0.711535
      25A     -0.707047    26A     -0.682198    27A     -0.637601
      28A     -0.633777    29A     -0.606533    30A     -0.588669
      31A     -0.585691    32A     -0.573936    33A     -0.563412
      34A     -0.551676    35A     -0.535401    36A     -0.492266
      37A     -0.454930    38A     -0.428982    39A     -0.422416
      40A     -0.408101    41A     -0.338322    42A     -0.331773

  @DF-RHF Final Energy:  -525.54176199874280

   => Energetics <=

    Nuclear Repulsion Energy =            658.0585324496246358
    One-Electron Energy =               -2018.4182383276893233
    Two-Electron Energy =                 834.8179438793218878
    Total Energy =                       -525.5417619987427997
  Basis Set: (AUG-CC-PVTZ AUX)
    Blend: AUG-CC-PVTZ-RI
    Molecular point group: c1

    Geometry (in Angstrom), charge = 0, multiplicity = 1:

       Center              X                  Y                   Z               Mass
    ------------   -----------------  -----------------  -----------------  -----------------
         N            0.821269158389    -0.262024495446    -0.036818795451    14.003074004430
         N            1.363716158389    -1.489375495446    -0.265897795451    14.003074004430
         N           -1.054821441611     1.032039704554    -0.456480495451    14.003074004430
         N           -1.263459841611    -1.206192495446     0.430288204549    14.003074004430
         C            1.764885158389     0.732108504554     0.134781204549    12.000000000000
         C            2.983784158389     0.090214504554     0.009165204549    12.000000000000
         C           -0.585180841611    -0.142516495446    -0.017288795451    12.000000000000
         C            1.459111158389     2.161704504554     0.439220204549    12.000000000000
         C            2.684560158389    -1.262281495446    -0.238756795451    12.000000000000
         C           -2.415915841611     1.129817504554    -0.430670795451    12.000000000000
         C           -2.598746841611    -1.080523495446     0.404795204549    12.000000000000
         C           -3.236292841611     0.083920504554    -0.020063795451    12.000000000000
         H            3.958031158389     0.551921504554     0.100484204549     1.007825032230
         H            1.018361158389     2.675704504554    -0.416903795451     1.007825032230
         H            0.759616158389     2.257325504554     1.274574204549     1.007825032230
         H            2.391600158389     2.661527504554     0.714584204549     1.007825032230
         H            3.361323158389    -2.090205495446    -0.408681795451     1.007825032230
         H           -2.825311841611     2.078518504554    -0.772140795451     1.007825032230
         H           -3.163266841611    -1.943117495446     0.753699204549     1.007825032230
         H           -4.317506841611     0.172852504554    -0.023621795451     1.007825032230

  Basis Set: AUG-CC-PVTZ
    Blend: AUG-CC-PVTZ
  Basis Set: (AUG-CC-PVTZ AUX)
    Blend: AUG-CC-PVTZ-JKFIT
	 Reference Energy          =    -525.5417619987427997 [Eh]
	 Singles Energy            =      -0.0000000000000000 [Eh]
	 Same-Spin Energy          =      -0.5777776891856861 [Eh]
	 Opposite-Spin Energy      =      -1.7394010209400463 [Eh]
	 Correlation Energy        =      -2.3171787101257326 [Eh]
	 Total Energy              =    -527.8589407088685448 [Eh]

	 ================> DF-SCS-MP2 Energies <==================
	-----------------------------------------------------------
	 SCS Same-Spin Scale       =       0.3333333333333333 [-]
	 SCS Opposite-Spin Scale   =       1.2000000000000000 [-]
	 SCS Same-Spin Energy      =      -0.1925925630618953 [Eh]
	 SCS Opposite-Spin Energy  =      -2.0872812251280557 [Eh]
	 SCS Correlation Energy    =      -2.2798737881899509 [Eh]
	 SCS Total Energy          =    -527.8216357869328021 [Eh]
	-----------------------------------------------------------

  Dipole Moment: [D]
     X:    -2.6537      Y:     2.5340      Z:     0.4496     Total:     3.6967

*** Psi4 exiting successfully. Buy a developer a beer!
