                               Psi4 1.3.2 release

  ==> Input File <==

--------------------------------------------------------------------------
#psi4
#
memory 32 gb

molecule  {
0 1
  N        0.8160970    -0.2990240    -0.0443680
  N        1.3585440    -1.5263750    -0.2734470
  N       -1.0817850     0.9875590    -0.4601130
  N       -1.2686320    -1.2431920     0.4227390
  C        1.7597130     0.6951090     0.1272320
  C        2.9786120     0.0532150     0.0016160
  C       -0.5903530    -0.1795160    -0.0248380
  C        1.4539390     2.1247050     0.4316710
  C        2.6793880    -1.2992810    -0.2463060
  C       -2.3823858     1.0651101    -0.4286004
  C       -2.6039190    -1.1175230     0.3972460
  C       -3.2414650     0.0469210    -0.0276130
  H        3.9528590     0.5149220     0.0929350
  H        1.0131890     2.6387050    -0.4244530
  H        0.7544440     2.2203260     1.2670250
  H        2.3864280     2.6245280     0.7070350
  H        3.3561510    -2.1272050    -0.4162310
  H       -2.8304840     2.0415190    -0.7796900
  H       -3.1684390    -1.9801170     0.7461500
  H       -4.3226790     0.1358530    -0.0311710
units angstrom
no_reorient  #important for SAPT in psi4, default
symmetry c1  #important for SAPT in psi4, default
}

set PROPERTIES_ORIGIN ["COM"]
properties('MP2/aug-cc-pvtz', properties = ['dipole'])
--------------------------------------------------------------------------

    Molecular point group: c1
  Charge       = 0
  Multiplicity = 1
  Basis Set: AUG-CC-PVTZ
    Blend: AUG-CC-PVTZ
  Basis Set: (AUG-CC-PVTZ AUX)
    Blend: AUG-CC-PVTZ-JKFIT

    Orbital Energies [Eh]
    ---------------------

    Doubly Occupied:

       1A    -15.643057     2A    -15.582194     3A    -15.581485
       4A    -15.578165     5A    -11.369014     6A    -11.310074
       7A    -11.308093     8A    -11.287647     9A    -11.255350
      10A    -11.251030    11A    -11.235684    12A    -11.218182
      13A     -1.388270    14A     -1.319916    15A     -1.213828
      16A     -1.130750    17A     -1.084974    18A     -1.045072
      19A     -0.959792    20A     -0.904898    21A     -0.900449
      22A     -0.799047    23A     -0.796617    24A     -0.714882
      25A     -0.708578    26A     -0.683526    27A     -0.640303
      28A     -0.631724    29A     -0.604491    30A     -0.589665
      31A     -0.582468    32A     -0.575684    33A     -0.565273
      34A     -0.554704    35A     -0.537043    36A     -0.495562
      37A     -0.455713    38A     -0.436432    39A     -0.419080
      40A     -0.407363    41A     -0.337952    42A     -0.333185

  @DF-RHF Final Energy:  -525.54212811231127

   => Energetics <=

    Nuclear Repulsion Energy =            659.3656062334689523
    One-Electron Energy =               -2020.9410377389237965
    Two-Electron Energy =                 836.0333033931435693
    Total Energy =                       -525.5421281123112749
  Basis Set: (AUG-CC-PVTZ AUX)
    Blend: AUG-CC-PVTZ-RI
    Molecular point group: c1

    Geometry (in Angstrom), charge = 0, multiplicity = 1:

       Center              X                  Y                   Z               Mass
    ------------   -----------------  -----------------  -----------------  -----------------
         N            0.820274125333    -0.259292932863    -0.037882554004    14.003074004430
         N            1.362721125333    -1.486643932863    -0.266961554004    14.003074004430
         N           -1.077607874667     1.027290067137    -0.453627554004    14.003074004430
         N           -1.264454874667    -1.203460932863     0.429224445996    14.003074004430
         C            1.763890125333     0.734840067137     0.133717445996    12.000000000000
         C            2.982789125333     0.092946067137     0.008101445996    12.000000000000
         C           -0.586175874667    -0.139784932863    -0.018352554004    12.000000000000
         C            1.458116125333     2.164436067137     0.438156445996    12.000000000000
         C            2.683565125333    -1.259549932863    -0.239820554004    12.000000000000
         C           -2.378208674667     1.104841167137    -0.422114954004    12.000000000000
         C           -2.599741874667    -1.077791932863     0.403731445996    12.000000000000
         C           -3.237287874667     0.086652067137    -0.021127554004    12.000000000000
         H            3.957036125333     0.554653067137     0.099420445996     1.007825032230
         H            1.017366125333     2.678436067137    -0.417967554004     1.007825032230
         H            0.758621125333     2.260057067137     1.273510445996     1.007825032230
         H            2.390605125333     2.664259067137     0.713520445996     1.007825032230
         H            3.360328125333    -2.087473932863    -0.409745554004     1.007825032230
         H           -2.826306874667     2.081250067137    -0.773204554004     1.007825032230
         H           -3.164261874667    -1.940385932863     0.752635445996     1.007825032230
         H           -4.318501874667     0.175584067137    -0.024685554004     1.007825032230

  Basis Set: AUG-CC-PVTZ
    Blend: AUG-CC-PVTZ
  Basis Set: (AUG-CC-PVTZ AUX)
    Blend: AUG-CC-PVTZ-JKFIT
	 Reference Energy          =    -525.5421281123112749 [Eh]
	 Singles Energy            =      -0.0000000000000000 [Eh]
	 Same-Spin Energy          =      -0.5772646911886834 [Eh]
	 Opposite-Spin Energy      =      -1.7377894179458333 [Eh]
	 Correlation Energy        =      -2.3150541091345165 [Eh]
	 Total Energy              =    -527.8571822214457825 [Eh]

	 ================> DF-SCS-MP2 Energies <==================
	-----------------------------------------------------------
	 SCS Same-Spin Scale       =       0.3333333333333333 [-]
	 SCS Opposite-Spin Scale   =       1.2000000000000000 [-]
	 SCS Same-Spin Energy      =      -0.1924215637295611 [Eh]
	 SCS Opposite-Spin Energy  =      -2.0853473015349997 [Eh]
	 SCS Correlation Energy    =      -2.2777688652645609 [Eh]
	 SCS Total Energy          =    -527.8198969775758087 [Eh]
	-----------------------------------------------------------

  Dipole Moment: [D]
     X:    -2.4765      Y:     2.5056      Z:     0.4554     Total:     3.5522

*** Psi4 exiting successfully. Buy a developer a beer!
