                               Psi4 1.3.2 release

  ==> Input File <==

--------------------------------------------------------------------------
#psi4
#
memory 32 gb

molecule  {
0 1
  N        0.8160970    -0.2990240    -0.0443680
  N        1.3585440    -1.5263750    -0.2734470
  N       -1.0817850     0.9875590    -0.4601130
  N       -1.2686320    -1.2431920     0.4227390
  C        1.7597130     0.6951090     0.1272320
  C        2.9786120     0.0532150     0.0016160
  C       -0.5169525    -0.3538309     0.0401749
  C        1.4539390     2.1247050     0.4316710
  C        2.6793880    -1.2992810    -0.2463060
  C       -2.4210880     1.0928180    -0.4382200
  C       -2.6039190    -1.1175230     0.3972460
  C       -3.2414650     0.0469210    -0.0276130
  H        3.9528590     0.5149220     0.0929350
  H        1.0131890     2.6387050    -0.4244530
  H        0.7544440     2.2203260     1.2670250
  H        2.3864280     2.6245280     0.7070350
  H        3.3561510    -2.1272050    -0.4162310
  H       -2.8304840     2.0415190    -0.7796900
  H       -3.1684390    -1.9801170     0.7461500
  H       -4.3226790     0.1358530    -0.0311710
units angstrom
no_reorient  #important for SAPT in psi4, default
symmetry c1  #important for SAPT in psi4, default
}

set PROPERTIES_ORIGIN ["COM"]
properties('MP2/aug-cc-pvtz', properties = ['dipole'])
--------------------------------------------------------------------------

    Molecular point group: c1
  Charge       = 0
  Multiplicity = 1
  Basis Set: AUG-CC-PVTZ
    Blend: AUG-CC-PVTZ
  Basis Set: (AUG-CC-PVTZ AUX)
    Blend: AUG-CC-PVTZ-JKFIT

    Orbital Energies [Eh]
    ---------------------

    Doubly Occupied:

       1A    -15.648453     2A    -15.586589     3A    -15.577064
       4A    -15.564924     5A    -11.363965     6A    -11.306620
       7A    -11.299005     8A    -11.298183     9A    -11.262495
      10A    -11.247147    11A    -11.236425    12A    -11.226318
      13A     -1.404469    14A     -1.310427    15A     -1.183507
      16A     -1.140942    17A     -1.092610    18A     -1.045633
      19A     -0.963044    20A     -0.914824    21A     -0.887209
      22A     -0.812180    23A     -0.799207    24A     -0.712451
      25A     -0.708129    26A     -0.676740    27A     -0.647509
      28A     -0.632786    29A     -0.609340    30A     -0.591101
      31A     -0.583047    32A     -0.572716    33A     -0.566219
      34A     -0.551095    35A     -0.540622    36A     -0.487004
      37A     -0.460995    38A     -0.435615    39A     -0.402067
      40A     -0.391641    41A     -0.340331    42A     -0.333414

  @DF-RHF Final Energy:  -525.50007737110320

   => Energetics <=

    Nuclear Repulsion Energy =            658.3918807230394350
    One-Electron Energy =               -2018.9557962210030837
    Two-Electron Energy =                 835.0638381268603325
    Total Energy =                       -525.5000773711032025
  Basis Set: (AUG-CC-PVTZ AUX)
    Blend: AUG-CC-PVTZ-RI
    Molecular point group: c1

    Geometry (in Angstrom), charge = 0, multiplicity = 1:

       Center              X                  Y                   Z               Mass
    ------------   -----------------  -----------------  -----------------  -----------------
         N            0.817672970439    -0.248302552479    -0.042035107686    14.003074004430
         N            1.360119970439    -1.475653552479    -0.271114107686    14.003074004430
         N           -1.080209029561     1.038280447521    -0.457780107686    14.003074004430
         N           -1.267056029561    -1.192470552479     0.425071892314    14.003074004430
         C            1.761288970439     0.745830447521     0.129564892314    12.000000000000
         C            2.980187970439     0.103936447521     0.003948892314    12.000000000000
         C           -0.515376529561    -0.303109452479     0.042507792314    12.000000000000
         C            1.455514970439     2.175426447521     0.434003892314    12.000000000000
         C            2.680963970439    -1.248559552479    -0.243973107686    12.000000000000
         C           -2.419512029561     1.143539447521    -0.435887107686    12.000000000000
         C           -2.602343029561    -1.066801552479     0.399578892314    12.000000000000
         C           -3.239889029561     0.097642447521    -0.025280107686    12.000000000000
         H            3.954434970439     0.565643447521     0.095267892314     1.007825032230
         H            1.014764970439     2.689426447521    -0.422120107686     1.007825032230
         H            0.756019970439     2.271047447521     1.269357892314     1.007825032230
         H            2.388003970439     2.675249447521     0.709367892314     1.007825032230
         H            3.357726970439    -2.076483552479    -0.413898107686     1.007825032230
         H           -2.828908029561     2.092240447521    -0.777357107686     1.007825032230
         H           -3.166863029561    -1.929395552479     0.748482892314     1.007825032230
         H           -4.321103029561     0.186574447521    -0.028838107686     1.007825032230

  Basis Set: AUG-CC-PVTZ
    Blend: AUG-CC-PVTZ
  Basis Set: (AUG-CC-PVTZ AUX)
    Blend: AUG-CC-PVTZ-JKFIT
	 Reference Energy          =    -525.5000773711032025 [Eh]
	 Singles Energy            =      -0.0000000000000000 [Eh]
	 Same-Spin Energy          =      -0.5781068612679980 [Eh]
	 Opposite-Spin Energy      =      -1.7427472276151996 [Eh]
	 Correlation Energy        =      -2.3208540888831974 [Eh]
	 Total Energy              =    -527.8209314599863546 [Eh]

	 ================> DF-SCS-MP2 Energies <==================
	-----------------------------------------------------------
	 SCS Same-Spin Scale       =       0.3333333333333333 [-]
	 SCS Opposite-Spin Scale   =       1.2000000000000000 [-]
	 SCS Same-Spin Energy      =      -0.1927022870893327 [Eh]
	 SCS Opposite-Spin Energy  =      -2.0912966731382396 [Eh]
	 SCS Correlation Energy    =      -2.2839989602275725 [Eh]
	 SCS Total Energy          =    -527.7840763313307662 [Eh]
	-----------------------------------------------------------

  Dipole Moment: [D]
     X:    -1.6499      Y:     2.2821      Z:     0.5588     Total:     2.8710

*** Psi4 exiting successfully. Buy a developer a beer!
