                               Psi4 1.3.2 release

  ==> Input File <==

--------------------------------------------------------------------------
#psi4
#
memory 32 gb

molecule  {
0 1
  N        0.8160970    -0.2990240    -0.0443680
  N        1.3585440    -1.5263750    -0.2734470
  N       -1.0817850     0.9875590    -0.4601130
  N       -1.2686320    -1.2431920     0.4227390
  C        1.7597130     0.6951090     0.1272320
  C        2.9786120     0.0532150     0.0016160
  C       -0.5903530    -0.1795160    -0.0248380
  C        1.4539390     2.1247050     0.4316710
  C        2.6793880    -1.2992810    -0.2463060
  C       -2.3081916     1.0056266    -0.4089284
  C       -2.6039190    -1.1175230     0.3972460
  C       -3.2414650     0.0469210    -0.0276130
  H        3.9528590     0.5149220     0.0929350
  H        1.0131890     2.6387050    -0.4244530
  H        0.7544440     2.2203260     1.2670250
  H        2.3864280     2.6245280     0.7070350
  H        3.3561510    -2.1272050    -0.4162310
  H       -2.8304840     2.0415190    -0.7796900
  H       -3.1684390    -1.9801170     0.7461500
  H       -4.3226790     0.1358530    -0.0311710
units angstrom
no_reorient  #important for SAPT in psi4, default
symmetry c1  #important for SAPT in psi4, default
}

set PROPERTIES_ORIGIN ["COM"]
properties('MP2/aug-cc-pvtz', properties = ['dipole'])
--------------------------------------------------------------------------

    Molecular point group: c1
  Charge       = 0
  Multiplicity = 1
  Basis Set: AUG-CC-PVTZ
    Blend: AUG-CC-PVTZ
  Basis Set: (AUG-CC-PVTZ AUX)
    Blend: AUG-CC-PVTZ-JKFIT

    Orbital Energies [Eh]
    ---------------------

    Doubly Occupied:

       1A    -15.645297     2A    -15.583950     3A    -15.580060
       4A    -15.578098     5A    -11.373076     6A    -11.308229
       7A    -11.306095     8A    -11.289755     9A    -11.257283
      10A    -11.249576    11A    -11.237879    12A    -11.220201
      13A     -1.394377    14A     -1.338867    15A     -1.228735
      16A     -1.133634    17A     -1.086922    18A     -1.045992
      19A     -0.962069    20A     -0.909702    21A     -0.897573
      22A     -0.800611    23A     -0.798289    24A     -0.719952
      25A     -0.709261    26A     -0.686069    27A     -0.645609
      28A     -0.630984    29A     -0.605614    30A     -0.591861
      31A     -0.586542    32A     -0.569450    33A     -0.560171
      34A     -0.558526    35A     -0.538409    36A     -0.499925
      37A     -0.457505    38A     -0.448062    39A     -0.413447
      40A     -0.407372    41A     -0.338297    42A     -0.335068

  @DF-RHF Final Energy:  -525.51888484564029

   => Energetics <=

    Nuclear Repulsion Energy =            661.6481144316114751
    One-Electron Energy =               -2025.2772076471535456
    Two-Electron Energy =                 838.1102083699017840
    Total Energy =                       -525.5188848456402866
  Basis Set: (AUG-CC-PVTZ AUX)
    Blend: AUG-CC-PVTZ-RI
    Molecular point group: c1

    Geometry (in Angstrom), charge = 0, multiplicity = 1:

       Center              X                  Y                   Z               Mass
    ------------   -----------------  -----------------  -----------------  -----------------
         N            0.814712163897    -0.254833757710    -0.039357263690    14.003074004430
         N            1.357159163897    -1.482184757710    -0.268436263690    14.003074004430
         N           -1.083169836103     1.031749242290    -0.455102263690    14.003074004430
         N           -1.270016836103    -1.199001757710     0.427749736310    14.003074004430
         C            1.758328163897     0.739299242290     0.132242736310    12.000000000000
         C            2.977227163897     0.097405242290     0.006626736310    12.000000000000
         C           -0.591737836103    -0.135325757710    -0.019827263690    12.000000000000
         C            1.452554163897     2.168895242290     0.436681736310    12.000000000000
         C            2.678003163897    -1.255090757710    -0.241295263690    12.000000000000
         C           -2.309576436103     1.049816842290    -0.403917663690    12.000000000000
         C           -2.605303836103    -1.073332757710     0.402256736310    12.000000000000
         C           -3.242849836103     0.091111242290    -0.022602263690    12.000000000000
         H            3.951474163897     0.559112242290     0.097945736310     1.007825032230
         H            1.011804163897     2.682895242290    -0.419442263690     1.007825032230
         H            0.753059163897     2.264516242290     1.272035736310     1.007825032230
         H            2.385043163897     2.668718242290     0.712045736310     1.007825032230
         H            3.354766163897    -2.083014757710    -0.411220263690     1.007825032230
         H           -2.831868836103     2.085709242290    -0.774679263690     1.007825032230
         H           -3.169823836103    -1.935926757710     0.751160736310     1.007825032230
         H           -4.324063836103     0.180043242290    -0.026160263690     1.007825032230

  Basis Set: AUG-CC-PVTZ
    Blend: AUG-CC-PVTZ
  Basis Set: (AUG-CC-PVTZ AUX)
    Blend: AUG-CC-PVTZ-JKFIT
	 Reference Energy          =    -525.5188848456402866 [Eh]
	 Singles Energy            =      -0.0000000000000000 [Eh]
	 Same-Spin Energy          =      -0.5769530191087968 [Eh]
	 Opposite-Spin Energy      =      -1.7372509369719809 [Eh]
	 Correlation Energy        =      -2.3142039560807777 [Eh]
	 Total Energy              =    -527.8330888017210327 [Eh]

	 ================> DF-SCS-MP2 Energies <==================
	-----------------------------------------------------------
	 SCS Same-Spin Scale       =       0.3333333333333333 [-]
	 SCS Opposite-Spin Scale   =       1.2000000000000000 [-]
	 SCS Same-Spin Energy      =      -0.1923176730362656 [Eh]
	 SCS Opposite-Spin Energy  =      -2.0847011243663771 [Eh]
	 SCS Correlation Energy    =      -2.2770187974026426 [Eh]
	 SCS Total Energy          =    -527.7959036430429478 [Eh]
	-----------------------------------------------------------

  Dipole Moment: [D]
     X:    -2.2159      Y:     2.3419      Z:     0.5102     Total:     3.2642

*** Psi4 exiting successfully. Buy a developer a beer!
