                               Psi4 1.3.2 release

  ==> Input File <==

--------------------------------------------------------------------------
#psi4
#
memory 32 gb

molecule  {
0 1
  N        0.8160970    -0.2990240    -0.0443680
  N        1.3585440    -1.5263750    -0.2734470
  N       -1.0817850     0.9875590    -0.4601130
  N       -1.2686320    -1.2431920     0.4227390
  C        1.7597130     0.6951090     0.1272320
  C        2.9786120     0.0532150     0.0016160
  C       -0.5903530    -0.1795160    -0.0248380
  C        1.4539390     2.1247050     0.4316710
  C        2.6793880    -1.2992810    -0.2463060
  C       -2.4210880     1.0928180    -0.4382200
  C       -2.6039190    -1.1175230     0.3972460
  C       -3.1824972     0.1220989    -0.0571270
  H        3.9528590     0.5149220     0.0929350
  H        1.0131890     2.6387050    -0.4244530
  H        0.7544440     2.2203260     1.2670250
  H        2.3864280     2.6245280     0.7070350
  H        3.3561510    -2.1272050    -0.4162310
  H       -2.8304840     2.0415190    -0.7796900
  H       -3.1684390    -1.9801170     0.7461500
  H       -4.3226790     0.1358530    -0.0311710
units angstrom
no_reorient  #important for SAPT in psi4, default
symmetry c1  #important for SAPT in psi4, default
}

set PROPERTIES_ORIGIN ["COM"]
properties('MP2/aug-cc-pvtz', properties = ['dipole'])
--------------------------------------------------------------------------

    Molecular point group: c1
  Charge       = 0
  Multiplicity = 1
  Basis Set: AUG-CC-PVTZ
    Blend: AUG-CC-PVTZ
  Basis Set: (AUG-CC-PVTZ AUX)
    Blend: AUG-CC-PVTZ-JKFIT

    Orbital Energies [Eh]
    ---------------------

    Doubly Occupied:

       1A    -15.641515     2A    -15.582289     3A    -15.581127
       4A    -15.577257     5A    -11.366425     6A    -11.320027
       7A    -11.292264     8A    -11.286148     9A    -11.254146
      10A    -11.250811    11A    -11.233704    12A    -11.216765
      13A     -1.386098    14A     -1.314525    15A     -1.207059
      16A     -1.132443    17A     -1.083985    18A     -1.048456
      19A     -0.957911    20A     -0.916130    21A     -0.890839
      22A     -0.799231    23A     -0.796292    24A     -0.715510
      25A     -0.708879    26A     -0.678322    27A     -0.639896
      28A     -0.627273    29A     -0.605830    30A     -0.590726
      31A     -0.587474    32A     -0.576409    33A     -0.562498
      34A     -0.552942    35A     -0.534697    36A     -0.483677
      37A     -0.455145    38A     -0.433236    39A     -0.420657
      40A     -0.410433    41A     -0.339260    42A     -0.331933

  @DF-RHF Final Energy:  -525.52979741450702

   => Energetics <=

    Nuclear Repulsion Energy =            659.5420851241142373
    One-Electron Energy =               -2021.3632729351911621
    Two-Electron Energy =                 836.2913903965699092
    Total Energy =                       -525.5297974145070157
  Basis Set: (AUG-CC-PVTZ AUX)
    Blend: AUG-CC-PVTZ-RI
    Molecular point group: c1

    Geometry (in Angstrom), charge = 0, multiplicity = 1:

       Center              X                  Y                   Z               Mass
    ------------   -----------------  -----------------  -----------------  -----------------
         N            0.818754916478    -0.267005757476    -0.034948907249    14.003074004430
         N            1.361201916478    -1.494356757476    -0.264027907249    14.003074004430
         N           -1.079127083522     1.019577242524    -0.450693907249    14.003074004430
         N           -1.265974083522    -1.211173757476     0.432158092751    14.003074004430
         C            1.762370916478     0.727127242524     0.136651092751    12.000000000000
         C            2.981269916478     0.085233242524     0.011035092751    12.000000000000
         C           -0.587695083522    -0.147497757476    -0.015418907249    12.000000000000
         C            1.456596916478     2.156723242524     0.441090092751    12.000000000000
         C            2.682045916478    -1.267262757476    -0.236886907249    12.000000000000
         C           -2.418430083522     1.124836242524    -0.428800907249    12.000000000000
         C           -2.601261083522    -1.085504757476     0.406665092751    12.000000000000
         C           -3.179839283522     0.154117142524    -0.047707907249    12.000000000000
         H            3.955516916478     0.546940242524     0.102354092751     1.007825032230
         H            1.015846916478     2.670723242524    -0.415033907249     1.007825032230
         H            0.757101916478     2.252344242524     1.276444092751     1.007825032230
         H            2.389085916478     2.656546242524     0.716454092751     1.007825032230
         H            3.358808916478    -2.095186757476    -0.406811907249     1.007825032230
         H           -2.827826083522     2.073537242524    -0.770270907249     1.007825032230
         H           -3.165781083522    -1.948098757476     0.755569092751     1.007825032230
         H           -4.320021083522     0.167871242524    -0.021751907249     1.007825032230

  Basis Set: AUG-CC-PVTZ
    Blend: AUG-CC-PVTZ
  Basis Set: (AUG-CC-PVTZ AUX)
    Blend: AUG-CC-PVTZ-JKFIT
	 Reference Energy          =    -525.5297974145070157 [Eh]
	 Singles Energy            =      -0.0000000000000000 [Eh]
	 Same-Spin Energy          =      -0.5775774033610204 [Eh]
	 Opposite-Spin Energy      =      -1.7389539135158900 [Eh]
	 Correlation Energy        =      -2.3165313168769104 [Eh]
	 Total Energy              =    -527.8463287313838919 [Eh]

	 ================> DF-SCS-MP2 Energies <==================
	-----------------------------------------------------------
	 SCS Same-Spin Scale       =       0.3333333333333333 [-]
	 SCS Opposite-Spin Scale   =       1.2000000000000000 [-]
	 SCS Same-Spin Energy      =      -0.1925258011203401 [Eh]
	 SCS Opposite-Spin Energy  =      -2.0867446962190681 [Eh]
	 SCS Correlation Energy    =      -2.2792704973394082 [Eh]
	 SCS Total Energy          =    -527.8090679118464550 [Eh]
	-----------------------------------------------------------

  Dipole Moment: [D]
     X:    -2.5881      Y:     2.4058      Z:     0.4981     Total:     3.5685

*** Psi4 exiting successfully. Buy a developer a beer!
