                               Psi4 1.3.2 release

  ==> Input File <==

--------------------------------------------------------------------------
#psi4
#
memory 32 gb

molecule  {
0 1
  N        0.8160970    -0.2990240    -0.0443680
  N        1.3585440    -1.5263750    -0.2734470
  N       -1.0817850     0.9875590    -0.4601130
  N       -1.2686320    -1.2431920     0.4227390
  C        1.7597130     0.6951090     0.1272320
  C        2.9786120     0.0532150     0.0016160
  C       -0.5903530    -0.1795160    -0.0248380
  C        1.4539390     2.1247050     0.4316710
  C        2.6793880    -1.2992810    -0.2463060
  C       -2.4210880     1.0928180    -0.4382200
  C       -2.6039190    -1.1175230     0.3972460
  C       -3.2414650     0.0469210    -0.0276130
  H        3.9528590     0.5149220     0.0929350
  H        1.0131890     2.6387050    -0.4244530
  H        0.7544440     2.2203260     1.2670250
  H        2.3864280     2.6245280     0.7070350
  H        3.4186553    -2.2036701    -0.4319249
  H       -2.8304840     2.0415190    -0.7796900
  H       -3.1684390    -1.9801170     0.7461500
  H       -4.3226790     0.1358530    -0.0311710
units angstrom
no_reorient  #important for SAPT in psi4, default
symmetry c1  #important for SAPT in psi4, default
}

set PROPERTIES_ORIGIN ["COM"]
properties('MP2/aug-cc-pvtz', properties = ['dipole'])
--------------------------------------------------------------------------

    Molecular point group: c1
  Charge       = 0
  Multiplicity = 1
  Basis Set: AUG-CC-PVTZ
    Blend: AUG-CC-PVTZ
  Basis Set: (AUG-CC-PVTZ AUX)
    Blend: AUG-CC-PVTZ-JKFIT

    Orbital Energies [Eh]
    ---------------------

    Doubly Occupied:

       1A    -15.642673     2A    -15.582655     3A    -15.582086
       4A    -15.578857     5A    -11.367698     6A    -11.311713
       7A    -11.309655     8A    -11.287412     9A    -11.265349
      10A    -11.252868    11A    -11.235086    12A    -11.218322
      13A     -1.386876    14A     -1.312851    15A     -1.206240
      16A     -1.129010    17A     -1.084707    18A     -1.044556
      19A     -0.959326    20A     -0.909194    21A     -0.894655
      22A     -0.795918    23A     -0.791060    24A     -0.712642
      25A     -0.707656    26A     -0.680957    27A     -0.637979
      28A     -0.631353    29A     -0.605548    30A     -0.589038
      31A     -0.583642    32A     -0.570560    33A     -0.564421
      34A     -0.553108    35A     -0.530462    36A     -0.491895
      37A     -0.454608    38A     -0.430695    39A     -0.420379
      40A     -0.408059    41A     -0.338393    42A     -0.332956

  @DF-RHF Final Energy:  -525.53611273974832

   => Energetics <=

    Nuclear Repulsion Energy =            657.7603514673999143
    One-Electron Energy =               -2017.8066915625247475
    Two-Electron Energy =                 834.5102273553765144
    Total Energy =                       -525.5361127397483187
  Basis Set: (AUG-CC-PVTZ AUX)
    Blend: AUG-CC-PVTZ-RI
    Molecular point group: c1

    Geometry (in Angstrom), charge = 0, multiplicity = 1:

       Center              X                  Y                   Z               Mass
    ------------   -----------------  -----------------  -----------------  -----------------
         N            0.822781907698    -0.260888631902    -0.037062613412    14.003074004430
         N            1.365228907698    -1.488239631902    -0.266141613412    14.003074004430
         N           -1.075100092302     1.025694368098    -0.452807613412    14.003074004430
         N           -1.261947092302    -1.205056631902     0.430044386588    14.003074004430
         C            1.766397907698     0.733244368098     0.134537386588    12.000000000000
         C            2.985296907698     0.091350368098     0.008921386588    12.000000000000
         C           -0.583668092302    -0.141380631902    -0.017532613412    12.000000000000
         C            1.460623907698     2.162840368098     0.438976386588    12.000000000000
         C            2.686072907698    -1.261145631902    -0.239000613412    12.000000000000
         C           -2.414403092302     1.130953368098    -0.430914613412    12.000000000000
         C           -2.597234092302    -1.079387631902     0.404551386588    12.000000000000
         C           -3.234780092302     0.085056368098    -0.020307613412    12.000000000000
         H            3.959543907698     0.553057368098     0.100240386588     1.007825032230
         H            1.019873907698     2.676840368098    -0.417147613412     1.007825032230
         H            0.761128907698     2.258461368098     1.274330386588     1.007825032230
         H            2.393112907698     2.662663368098     0.714340386588     1.007825032230
         H            3.425340207698    -2.165534731902    -0.424619513412     1.007825032230
         H           -2.823799092302     2.079654368098    -0.772384613412     1.007825032230
         H           -3.161754092302    -1.941981631902     0.753455386588     1.007825032230
         H           -4.315994092302     0.173988368098    -0.023865613412     1.007825032230

  Basis Set: AUG-CC-PVTZ
    Blend: AUG-CC-PVTZ
  Basis Set: (AUG-CC-PVTZ AUX)
    Blend: AUG-CC-PVTZ-JKFIT
	 Reference Energy          =    -525.5361127397483187 [Eh]
	 Singles Energy            =      -0.0000000000000000 [Eh]
	 Same-Spin Energy          =      -0.5777621189334421 [Eh]
	 Opposite-Spin Energy      =      -1.7394872767529788 [Eh]
	 Correlation Energy        =      -2.3172493956864209 [Eh]
	 Total Energy              =    -527.8533621354347360 [Eh]

	 ================> DF-SCS-MP2 Energies <==================
	-----------------------------------------------------------
	 SCS Same-Spin Scale       =       0.3333333333333333 [-]
	 SCS Opposite-Spin Scale   =       1.2000000000000000 [-]
	 SCS Same-Spin Energy      =      -0.1925873729778140 [Eh]
	 SCS Opposite-Spin Energy  =      -2.0873847321035743 [Eh]
	 SCS Correlation Energy    =      -2.2799721050813884 [Eh]
	 SCS Total Energy          =    -527.8160848448296747 [Eh]
	-----------------------------------------------------------

  Dipole Moment: [D]
     X:    -2.6015      Y:     2.5712      Z:     0.4434     Total:     3.6845

*** Psi4 exiting successfully. Buy a developer a beer!
