                               Psi4 1.3.2 release

  ==> Input File <==

--------------------------------------------------------------------------
#psi4
#
memory 32 gb

molecule  {
0 1
  N        0.8160970    -0.2990240    -0.0443680
  N        1.3585440    -1.5263750    -0.2734470
  N       -1.0817850     0.9875590    -0.4601130
  N       -1.2650262    -1.1994809     0.4063479
  C        1.7597130     0.6951090     0.1272320
  C        2.9786120     0.0532150     0.0016160
  C       -0.5903530    -0.1795160    -0.0248380
  C        1.4539390     2.1247050     0.4316710
  C        2.6793880    -1.2992810    -0.2463060
  C       -2.4210880     1.0928180    -0.4382200
  C       -2.6039190    -1.1175230     0.3972460
  C       -3.2414650     0.0469210    -0.0276130
  H        3.9528590     0.5149220     0.0929350
  H        1.0131890     2.6387050    -0.4244530
  H        0.7544440     2.2203260     1.2670250
  H        2.3864280     2.6245280     0.7070350
  H        3.3561510    -2.1272050    -0.4162310
  H       -2.8304840     2.0415190    -0.7796900
  H       -3.1684390    -1.9801170     0.7461500
  H       -4.3226790     0.1358530    -0.0311710
units angstrom
no_reorient  #important for SAPT in psi4, default
symmetry c1  #important for SAPT in psi4, default
}

set PROPERTIES_ORIGIN ["COM"]
properties('MP2/aug-cc-pvtz', properties = ['dipole'])
--------------------------------------------------------------------------

    Molecular point group: c1
  Charge       = 0
  Multiplicity = 1
  Basis Set: AUG-CC-PVTZ
    Blend: AUG-CC-PVTZ
  Basis Set: (AUG-CC-PVTZ AUX)
    Blend: AUG-CC-PVTZ-JKFIT

    Orbital Energies [Eh]
    ---------------------

    Doubly Occupied:

       1A    -15.640167     2A    -15.580620     3A    -15.580527
       4A    -15.572140     5A    -11.361205     6A    -11.311254
       7A    -11.310967     8A    -11.285629     9A    -11.253425
      10A    -11.253418    11A    -11.233967    12A    -11.216209
      13A     -1.387130    14A     -1.317766    15A     -1.207070
      16A     -1.129531    17A     -1.084015    18A     -1.046129
      19A     -0.957903    20A     -0.913943    21A     -0.895579
      22A     -0.800466    23A     -0.795655    24A     -0.714737
      25A     -0.710089    26A     -0.682497    27A     -0.639072
      28A     -0.633729    29A     -0.607882    30A     -0.592488
      31A     -0.587221    32A     -0.576499    33A     -0.563218
      34A     -0.552421    35A     -0.535039    36A     -0.488554
      37A     -0.453846    38A     -0.429966    39A     -0.416996
      40A     -0.408467    41A     -0.338847    42A     -0.331389

  @DF-RHF Final Energy:  -525.54421367624536

   => Energetics <=

    Nuclear Repulsion Energy =            659.4980755675045430
    One-Electron Energy =               -2021.2892306666369677
    Two-Electron Energy =                 836.2469414228871756
    Total Energy =                       -525.5442136762453629
  Basis Set: (AUG-CC-PVTZ AUX)
    Blend: AUG-CC-PVTZ-RI
    Molecular point group: c1

    Geometry (in Angstrom), charge = 0, multiplicity = 1:

       Center              X                  Y                   Z               Mass
    ------------   -----------------  -----------------  -----------------  -----------------
         N            0.822860003103    -0.265193824196    -0.035727556597    14.003074004430
         N            1.365307003103    -1.492544824196    -0.264806556597    14.003074004430
         N           -1.075021996897     1.021389175804    -0.451472556597    14.003074004430
         N           -1.258263196897    -1.165650724196     0.414988343403    14.003074004430
         C            1.766476003103     0.728939175804     0.135872443403    12.000000000000
         C            2.985375003103     0.087045175804     0.010256443403    12.000000000000
         C           -0.583589996897    -0.145685824196    -0.016197556597    12.000000000000
         C            1.460702003103     2.158535175804     0.440311443403    12.000000000000
         C            2.686151003103    -1.265450824196    -0.237665556597    12.000000000000
         C           -2.414324996897     1.126648175804    -0.429579556597    12.000000000000
         C           -2.597155996897    -1.083692824196     0.405886443403    12.000000000000
         C           -3.234701996897     0.080751175804    -0.018972556597    12.000000000000
         H            3.959622003103     0.548752175804     0.101575443403     1.007825032230
         H            1.019952003103     2.672535175804    -0.415812556597     1.007825032230
         H            0.761207003103     2.254156175804     1.275665443403     1.007825032230
         H            2.393191003103     2.658358175804     0.715675443403     1.007825032230
         H            3.362914003103    -2.093374824196    -0.407590556597     1.007825032230
         H           -2.823720996897     2.075349175804    -0.771049556597     1.007825032230
         H           -3.161675996897    -1.946286824196     0.754790443403     1.007825032230
         H           -4.315915996897     0.169683175804    -0.022530556597     1.007825032230

  Basis Set: AUG-CC-PVTZ
    Blend: AUG-CC-PVTZ
  Basis Set: (AUG-CC-PVTZ AUX)
    Blend: AUG-CC-PVTZ-JKFIT
	 Reference Energy          =    -525.5442136762453629 [Eh]
	 Singles Energy            =      -0.0000000000000000 [Eh]
	 Same-Spin Energy          =      -0.5773164722544020 [Eh]
	 Opposite-Spin Energy      =      -1.7375054989224461 [Eh]
	 Correlation Energy        =      -2.3148219711768481 [Eh]
	 Total Energy              =    -527.8590356474221608 [Eh]

	 ================> DF-SCS-MP2 Energies <==================
	-----------------------------------------------------------
	 SCS Same-Spin Scale       =       0.3333333333333333 [-]
	 SCS Opposite-Spin Scale   =       1.2000000000000000 [-]
	 SCS Same-Spin Energy      =      -0.1924388240848006 [Eh]
	 SCS Opposite-Spin Energy  =      -2.0850065987069351 [Eh]
	 SCS Correlation Energy    =      -2.2774454227917356 [Eh]
	 SCS Total Energy          =    -527.8216590990371060 [Eh]
	-----------------------------------------------------------

  Dipole Moment: [D]
     X:    -2.6742      Y:     2.4860      Z:     0.4703     Total:     3.6814

*** Psi4 exiting successfully. Buy a developer a beer!
