                               Psi4 1.3.2 release

  ==> Input File <==

--------------------------------------------------------------------------
#psi4
#
memory 32 gb

molecule  {
0 1
  N        0.8160970    -0.2990240    -0.0443680
  N        1.3585440    -1.5263750    -0.2734470
  N       -1.0817850     0.9875590    -0.4601130
  N       -1.2686320    -1.2431920     0.4227390
  C        1.7597130     0.6951090     0.1272320
  C        2.8819874     0.0700706     0.0068251
  C       -0.5903530    -0.1795160    -0.0248380
  C        1.4539390     2.1247050     0.4316710
  C        2.6793880    -1.2992810    -0.2463060
  C       -2.4210880     1.0928180    -0.4382200
  C       -2.6039190    -1.1175230     0.3972460
  C       -3.2414650     0.0469210    -0.0276130
  H        3.9528590     0.5149220     0.0929350
  H        1.0131890     2.6387050    -0.4244530
  H        0.7544440     2.2203260     1.2670250
  H        2.3864280     2.6245280     0.7070350
  H        3.3561510    -2.1272050    -0.4162310
  H       -2.8304840     2.0415190    -0.7796900
  H       -3.1684390    -1.9801170     0.7461500
  H       -4.3226790     0.1358530    -0.0311710
units angstrom
no_reorient  #important for SAPT in psi4, default
symmetry c1  #important for SAPT in psi4, default
}

set PROPERTIES_ORIGIN ["COM"]
properties('MP2/aug-cc-pvtz', properties = ['dipole'])
--------------------------------------------------------------------------

    Molecular point group: c1
  Charge       = 0
  Multiplicity = 1
  Basis Set: AUG-CC-PVTZ
    Blend: AUG-CC-PVTZ
  Basis Set: (AUG-CC-PVTZ AUX)
    Blend: AUG-CC-PVTZ-JKFIT

    Orbital Energies [Eh]
    ---------------------

    Doubly Occupied:

       1A    -15.636282     2A    -15.586472     3A    -15.580319
       4A    -15.576561     5A    -11.365220     6A    -11.310151
       7A    -11.308085     8A    -11.271785     9A    -11.254468
      10A    -11.250841    11A    -11.233818    12A    -11.214000
      13A     -1.389244    14A     -1.312948    15A     -1.204326
      16A     -1.129383    17A     -1.095961    18A     -1.045112
      19A     -0.960923    20A     -0.907931    21A     -0.893691
      22A     -0.805719    23A     -0.786773    24A     -0.716030
      25A     -0.707671    26A     -0.683542    27A     -0.640171
      28A     -0.630833    29A     -0.603087    30A     -0.588288
      31A     -0.584047    32A     -0.576059    33A     -0.553766
      34A     -0.551215    35A     -0.543644    36A     -0.490233
      37A     -0.453744    38A     -0.429174    39A     -0.418675
      40A     -0.408183    41A     -0.346618    42A     -0.335421

  @DF-RHF Final Energy:  -525.53130383303278

   => Energetics <=

    Nuclear Repulsion Energy =            660.5444350174931287
    One-Electron Energy =               -2023.3906470839981466
    Two-Electron Energy =                 837.3149082334721243
    Total Energy =                       -525.5313038330327799
  Basis Set: (AUG-CC-PVTZ AUX)
    Blend: AUG-CC-PVTZ-RI
    Molecular point group: c1

    Geometry (in Angstrom), charge = 0, multiplicity = 1:

       Center              X                  Y                   Z               Mass
    ------------   -----------------  -----------------  -----------------  -----------------
         N            0.830418886553    -0.262633631576    -0.037551921274    14.003074004430
         N            1.372865886553    -1.489984631576    -0.266630921274    14.003074004430
         N           -1.067463113447     1.023949368424    -0.453296921274    14.003074004430
         N           -1.254310113447    -1.206801631576     0.429555078726    14.003074004430
         C            1.774034886553     0.731499368424     0.134048078726    12.000000000000
         C            2.896309286553     0.106460968424     0.013641178726    12.000000000000
         C           -0.576031113447    -0.143125631576    -0.018021921274    12.000000000000
         C            1.468260886553     2.161095368424     0.438487078726    12.000000000000
         C            2.693709886553    -1.262890631576    -0.239489921274    12.000000000000
         C           -2.406766113447     1.129208368424    -0.431403921274    12.000000000000
         C           -2.589597113447    -1.081132631576     0.404062078726    12.000000000000
         C           -3.227143113447     0.083311368424    -0.020796921274    12.000000000000
         H            3.967180886553     0.551312368424     0.099751078726     1.007825032230
         H            1.027510886553     2.675095368424    -0.417636921274     1.007825032230
         H            0.768765886553     2.256716368424     1.273841078726     1.007825032230
         H            2.400749886553     2.660918368424     0.713851078726     1.007825032230
         H            3.370472886553    -2.090814631576    -0.409414921274     1.007825032230
         H           -2.816162113447     2.077909368424    -0.772873921274     1.007825032230
         H           -3.154117113447    -1.943726631576     0.752966078726     1.007825032230
         H           -4.308357113447     0.172243368424    -0.024354921274     1.007825032230

  Basis Set: AUG-CC-PVTZ
    Blend: AUG-CC-PVTZ
  Basis Set: (AUG-CC-PVTZ AUX)
    Blend: AUG-CC-PVTZ-JKFIT
	 Reference Energy          =    -525.5313038330327799 [Eh]
	 Singles Energy            =      -0.0000000000000000 [Eh]
	 Same-Spin Energy          =      -0.5769590413350087 [Eh]
	 Opposite-Spin Energy      =      -1.7378685722738463 [Eh]
	 Correlation Energy        =      -2.3148276136088550 [Eh]
	 Total Energy              =    -527.8461314466416070 [Eh]

	 ================> DF-SCS-MP2 Energies <==================
	-----------------------------------------------------------
	 SCS Same-Spin Scale       =       0.3333333333333333 [-]
	 SCS Opposite-Spin Scale   =       1.2000000000000000 [-]
	 SCS Same-Spin Energy      =      -0.1923196804450029 [Eh]
	 SCS Opposite-Spin Energy  =      -2.0854422867286155 [Eh]
	 SCS Correlation Energy    =      -2.2777619671736185 [Eh]
	 SCS Total Energy          =    -527.8090658002064401 [Eh]
	-----------------------------------------------------------

  Dipole Moment: [D]
     X:    -2.4044      Y:     2.4934      Z:     0.4258     Total:     3.4900

*** Psi4 exiting successfully. Buy a developer a beer!
