                               Psi4 1.3.2 release

  ==> Input File <==

--------------------------------------------------------------------------
#psi4
#
memory 32 gb

molecule  {
0 1
  N        0.8160970    -0.2990240    -0.0443680
  N        1.3585440    -1.5263750    -0.2734470
  N       -1.0835886     0.9655700    -0.4521670
  N       -1.2686320    -1.2431920     0.4227390
  C        1.7597130     0.6951090     0.1272320
  C        2.9786120     0.0532150     0.0016160
  C       -0.5903530    -0.1795160    -0.0248380
  C        1.4539390     2.1247050     0.4316710
  C        2.6793880    -1.2992810    -0.2463060
  C       -2.4210880     1.0928180    -0.4382200
  C       -2.6039190    -1.1175230     0.3972460
  C       -3.2414650     0.0469210    -0.0276130
  H        3.9528590     0.5149220     0.0929350
  H        1.0131890     2.6387050    -0.4244530
  H        0.7544440     2.2203260     1.2670250
  H        2.3864280     2.6245280     0.7070350
  H        3.3561510    -2.1272050    -0.4162310
  H       -2.8304840     2.0415190    -0.7796900
  H       -3.1684390    -1.9801170     0.7461500
  H       -4.3226790     0.1358530    -0.0311710
units angstrom
no_reorient  #important for SAPT in psi4, default
symmetry c1  #important for SAPT in psi4, default
}

set PROPERTIES_ORIGIN ["COM"]
properties('MP2/aug-cc-pvtz', properties = ['dipole'])
--------------------------------------------------------------------------

    Molecular point group: c1
  Charge       = 0
  Multiplicity = 1
  Basis Set: AUG-CC-PVTZ
    Blend: AUG-CC-PVTZ
  Basis Set: (AUG-CC-PVTZ AUX)
    Blend: AUG-CC-PVTZ-JKFIT

    Orbital Energies [Eh]
    ---------------------

    Doubly Occupied:

       1A    -15.641218     2A    -15.581026     3A    -15.579361
       4A    -15.577758     5A    -11.364374     6A    -11.312121
       7A    -11.308999     8A    -11.286262     9A    -11.253964
      10A    -11.253091    11A    -11.234703    12A    -11.216859
      13A     -1.386692    14A     -1.315351    15A     -1.206333
      16A     -1.129467    17A     -1.084124    18A     -1.045631
      19A     -0.958579    20A     -0.911339    21A     -0.896109
      22A     -0.800746    23A     -0.795023    24A     -0.715502
      25A     -0.707084    26A     -0.682527    27A     -0.638732
      28A     -0.633502    29A     -0.607476    30A     -0.590947
      31A     -0.587142    32A     -0.576098    33A     -0.563582
      34A     -0.552774    35A     -0.535495    36A     -0.490266
      37A     -0.454540    38A     -0.429997    39A     -0.418792
      40A     -0.407981    41A     -0.338449    42A     -0.331963

  @DF-RHF Final Energy:  -525.54441275548061

   => Energetics <=

    Nuclear Repulsion Energy =            658.8304247326595942
    One-Electron Energy =               -2019.9457148683388823
    Two-Electron Energy =                 835.5708773801986808
    Total Energy =                       -525.5444127554806073
  Basis Set: (AUG-CC-PVTZ AUX)
    Blend: AUG-CC-PVTZ-RI
    Molecular point group: c1

    Geometry (in Angstrom), charge = 0, multiplicity = 1:

       Center              X                  Y                   Z               Mass
    ------------   -----------------  -----------------  -----------------  -----------------
         N            0.823333208023    -0.259446493516    -0.037856523851    14.003074004430
         N            1.365780208023    -1.486797493516    -0.266935523851    14.003074004430
         N           -1.076352391977     1.005147506484    -0.445655523851    14.003074004430
         N           -1.261395791977    -1.203614493516     0.429250476149    14.003074004430
         C            1.766949208023     0.734686506484     0.133743476149    12.000000000000
         C            2.985848208023     0.092792506484     0.008127476149    12.000000000000
         C           -0.583116791977    -0.139938493516    -0.018326523851    12.000000000000
         C            1.461175208023     2.164282506484     0.438182476149    12.000000000000
         C            2.686624208023    -1.259703493516    -0.239794523851    12.000000000000
         C           -2.413851791977     1.132395506484    -0.431708523851    12.000000000000
         C           -2.596682791977    -1.077945493516     0.403757476149    12.000000000000
         C           -3.234228791977     0.086498506484    -0.021101523851    12.000000000000
         H            3.960095208023     0.554499506484     0.099446476149     1.007825032230
         H            1.020425208023     2.678282506484    -0.417941523851     1.007825032230
         H            0.761680208023     2.259903506484     1.273536476149     1.007825032230
         H            2.393664208023     2.664105506484     0.713546476149     1.007825032230
         H            3.363387208023    -2.087627493516    -0.409719523851     1.007825032230
         H           -2.823247791977     2.081096506484    -0.773178523851     1.007825032230
         H           -3.161202791977    -1.940539493516     0.752661476149     1.007825032230
         H           -4.315442791977     0.175430506484    -0.024659523851     1.007825032230

  Basis Set: AUG-CC-PVTZ
    Blend: AUG-CC-PVTZ
  Basis Set: (AUG-CC-PVTZ AUX)
    Blend: AUG-CC-PVTZ-JKFIT
	 Reference Energy          =    -525.5444127554806073 [Eh]
	 Singles Energy            =      -0.0000000000000000 [Eh]
	 Same-Spin Energy          =      -0.5774020699975053 [Eh]
	 Opposite-Spin Energy      =      -1.7380258702790863 [Eh]
	 Correlation Energy        =      -2.3154279402765914 [Eh]
	 Total Energy              =    -527.8598406957571569 [Eh]

	 ================> DF-SCS-MP2 Energies <==================
	-----------------------------------------------------------
	 SCS Same-Spin Scale       =       0.3333333333333333 [-]
	 SCS Opposite-Spin Scale   =       1.2000000000000000 [-]
	 SCS Same-Spin Energy      =      -0.1924673566658351 [Eh]
	 SCS Opposite-Spin Energy  =      -2.0856310443349035 [Eh]
	 SCS Correlation Energy    =      -2.2780984010007388 [Eh]
	 SCS Total Energy          =    -527.8225111564813687 [Eh]
	-----------------------------------------------------------

  Dipole Moment: [D]
     X:    -2.6129      Y:     2.5979      Z:     0.4254     Total:     3.7090

*** Psi4 exiting successfully. Buy a developer a beer!
