                               Psi4 1.3.2 release

  ==> Input File <==

--------------------------------------------------------------------------
#psi4
#
memory 32 gb

molecule  {
0 1
  N        0.8160970    -0.2990240    -0.0443680
  N        1.3585440    -1.5263750    -0.2734470
  N       -1.0817850     0.9875590    -0.4601130
  N       -1.2686320    -1.2431920     0.4227390
  C        1.7597130     0.6951090     0.1272320
  C        2.9300275    -0.0282535    -0.0164092
  C       -0.5903530    -0.1795160    -0.0248380
  C        1.4539390     2.1247050     0.4316710
  C        2.6793880    -1.2992810    -0.2463060
  C       -2.4210880     1.0928180    -0.4382200
  C       -2.6039190    -1.1175230     0.3972460
  C       -3.2414650     0.0469210    -0.0276130
  H        3.9528590     0.5149220     0.0929350
  H        1.0131890     2.6387050    -0.4244530
  H        0.7544440     2.2203260     1.2670250
  H        2.3864280     2.6245280     0.7070350
  H        3.3561510    -2.1272050    -0.4162310
  H       -2.8304840     2.0415190    -0.7796900
  H       -3.1684390    -1.9801170     0.7461500
  H       -4.3226790     0.1358530    -0.0311710
units angstrom
no_reorient  #important for SAPT in psi4, default
symmetry c1  #important for SAPT in psi4, default
}

set PROPERTIES_ORIGIN ["COM"]
properties('MP2/aug-cc-pvtz', properties = ['dipole'])
--------------------------------------------------------------------------

    Molecular point group: c1
  Charge       = 0
  Multiplicity = 1
  Basis Set: AUG-CC-PVTZ
    Blend: AUG-CC-PVTZ
  Basis Set: (AUG-CC-PVTZ AUX)
    Blend: AUG-CC-PVTZ-JKFIT

    Orbital Energies [Eh]
    ---------------------

    Doubly Occupied:

       1A    -15.644413     2A    -15.583390     3A    -15.579222
       4A    -15.576254     5A    -11.367321     6A    -11.312034
       7A    -11.309799     8A    -11.284819     9A    -11.253507
      10A    -11.242229    11A    -11.237630    12A    -11.214007
      13A     -1.389283    14A     -1.314454    15A     -1.206569
      16A     -1.134677    17A     -1.083239    18A     -1.049638
      19A     -0.963215    20A     -0.909256    21A     -0.900540
      22A     -0.804672    23A     -0.786461    24A     -0.716001
      25A     -0.709632    26A     -0.684961    27A     -0.639733
      28A     -0.632464    29A     -0.603642    30A     -0.589618
      31A     -0.582904    32A     -0.575612    33A     -0.563951
      34A     -0.555427    35A     -0.531927    36A     -0.491487
      37A     -0.452893    38A     -0.430808    39A     -0.420384
      40A     -0.412813    41A     -0.344072    42A     -0.326597

  @DF-RHF Final Energy:  -525.52797052565893

   => Energetics <=

    Nuclear Repulsion Energy =            659.8854598506774209
    One-Electron Energy =               -2022.0037511776670272
    Two-Electron Energy =                 836.5903208013305630
    Total Energy =                       -525.5279705256589295
  Basis Set: (AUG-CC-PVTZ AUX)
    Blend: AUG-CC-PVTZ-RI
    Molecular point group: c1

    Geometry (in Angstrom), charge = 0, multiplicity = 1:

       Center              X                  Y                   Z               Mass
    ------------   -----------------  -----------------  -----------------  -----------------
         N            0.826817564838    -0.255262774387    -0.035810164093    14.003074004430
         N            1.369264564838    -1.482613774387    -0.264889164093    14.003074004430
         N           -1.071064435162     1.031320225613    -0.451555164093    14.003074004430
         N           -1.257911435162    -1.199430774387     0.431296835907    14.003074004430
         C            1.770433564838     0.738870225613     0.135789835907    12.000000000000
         C            2.940748064838     0.015507725613    -0.007851364093    12.000000000000
         C           -0.579632435162    -0.135754774387    -0.016280164093    12.000000000000
         C            1.464659564838     2.168466225613     0.440228835907    12.000000000000
         C            2.690108564838    -1.255519774387    -0.237748164093    12.000000000000
         C           -2.410367435162     1.136579225613    -0.429662164093    12.000000000000
         C           -2.593198435162    -1.073761774387     0.405803835907    12.000000000000
         C           -3.230744435162     0.090682225613    -0.019055164093    12.000000000000
         H            3.963579564838     0.558683225613     0.101492835907     1.007825032230
         H            1.023909564838     2.682466225613    -0.415895164093     1.007825032230
         H            0.765164564838     2.264087225613     1.275582835907     1.007825032230
         H            2.397148564838     2.668289225613     0.715592835907     1.007825032230
         H            3.366871564838    -2.083443774387    -0.407673164093     1.007825032230
         H           -2.819763435162     2.085280225613    -0.771132164093     1.007825032230
         H           -3.157718435162    -1.936355774387     0.754707835907     1.007825032230
         H           -4.311958435162     0.179614225613    -0.022613164093     1.007825032230

  Basis Set: AUG-CC-PVTZ
    Blend: AUG-CC-PVTZ
  Basis Set: (AUG-CC-PVTZ AUX)
    Blend: AUG-CC-PVTZ-JKFIT
	 Reference Energy          =    -525.5279705256589295 [Eh]
	 Singles Energy            =      -0.0000000000000000 [Eh]
	 Same-Spin Energy          =      -0.5791796300829457 [Eh]
	 Opposite-Spin Energy      =      -1.7401753311026926 [Eh]
	 Correlation Energy        =      -2.3193549611856383 [Eh]
	 Total Energy              =    -527.8473254868445110 [Eh]

	 ================> DF-SCS-MP2 Energies <==================
	-----------------------------------------------------------
	 SCS Same-Spin Scale       =       0.3333333333333333 [-]
	 SCS Opposite-Spin Scale   =       1.2000000000000000 [-]
	 SCS Same-Spin Energy      =      -0.1930598766943152 [Eh]
	 SCS Opposite-Spin Energy  =      -2.0882103973232309 [Eh]
	 SCS Correlation Energy    =      -2.2812702740175461 [Eh]
	 SCS Total Energy          =    -527.8092407996764450 [Eh]
	-----------------------------------------------------------

  Dipole Moment: [D]
     X:    -2.6917      Y:     2.5830      Z:     0.4520     Total:     3.7579

*** Psi4 exiting successfully. Buy a developer a beer!
