                               Psi4 1.3.2 release

  ==> Input File <==

--------------------------------------------------------------------------
#psi4
#
memory 32 gb

molecule  {
0 1
  N        0.8160970    -0.2990240    -0.0443680
  N        1.3585440    -1.5263750    -0.2734470
  N       -1.0817850     0.9875590    -0.4601130
  N       -1.2686320    -1.2431920     0.4227390
  C        1.7597130     0.6951090     0.1272320
  C        2.9786120     0.0532150     0.0016160
  C       -0.5903530    -0.1795160    -0.0248380
  C        1.4539390     2.1247050     0.4316710
  C        2.6793880    -1.2992810    -0.2463060
  C       -2.4210880     1.0928180    -0.4382200
  C       -2.6039190    -1.1175230     0.3972460
  C       -3.2414650     0.0469210    -0.0276130
  H        3.8628156     0.4722494     0.0844950
  H        1.0131890     2.6387050    -0.4244530
  H        0.7544440     2.2203260     1.2670250
  H        2.3864280     2.6245280     0.7070350
  H        3.3561510    -2.1272050    -0.4162310
  H       -2.8304840     2.0415190    -0.7796900
  H       -3.1684390    -1.9801170     0.7461500
  H       -4.3226790     0.1358530    -0.0311710
units angstrom
no_reorient  #important for SAPT in psi4, default
symmetry c1  #important for SAPT in psi4, default
}

set PROPERTIES_ORIGIN ["COM"]
properties('MP2/aug-cc-pvtz', properties = ['dipole'])
--------------------------------------------------------------------------

    Molecular point group: c1
  Charge       = 0
  Multiplicity = 1
  Basis Set: AUG-CC-PVTZ
    Blend: AUG-CC-PVTZ
  Basis Set: (AUG-CC-PVTZ AUX)
    Blend: AUG-CC-PVTZ-JKFIT

    Orbital Energies [Eh]
    ---------------------

    Doubly Occupied:

       1A    -15.641620     2A    -15.582266     3A    -15.580853
       4A    -15.578459     5A    -11.367145     6A    -11.311393
       7A    -11.309332     8A    -11.286162     9A    -11.253759
      10A    -11.252547    11A    -11.234823    12A    -11.205615
      13A     -1.385837    14A     -1.312279    15A     -1.205866
      16A     -1.129129    17A     -1.085049    18A     -1.046066
      19A     -0.960330    20A     -0.909132    21A     -0.897647
      22A     -0.804974    23A     -0.799223    24A     -0.713518
      25A     -0.707497    26A     -0.684770    27A     -0.639882
      28A     -0.637159    29A     -0.612063    30A     -0.593735
      31A     -0.587058    32A     -0.575795    33A     -0.566541
      34A     -0.552584    35A     -0.535614    36A     -0.491551
      37A     -0.455124    38A     -0.430364    39A     -0.420085
      40A     -0.407445    41A     -0.337744    42A     -0.332021

  @DF-RHF Final Energy:  -525.53750670917077

   => Energetics <=

    Nuclear Repulsion Energy =            658.8466821275433176
    One-Electron Energy =               -2019.9282680672538390
    Two-Electron Energy =                 835.5440792305397508
    Total Energy =                       -525.5375067091707706
  Basis Set: (AUG-CC-PVTZ AUX)
    Blend: AUG-CC-PVTZ-RI
    Molecular point group: c1

    Geometry (in Angstrom), charge = 0, multiplicity = 1:

       Center              X                  Y                   Z               Mass
    ------------   -----------------  -----------------  -----------------  -----------------
         N            0.823742341809    -0.261101388106    -0.037108283671    14.003074004430
         N            1.366189341809    -1.488452388106    -0.266187283671    14.003074004430
         N           -1.074139658191     1.025481611894    -0.452853283671    14.003074004430
         N           -1.260986658191    -1.205269388106     0.429998716329    14.003074004430
         C            1.767358341809     0.733031611894     0.134491716329    12.000000000000
         C            2.986257341809     0.091137611894     0.008875716329    12.000000000000
         C           -0.582707658191    -0.141593388106    -0.017578283671    12.000000000000
         C            1.461584341809     2.162627611894     0.438930716329    12.000000000000
         C            2.687033341809    -1.261358388106    -0.239046283671    12.000000000000
         C           -2.413442658191     1.130740611894    -0.430960283671    12.000000000000
         C           -2.596273658191    -1.079600388106     0.404505716329    12.000000000000
         C           -3.233819658191     0.084843611894    -0.020353283671    12.000000000000
         H            3.870460941809     0.510172011894     0.091754716329     1.007825032230
         H            1.020834341809     2.676627611894    -0.417193283671     1.007825032230
         H            0.762089341809     2.258248611894     1.274284716329     1.007825032230
         H            2.394073341809     2.662450611894     0.714294716329     1.007825032230
         H            3.363796341809    -2.089282388106    -0.408971283671     1.007825032230
         H           -2.822838658191     2.079441611894    -0.772430283671     1.007825032230
         H           -3.160793658191    -1.942194388106     0.753409716329     1.007825032230
         H           -4.315033658191     0.173775611894    -0.023911283671     1.007825032230

  Basis Set: AUG-CC-PVTZ
    Blend: AUG-CC-PVTZ
  Basis Set: (AUG-CC-PVTZ AUX)
    Blend: AUG-CC-PVTZ-JKFIT
	 Reference Energy          =    -525.5375067091707706 [Eh]
	 Singles Energy            =      -0.0000000000000000 [Eh]
	 Same-Spin Energy          =      -0.5774139029788155 [Eh]
	 Opposite-Spin Energy      =      -1.7381485125727301 [Eh]
	 Correlation Energy        =      -2.3155624155515455 [Eh]
	 Total Energy              =    -527.8530691247223103 [Eh]

	 ================> DF-SCS-MP2 Energies <==================
	-----------------------------------------------------------
	 SCS Same-Spin Scale       =       0.3333333333333333 [-]
	 SCS Opposite-Spin Scale   =       1.2000000000000000 [-]
	 SCS Same-Spin Energy      =      -0.1924713009929385 [Eh]
	 SCS Opposite-Spin Energy  =      -2.0857782150872759 [Eh]
	 SCS Correlation Energy    =      -2.2782495160802143 [Eh]
	 SCS Total Energy          =    -527.8157562252509933 [Eh]
	-----------------------------------------------------------

  Dipole Moment: [D]
     X:    -2.5705      Y:     2.5626      Z:     0.4416     Total:     3.6564

*** Psi4 exiting successfully. Buy a developer a beer!
