                               Psi4 1.4a3.dev225

  ==> Input File <==

--------------------------------------------------------------------------
#psi4
#
memory 32 gb

molecule  {
0 1
  N        0.8160970    -0.2990240    -0.0443680
  N        1.3585440    -1.5263750    -0.2734470
  N       -1.0817850     0.9875590    -0.4601130
  N       -1.2686320    -1.2431920     0.4227390
  C        1.7597130     0.6951090     0.1272320
  C        2.9786120     0.0532150     0.0016160
  C       -0.5903530    -0.1795160    -0.0248380
  C        1.4539390     2.1247050     0.4316710
  C        2.6793880    -1.2992810    -0.2463060
  C       -2.4210880     1.0928180    -0.4382200
  C       -2.6039190    -1.1175230     0.3972460
  C       -3.2414650     0.0469210    -0.0276130
  H        3.9528590     0.5149220     0.0929350
  H        1.0131890     2.6387050    -0.4244530
  H        0.7544440     2.2203260     1.2670250
  H        2.3864280     2.6245280     0.7070350
  H        3.3561510    -2.1272050    -0.4162310
  H       -2.8304840     2.0415190    -0.7796900
  H       -3.1580650    -1.9642655     0.7397383
  H       -4.3226790     0.1358530    -0.0311710
units angstrom
no_reorient  #important for SAPT in psi4, default
symmetry c1  #important for SAPT in psi4, default
}

set PROPERTIES_ORIGIN ["COM"]
properties('MP2/aug-cc-pvtz', properties = ['dipole'])
--------------------------------------------------------------------------

    Molecular point group: c1
  Charge       = 0
  Multiplicity = 1
  Basis Set: AUG-CC-PVTZ
    Blend: AUG-CC-PVTZ
  Basis Set: (AUG-CC-PVTZ AUX)
    Blend: AUG-CC-PVTZ-JKFIT

    Orbital Energies [Eh]
    ---------------------

    Doubly Occupied:

       1A    -15.642055     2A    -15.582383     3A    -15.581417
       4A    -15.578486     5A    -11.367243     6A    -11.311423
       7A    -11.307245     8A    -11.286692     9A    -11.254489
      10A    -11.252539    11A    -11.234669    12A    -11.217269
      13A     -1.386262    14A     -1.312483    15A     -1.206078
      16A     -1.129414    17A     -1.084243    18A     -1.045051
      19A     -0.958756    20A     -0.910426    21A     -0.896650
      22A     -0.800423    23A     -0.796078    24A     -0.713149
      25A     -0.708017    26A     -0.682582    27A     -0.638382
      28A     -0.634080    29A     -0.608325    30A     -0.590458
      31A     -0.586926    32A     -0.575080    33A     -0.563947
      34A     -0.552633    35A     -0.535867    36A     -0.491570
      37A     -0.455058    38A     -0.430434    39A     -0.420372
      40A     -0.407646    41A     -0.337982    42A     -0.332331

  @DF-RHF Final Energy:  -525.54376817885009

   => Energetics <=

    Nuclear Repulsion Energy =            658.3846619861519684
    One-Electron Energy =               -2019.0436408746079451
    Two-Electron Energy =                 835.1152107096058899
    Total Energy =                       -525.5437681788500868
  Basis Set: (AUG-CC-PVTZ AUX)
    Blend: AUG-CC-PVTZ-RI
    Molecular point group: c1

    Geometry (in Angstrom), charge = 0, multiplicity = 1:

       Center              X                  Y                   Z               Mass
    ------------   -----------------  -----------------  -----------------  -----------------
         N            0.823110117945    -0.261469853458    -0.037121053765    14.003074004430
         N            1.365557117945    -1.488820853458    -0.266200053765    14.003074004430
         N           -1.074771882055     1.025113146542    -0.452866053765    14.003074004430
         N           -1.261618882055    -1.205637853458     0.429985946235    14.003074004430
         C            1.766726117945     0.732663146542     0.134478946235    12.000000000000
         C            2.985625117945     0.090769146542     0.008862946235    12.000000000000
         C           -0.583339882055    -0.141961853458    -0.017591053765    12.000000000000
         C            1.460952117945     2.162259146542     0.438917946235    12.000000000000
         C            2.686401117945    -1.261726853458    -0.239059053765    12.000000000000
         C           -2.414074882055     1.130372146542    -0.430973053765    12.000000000000
         C           -2.596905882055    -1.079968853458     0.404492946235    12.000000000000
         C           -3.234451882055     0.084475146542    -0.020366053765    12.000000000000
         H            3.959872117945     0.552476146542     0.100181946235     1.007825032230
         H            1.020202117945     2.676259146542    -0.417206053765     1.007825032230
         H            0.761457117945     2.257880146542     1.274271946235     1.007825032230
         H            2.393441117945     2.662082146542     0.714281946235     1.007825032230
         H            3.363164117945    -2.089650853458    -0.408984053765     1.007825032230
         H           -2.823470882055     2.079073146542    -0.772443053765     1.007825032230
         H           -3.151051882055    -1.926711353458     0.746985246235     1.007825032230
         H           -4.315665882055     0.173407146542    -0.023924053765     1.007825032230

  Basis Set: AUG-CC-PVTZ
    Blend: AUG-CC-PVTZ
  Basis Set: (AUG-CC-PVTZ AUX)
    Blend: AUG-CC-PVTZ-JKFIT
	 Reference Energy          =    -525.5437681788500868 [Eh]
	 Singles Energy            =      -0.0000000000000000 [Eh]
	 Same-Spin Energy          =      -0.5775154238874652 [Eh]
	 Opposite-Spin Energy      =      -1.7384853154371114 [Eh]
	 Correlation Energy        =      -2.3160007393245765 [Eh]
	 Total Energy              =    -527.8597689181746091 [Eh]

	 ================> DF-SCS-MP2 Energies <==================
	-----------------------------------------------------------
	 SCS Same-Spin Scale       =       0.3333333333333333 [-]
	 SCS Opposite-Spin Scale   =       1.2000000000000000 [-]
	 SCS Same-Spin Energy      =      -0.1925051412958217 [Eh]
	 SCS Opposite-Spin Energy  =      -2.0861823785245335 [Eh]
	 SCS Correlation Energy    =      -2.2786875198203553 [Eh]
	 SCS Total Energy          =    -527.8224556986704101 [Eh]
	-----------------------------------------------------------

  Dipole Moment: [D]
     X:    -2.5862      Y:     2.5528      Z:     0.4409     Total:     3.6605

*** Psi4 exiting successfully. Buy a developer a beer!
