                               Psi4 1.3.2 release

  ==> Input File <==

--------------------------------------------------------------------------
#psi4
#
memory 32 gb

molecule  {
0 1
  N        0.8160970    -0.2990240    -0.0443680
  N        1.3585440    -1.5263750    -0.2734470
  N       -1.0817850     0.9875590    -0.4601130
  N       -1.2686320    -1.2431920     0.4227390
  C        1.7779154     0.6896174     0.1757638
  C        2.9786120     0.0532150     0.0016160
  C       -0.5903530    -0.1795160    -0.0248380
  C        1.4539390     2.1247050     0.4316710
  C        2.6793880    -1.2992810    -0.2463060
  C       -2.4210880     1.0928180    -0.4382200
  C       -2.6039190    -1.1175230     0.3972460
  C       -3.2414650     0.0469210    -0.0276130
  H        3.9528590     0.5149220     0.0929350
  H        1.0131890     2.6387050    -0.4244530
  H        0.7544440     2.2203260     1.2670250
  H        2.3864280     2.6245280     0.7070350
  H        3.3561510    -2.1272050    -0.4162310
  H       -2.8304840     2.0415190    -0.7796900
  H       -3.1684390    -1.9801170     0.7461500
  H       -4.3226790     0.1358530    -0.0311710
units angstrom
no_reorient  #important for SAPT in psi4, default
symmetry c1  #important for SAPT in psi4, default
}

set PROPERTIES_ORIGIN ["COM"]
properties('MP2/aug-cc-pvtz', properties = ['dipole'])
--------------------------------------------------------------------------

    Molecular point group: c1
  Charge       = 0
  Multiplicity = 1
  Basis Set: AUG-CC-PVTZ
    Blend: AUG-CC-PVTZ
  Basis Set: (AUG-CC-PVTZ AUX)
    Blend: AUG-CC-PVTZ-JKFIT

    Orbital Energies [Eh]
    ---------------------

    Doubly Occupied:

       1A    -15.640268     2A    -15.583222     3A    -15.581789
       4A    -15.578105     5A    -11.366706     6A    -11.310992
       7A    -11.308986     8A    -11.286236     9A    -11.254690
      10A    -11.252251    11A    -11.234470    12A    -11.217510
      13A     -1.383979    14A     -1.311820    15A     -1.205396
      16A     -1.128103    17A     -1.084758    18A     -1.045109
      19A     -0.959262    20A     -0.908559    21A     -0.895122
      22A     -0.800188    23A     -0.793334    24A     -0.713261
      25A     -0.707631    26A     -0.682811    27A     -0.636099
      28A     -0.633440    29A     -0.606907    30A     -0.589731
      31A     -0.586550    32A     -0.574794    33A     -0.560553
      34A     -0.552825    35A     -0.538779    36A     -0.490969
      37A     -0.455333    38A     -0.429987    39A     -0.419755
      40A     -0.407301    41A     -0.337853    42A     -0.334188

  @DF-RHF Final Energy:  -525.54222164525277

   => Energetics <=

    Nuclear Repulsion Energy =            658.0294598447029557
    One-Electron Energy =               -2018.3641214615518038
    Two-Electron Energy =                 834.7924399715959680
    Total Energy =                       -525.5422216452527664
  Basis Set: (AUG-CC-PVTZ AUX)
    Blend: AUG-CC-PVTZ-RI
    Molecular point group: c1

    Geometry (in Angstrom), charge = 0, multiplicity = 1:

       Center              X                  Y                   Z               Mass
    ------------   -----------------  -----------------  -----------------  -----------------
         N            0.821810890971    -0.260958375766    -0.040799603528    14.003074004430
         N            1.364257890971    -1.488309375766    -0.269878603528    14.003074004430
         N           -1.076071109029     1.025624624234    -0.456544603528    14.003074004430
         N           -1.262918109029    -1.205126375766     0.426307396472    14.003074004430
         C            1.783629290971     0.727683024234     0.179332196472    12.000000000000
         C            2.984325890971     0.091280624234     0.005184396472    12.000000000000
         C           -0.584639109029    -0.141450375766    -0.021269603528    12.000000000000
         C            1.459652890971     2.162770624234     0.435239396472    12.000000000000
         C            2.685101890971    -1.261215375766    -0.242737603528    12.000000000000
         C           -2.415374109029     1.130883624234    -0.434651603528    12.000000000000
         C           -2.598205109029    -1.079457375766     0.400814396472    12.000000000000
         C           -3.235751109029     0.084986624234    -0.024044603528    12.000000000000
         H            3.958572890971     0.552987624234     0.096503396472     1.007825032230
         H            1.018902890971     2.676770624234    -0.420884603528     1.007825032230
         H            0.760157890971     2.258391624234     1.270593396472     1.007825032230
         H            2.392141890971     2.662593624234     0.710603396472     1.007825032230
         H            3.361864890971    -2.089139375766    -0.412662603528     1.007825032230
         H           -2.824770109029     2.079584624234    -0.776121603528     1.007825032230
         H           -3.162725109029    -1.942051375766     0.749718396472     1.007825032230
         H           -4.316965109029     0.173918624234    -0.027602603528     1.007825032230

  Basis Set: AUG-CC-PVTZ
    Blend: AUG-CC-PVTZ
  Basis Set: (AUG-CC-PVTZ AUX)
    Blend: AUG-CC-PVTZ-JKFIT
	 Reference Energy          =    -525.5422216452527664 [Eh]
	 Singles Energy            =      -0.0000000000000000 [Eh]
	 Same-Spin Energy          =      -0.5775421410119677 [Eh]
	 Opposite-Spin Energy      =      -1.7388076103284615 [Eh]
	 Correlation Energy        =      -2.3163497513404292 [Eh]
	 Total Energy              =    -527.8585713965932200 [Eh]

	 ================> DF-SCS-MP2 Energies <==================
	-----------------------------------------------------------
	 SCS Same-Spin Scale       =       0.3333333333333333 [-]
	 SCS Opposite-Spin Scale   =       1.2000000000000000 [-]
	 SCS Same-Spin Energy      =      -0.1925140470039892 [Eh]
	 SCS Opposite-Spin Energy  =      -2.0865691323941538 [Eh]
	 SCS Correlation Energy    =      -2.2790831793981430 [Eh]
	 SCS Total Energy          =    -527.8213048246509516 [Eh]
	-----------------------------------------------------------

  Dipole Moment: [D]
     X:    -2.5300      Y:     2.5567      Z:     0.4207     Total:     3.6214

*** Psi4 exiting successfully. Buy a developer a beer!
