                               Psi4 1.3.2 release

  ==> Input File <==

--------------------------------------------------------------------------
#psi4
#
memory 32 gb

molecule  {
0 1
  N        0.8160970    -0.2990240    -0.0443680
  N        1.3366713    -1.5354848    -0.2752004
  N       -1.0817850     0.9875590    -0.4601130
  N       -1.2686320    -1.2431920     0.4227390
  C        1.7597130     0.6951090     0.1272320
  C        2.9786120     0.0532150     0.0016160
  C       -0.5903530    -0.1795160    -0.0248380
  C        1.4539390     2.1247050     0.4316710
  C        2.6793880    -1.2992810    -0.2463060
  C       -2.4210880     1.0928180    -0.4382200
  C       -2.6039190    -1.1175230     0.3972460
  C       -3.2414650     0.0469210    -0.0276130
  H        3.9528590     0.5149220     0.0929350
  H        1.0131890     2.6387050    -0.4244530
  H        0.7544440     2.2203260     1.2670250
  H        2.3864280     2.6245280     0.7070350
  H        3.3561510    -2.1272050    -0.4162310
  H       -2.8304840     2.0415190    -0.7796900
  H       -3.1684390    -1.9801170     0.7461500
  H       -4.3226790     0.1358530    -0.0311710
units angstrom
no_reorient  #important for SAPT in psi4, default
symmetry c1  #important for SAPT in psi4, default
}

set PROPERTIES_ORIGIN ["COM"]
properties('MP2/aug-cc-pvtz', properties = ['dipole'])
--------------------------------------------------------------------------

    Molecular point group: c1
  Charge       = 0
  Multiplicity = 1
  Basis Set: AUG-CC-PVTZ
    Blend: AUG-CC-PVTZ
  Basis Set: (AUG-CC-PVTZ AUX)
    Blend: AUG-CC-PVTZ-JKFIT

    Orbital Energies [Eh]
    ---------------------

    Doubly Occupied:

       1A    -15.643196     2A    -15.584064     3A    -15.582298
       4A    -15.578502     5A    -11.366862     6A    -11.311354
       7A    -11.309340     8A    -11.287453     9A    -11.257206
      10A    -11.252625    11A    -11.235204    12A    -11.218734
      13A     -1.385165    14A     -1.311330    15A     -1.205915
      16A     -1.125174    17A     -1.084958    18A     -1.044315
      19A     -0.959324    20A     -0.908815    21A     -0.895989
      22A     -0.800031    23A     -0.795007    24A     -0.713079
      25A     -0.706544    26A     -0.681956    27A     -0.637697
      28A     -0.632806    29A     -0.607093    30A     -0.588875
      31A     -0.585918    32A     -0.574484    33A     -0.564079
      34A     -0.551866    35A     -0.535491    36A     -0.491576
      37A     -0.457976    38A     -0.430343    39A     -0.420161
      40A     -0.406332    41A     -0.337556    42A     -0.331071

  @DF-RHF Final Energy:  -525.54036295343121

   => Energetics <=

    Nuclear Repulsion Energy =            658.0017235152434978
    One-Electron Energy =               -2018.2886377390179860
    Two-Electron Energy =                 834.7465512703433888
    Total Energy =                       -525.5403629534312131
  Basis Set: (AUG-CC-PVTZ AUX)
    Blend: AUG-CC-PVTZ-RI
    Molecular point group: c1

    Geometry (in Angstrom), charge = 0, multiplicity = 1:

       Center              X                  Y                   Z               Mass
    ------------   -----------------  -----------------  -----------------  -----------------
         N            0.825088818047    -0.260573143572    -0.037008037180    14.003074004430
         N            1.345663118047    -1.497033943572    -0.267840437180    14.003074004430
         N           -1.072793181953     1.026009856428    -0.452753037180    14.003074004430
         N           -1.259640181953    -1.204741143572     0.430098962820    14.003074004430
         C            1.768704818047     0.733559856428     0.134591962820    12.000000000000
         C            2.987603818047     0.091665856428     0.008975962820    12.000000000000
         C           -0.581361181953    -0.141065143572    -0.017478037180    12.000000000000
         C            1.462930818047     2.163155856428     0.439030962820    12.000000000000
         C            2.688379818047    -1.260830143572    -0.238946037180    12.000000000000
         C           -2.412096181953     1.131268856428    -0.430860037180    12.000000000000
         C           -2.594927181953    -1.079072143572     0.404605962820    12.000000000000
         C           -3.232473181953     0.085371856428    -0.020253037180    12.000000000000
         H            3.961850818047     0.553372856428     0.100294962820     1.007825032230
         H            1.022180818047     2.677155856428    -0.417093037180     1.007825032230
         H            0.763435818047     2.258776856428     1.274384962820     1.007825032230
         H            2.395419818047     2.662978856428     0.714394962820     1.007825032230
         H            3.365142818047    -2.088754143572    -0.408871037180     1.007825032230
         H           -2.821492181953     2.079969856428    -0.772330037180     1.007825032230
         H           -3.159447181953    -1.941666143572     0.753509962820     1.007825032230
         H           -4.313687181953     0.174303856428    -0.023811037180     1.007825032230

  Basis Set: AUG-CC-PVTZ
    Blend: AUG-CC-PVTZ
  Basis Set: (AUG-CC-PVTZ AUX)
    Blend: AUG-CC-PVTZ-JKFIT
	 Reference Energy          =    -525.5403629534312131 [Eh]
	 Singles Energy            =      -0.0000000000000000 [Eh]
	 Same-Spin Energy          =      -0.5783555924489844 [Eh]
	 Opposite-Spin Energy      =      -1.7401713294944741 [Eh]
	 Correlation Energy        =      -2.3185269219434583 [Eh]
	 Total Energy              =    -527.8588898753746435 [Eh]

	 ================> DF-SCS-MP2 Energies <==================
	-----------------------------------------------------------
	 SCS Same-Spin Scale       =       0.3333333333333333 [-]
	 SCS Opposite-Spin Scale   =       1.2000000000000000 [-]
	 SCS Same-Spin Energy      =      -0.1927851974829948 [Eh]
	 SCS Opposite-Spin Energy  =      -2.0882055953933687 [Eh]
	 SCS Correlation Energy    =      -2.2809907928763633 [Eh]
	 SCS Total Energy          =    -527.8213537463075227 [Eh]
	-----------------------------------------------------------

  Dipole Moment: [D]
     X:    -2.5720      Y:     2.5895      Z:     0.4491     Total:     3.6773

*** Psi4 exiting successfully. Buy a developer a beer!
