                               Psi4 1.3.2 release

  ==> Input File <==

--------------------------------------------------------------------------
#psi4
#
memory 32 gb

molecule  {
0 1
  N        0.8160970    -0.2990240    -0.0443680
  N        1.3585440    -1.5263750    -0.2734470
  N       -1.0817850     0.9875590    -0.4601130
  N       -1.2686320    -1.2431920     0.4227390
  C        1.7597130     0.6951090     0.1272320
  C        2.9786120     0.0532150     0.0016160
  C       -0.5903530    -0.1795160    -0.0248380
  C        1.4539390     2.1247050     0.4316710
  C        2.6793880    -1.2992810    -0.2463060
  C       -2.3823939     1.0649827    -0.4289411
  C       -2.6039190    -1.1175230     0.3972460
  C       -3.2414650     0.0469210    -0.0276130
  H        3.9528590     0.5149220     0.0929350
  H        1.0131890     2.6387050    -0.4244530
  H        0.7544440     2.2203260     1.2670250
  H        2.3864280     2.6245280     0.7070350
  H        3.3561510    -2.1272050    -0.4162310
  H       -2.8304840     2.0415190    -0.7796900
  H       -3.1684390    -1.9801170     0.7461500
  H       -4.3226790     0.1358530    -0.0311710
units angstrom
no_reorient  #important for SAPT in psi4, default
symmetry c1  #important for SAPT in psi4, default
}

set PROPERTIES_ORIGIN ["COM"]
properties('MP2/aug-cc-pvtz', properties = ['dipole'])
--------------------------------------------------------------------------

    Molecular point group: c1
  Charge       = 0
  Multiplicity = 1
  Basis Set: AUG-CC-PVTZ
    Blend: AUG-CC-PVTZ
  Basis Set: (AUG-CC-PVTZ AUX)
    Blend: AUG-CC-PVTZ-JKFIT

    Orbital Energies [Eh]
    ---------------------

    Doubly Occupied:

       1A    -15.643056     2A    -15.582194     3A    -15.581484
       4A    -15.578165     5A    -11.369015     6A    -11.310074
       7A    -11.308093     8A    -11.287647     9A    -11.255350
      10A    -11.251030    11A    -11.235683    12A    -11.218182
      13A     -1.388270    14A     -1.319917    15A     -1.213830
      16A     -1.130750    17A     -1.084974    18A     -1.045072
      19A     -0.959792    20A     -0.904898    21A     -0.900449
      22A     -0.799047    23A     -0.796618    24A     -0.714882
      25A     -0.708578    26A     -0.683526    27A     -0.640304
      28A     -0.631724    29A     -0.604495    30A     -0.589666
      31A     -0.582458    32A     -0.575694    33A     -0.565273
      34A     -0.554703    35A     -0.537043    36A     -0.495561
      37A     -0.455712    38A     -0.436436    39A     -0.419078
      40A     -0.407364    41A     -0.337950    42A     -0.333185

  @DF-RHF Final Energy:  -525.54212907109945

   => Energetics <=

    Nuclear Repulsion Energy =            659.3655411325509021
    One-Electron Energy =               -2020.9408982440345426
    Two-Electron Energy =                 836.0332280403843015
    Total Energy =                       -525.5421290710994526
  Basis Set: (AUG-CC-PVTZ AUX)
    Blend: AUG-CC-PVTZ-RI
    Molecular point group: c1

    Geometry (in Angstrom), charge = 0, multiplicity = 1:

       Center              X                  Y                   Z               Mass
    ------------   -----------------  -----------------  -----------------  -----------------
         N            0.820274732549    -0.259283382333    -0.037857013460    14.003074004430
         N            1.362721732549    -1.486634382333    -0.266936013460    14.003074004430
         N           -1.077607267451     1.027299617667    -0.453602013460    14.003074004430
         N           -1.264454267451    -1.203451382333     0.429249986540    14.003074004430
         C            1.763890732549     0.734849617667     0.133742986540    12.000000000000
         C            2.982789732549     0.092955617667     0.008126986540    12.000000000000
         C           -0.586175267451    -0.139775382333    -0.018327013460    12.000000000000
         C            1.458116732549     2.164445617667     0.438181986540    12.000000000000
         C            2.683565732549    -1.259540382333    -0.239795013460    12.000000000000
         C           -2.378216167451     1.104723317667    -0.422430113460    12.000000000000
         C           -2.599741267451    -1.077782382333     0.403756986540    12.000000000000
         C           -3.237287267451     0.086661617667    -0.021102013460    12.000000000000
         H            3.957036732549     0.554662617667     0.099445986540     1.007825032230
         H            1.017366732549     2.678445617667    -0.417942013460     1.007825032230
         H            0.758621732549     2.260066617667     1.273535986540     1.007825032230
         H            2.390605732549     2.664268617667     0.713545986540     1.007825032230
         H            3.360328732549    -2.087464382333    -0.409720013460     1.007825032230
         H           -2.826306267451     2.081259617667    -0.773179013460     1.007825032230
         H           -3.164261267451    -1.940376382333     0.752660986540     1.007825032230
         H           -4.318501267451     0.175593617667    -0.024660013460     1.007825032230

  Basis Set: AUG-CC-PVTZ
    Blend: AUG-CC-PVTZ
  Basis Set: (AUG-CC-PVTZ AUX)
    Blend: AUG-CC-PVTZ-JKFIT
	 Reference Energy          =    -525.5421290710994526 [Eh]
	 Singles Energy            =      -0.0000000000000000 [Eh]
	 Same-Spin Energy          =      -0.5772644624311229 [Eh]
	 Opposite-Spin Energy      =      -1.7377890552961532 [Eh]
	 Correlation Energy        =      -2.3150535177272760 [Eh]
	 Total Energy              =    -527.8571825888267313 [Eh]

	 ================> DF-SCS-MP2 Energies <==================
	-----------------------------------------------------------
	 SCS Same-Spin Scale       =       0.3333333333333333 [-]
	 SCS Opposite-Spin Scale   =       1.2000000000000000 [-]
	 SCS Same-Spin Energy      =      -0.1924214874770410 [Eh]
	 SCS Opposite-Spin Energy  =      -2.0853468663553838 [Eh]
	 SCS Correlation Energy    =      -2.2777683538324247 [Eh]
	 SCS Total Energy          =    -527.8198974249319235 [Eh]
	-----------------------------------------------------------

  Dipole Moment: [D]
     X:    -2.4766      Y:     2.5056      Z:     0.4555     Total:     3.5523

*** Psi4 exiting successfully. Buy a developer a beer!
