                               Psi4 1.3.2 release

  ==> Input File <==

--------------------------------------------------------------------------
#psi4
#
memory 32 gb

molecule  {
0 1
  N        0.8160970    -0.2990240    -0.0443680
  N        1.3585440    -1.5263750    -0.2734470
  N       -1.0817850     0.9875590    -0.4601130
  N       -1.2686320    -1.2431920     0.4227390
  C        1.7597130     0.6951090     0.1272320
  C        2.9786120     0.0532150     0.0016160
  C       -0.5903530    -0.1795160    -0.0248380
  C        1.4539390     2.1247050     0.4316710
  C        2.6793880    -1.2992810    -0.2463060
  C       -2.4210880     1.0928180    -0.4382200
  C       -2.6039190    -1.1175230     0.3972460
  C       -3.2217399     0.0334830    -0.0231502
  H        3.9528590     0.5149220     0.0929350
  H        1.0131890     2.6387050    -0.4244530
  H        0.7544440     2.2203260     1.2670250
  H        2.3864280     2.6245280     0.7070350
  H        3.3561510    -2.1272050    -0.4162310
  H       -2.8304840     2.0415190    -0.7796900
  H       -3.1684390    -1.9801170     0.7461500
  H       -4.3226790     0.1358530    -0.0311710
units angstrom
no_reorient  #important for SAPT in psi4, default
symmetry c1  #important for SAPT in psi4, default
}

set PROPERTIES_ORIGIN ["COM"]
properties('MP2/aug-cc-pvtz', properties = ['dipole'])
--------------------------------------------------------------------------

    Molecular point group: c1
  Charge       = 0
  Multiplicity = 1
  Basis Set: AUG-CC-PVTZ
    Blend: AUG-CC-PVTZ
  Basis Set: (AUG-CC-PVTZ AUX)
    Blend: AUG-CC-PVTZ-JKFIT

    Orbital Energies [Eh]
    ---------------------

    Doubly Occupied:

       1A    -15.641812     2A    -15.582898     3A    -15.581225
       4A    -15.577878     5A    -11.366724     6A    -11.312406
       7A    -11.306144     8A    -11.286518     9A    -11.254263
      10A    -11.252227    11A    -11.234681    12A    -11.217097
      13A     -1.386142    14A     -1.313310    15A     -1.206347
      16A     -1.130058    17A     -1.084484    18A     -1.045539
      19A     -0.958701    20A     -0.911004    21A     -0.895603
      22A     -0.800289    23A     -0.795186    24A     -0.714399
      25A     -0.707445    26A     -0.680494    27A     -0.638248
      28A     -0.629711    29A     -0.609971    30A     -0.589369
      31A     -0.587276    32A     -0.575684    33A     -0.563742
      34A     -0.552945    35A     -0.535616    36A     -0.489453
      37A     -0.454898    38A     -0.430709    39A     -0.420778
      40A     -0.408769    41A     -0.338263    42A     -0.332164

  @DF-RHF Final Energy:  -525.54281591678080

   => Energetics <=

    Nuclear Repulsion Energy =            658.7337500438934512
    One-Electron Energy =               -2019.7521872548893498
    Two-Electron Energy =                 835.4756212942151024
    Total Energy =                       -525.5428159167807962
  Basis Set: (AUG-CC-PVTZ AUX)
    Blend: AUG-CC-PVTZ-RI
    Molecular point group: c1

    Geometry (in Angstrom), charge = 0, multiplicity = 1:

       Center              X                  Y                   Z               Mass
    ------------   -----------------  -----------------  -----------------  -----------------
         N            0.821696741904    -0.260362674615    -0.037495974962    14.003074004430
         N            1.364143741904    -1.487713674615    -0.266574974962    14.003074004430
         N           -1.076185258096     1.026220325385    -0.453240974962    14.003074004430
         N           -1.263032258096    -1.204530674615     0.429611025038    14.003074004430
         C            1.765312741904     0.733770325385     0.134104025038    12.000000000000
         C            2.984211741904     0.091876325385     0.008488025038    12.000000000000
         C           -0.584753258096    -0.140854674615    -0.017965974962    12.000000000000
         C            1.459538741904     2.163366325385     0.438543025038    12.000000000000
         C            2.684987741904    -1.260619674615    -0.239433974962    12.000000000000
         C           -2.415488258096     1.131479325385    -0.431347974962    12.000000000000
         C           -2.598319258096    -1.078861674615     0.404118025038    12.000000000000
         C           -3.216140158096     0.072144325385    -0.016278174962    12.000000000000
         H            3.958458741904     0.553583325385     0.099807025038     1.007825032230
         H            1.018788741904     2.677366325385    -0.417580974962     1.007825032230
         H            0.760043741904     2.258987325385     1.273897025038     1.007825032230
         H            2.392027741904     2.663189325385     0.713907025038     1.007825032230
         H            3.361750741904    -2.088543674615    -0.409358974962     1.007825032230
         H           -2.824884258096     2.080180325385    -0.772817974962     1.007825032230
         H           -3.162839258096    -1.941455674615     0.753022025038     1.007825032230
         H           -4.317079258096     0.174514325385    -0.024298974962     1.007825032230

  Basis Set: AUG-CC-PVTZ
    Blend: AUG-CC-PVTZ
  Basis Set: (AUG-CC-PVTZ AUX)
    Blend: AUG-CC-PVTZ-JKFIT
	 Reference Energy          =    -525.5428159167807962 [Eh]
	 Singles Energy            =      -0.0000000000000000 [Eh]
	 Same-Spin Energy          =      -0.5776976589591740 [Eh]
	 Opposite-Spin Energy      =      -1.7387109266805183 [Eh]
	 Correlation Energy        =      -2.3164085856396923 [Eh]
	 Total Energy              =    -527.8592245024204885 [Eh]

	 ================> DF-SCS-MP2 Energies <==================
	-----------------------------------------------------------
	 SCS Same-Spin Scale       =       0.3333333333333333 [-]
	 SCS Opposite-Spin Scale   =       1.2000000000000000 [-]
	 SCS Same-Spin Energy      =      -0.1925658863197247 [Eh]
	 SCS Opposite-Spin Energy  =      -2.0864531120166219 [Eh]
	 SCS Correlation Energy    =      -2.2790189983363467 [Eh]
	 SCS Total Energy          =    -527.8218349151171651 [Eh]
	-----------------------------------------------------------

  Dipole Moment: [D]
     X:    -2.5842      Y:     2.5767      Z:     0.4313     Total:     3.6747

*** Psi4 exiting successfully. Buy a developer a beer!
