                               Psi4 1.4a3.dev225

  ==> Input File <==

--------------------------------------------------------------------------
#psi4
#
memory 32 gb

molecule  {
0 1
  N        0.8160970    -0.2990240    -0.0443680
  N        1.3585440    -1.5263750    -0.2734470
  N       -1.0817850     0.9875590    -0.4601130
  N       -1.2686320    -1.2431920     0.4227390
  C        1.7597130     0.6951090     0.1272320
  C        2.9786120     0.0532150     0.0016160
  C       -0.5903530    -0.1795160    -0.0248380
  C        1.4498437     2.1438519     0.4357484
  C        2.6793880    -1.2992810    -0.2463060
  C       -2.4210880     1.0928180    -0.4382200
  C       -2.6039190    -1.1175230     0.3972460
  C       -3.2414650     0.0469210    -0.0276130
  H        3.9528590     0.5149220     0.0929350
  H        1.0131890     2.6387050    -0.4244530
  H        0.7544440     2.2203260     1.2670250
  H        2.3864280     2.6245280     0.7070350
  H        3.3561510    -2.1272050    -0.4162310
  H       -2.8304840     2.0415190    -0.7796900
  H       -3.1684390    -1.9801170     0.7461500
  H       -4.3226790     0.1358530    -0.0311710
units angstrom
no_reorient  #important for SAPT in psi4, default
symmetry c1  #important for SAPT in psi4, default
}

set PROPERTIES_ORIGIN ["COM"]
properties('MP2/aug-cc-pvtz', properties = ['dipole'])
--------------------------------------------------------------------------

    Molecular point group: c1
  Charge       = 0
  Multiplicity = 1
  Basis Set: AUG-CC-PVTZ
    Blend: AUG-CC-PVTZ
  Basis Set: (AUG-CC-PVTZ AUX)
    Blend: AUG-CC-PVTZ-JKFIT

    Orbital Energies [Eh]
    ---------------------

    Doubly Occupied:

       1A    -15.642068     2A    -15.582444     3A    -15.581296
       4A    -15.578630     5A    -11.367373     6A    -11.311541
       7A    -11.309485     8A    -11.287344     9A    -11.254437
      10A    -11.252677    11A    -11.234568    12A    -11.217178
      13A     -1.386119    14A     -1.312497    15A     -1.206013
      16A     -1.129132    17A     -1.082222    18A     -1.044814
      19A     -0.958982    20A     -0.909037    21A     -0.896584
      22A     -0.799884    23A     -0.795007    24A     -0.712978
      25A     -0.706818    26A     -0.681538    27A     -0.637996
      28A     -0.633198    29A     -0.607261    30A     -0.589415
      31A     -0.587393    32A     -0.576214    33A     -0.562992
      34A     -0.554642    35A     -0.534327    36A     -0.492186
      37A     -0.455024    38A     -0.430551    39A     -0.420277
      40A     -0.407649    41A     -0.337986    42A     -0.332729

  @DF-RHF Final Energy:  -525.54357138558896

   => Energetics <=

    Nuclear Repulsion Energy =            657.9197734710805889
    One-Electron Energy =               -2018.1256738662632415
    Two-Electron Energy =                 834.6623290095936909
    Total Energy =                       -525.5435713855889617
  Basis Set: (AUG-CC-PVTZ AUX)
    Blend: AUG-CC-PVTZ-RI
    Molecular point group: c1

    Geometry (in Angstrom), charge = 0, multiplicity = 1:

       Center              X                  Y                   Z               Mass
    ------------   -----------------  -----------------  -----------------  -----------------
         N            0.823482436018    -0.262805398671    -0.037467083486    14.003074004430
         N            1.365929436018    -1.490156398671    -0.266546083486    14.003074004430
         N           -1.074399563982     1.023777601329    -0.453212083486    14.003074004430
         N           -1.261246563982    -1.206973398671     0.429639916514    14.003074004430
         C            1.767098436018     0.731327601329     0.134132916514    12.000000000000
         C            2.985997436018     0.089433601329     0.008516916514    12.000000000000
         C           -0.582967563982    -0.143297398671    -0.017937083486    12.000000000000
         C            1.457229136018     2.180070501329     0.442649316514    12.000000000000
         C            2.686773436018    -1.263062398671    -0.239405083486    12.000000000000
         C           -2.413702563982     1.129036601329    -0.431319083486    12.000000000000
         C           -2.596533563982    -1.081304398671     0.404146916514    12.000000000000
         C           -3.234079563982     0.083139601329    -0.020712083486    12.000000000000
         H            3.960244436018     0.551140601329     0.099835916514     1.007825032230
         H            1.020574436018     2.674923601329    -0.417552083486     1.007825032230
         H            0.761829436018     2.256544601329     1.273925916514     1.007825032230
         H            2.393813436018     2.660746601329     0.713935916514     1.007825032230
         H            3.363536436018    -2.090986398671    -0.409330083486     1.007825032230
         H           -2.823098563982     2.077737601329    -0.772789083486     1.007825032230
         H           -3.161053563982    -1.943898398671     0.753050916514     1.007825032230
         H           -4.315293563982     0.172071601329    -0.024270083486     1.007825032230

  Basis Set: AUG-CC-PVTZ
    Blend: AUG-CC-PVTZ
  Basis Set: (AUG-CC-PVTZ AUX)
    Blend: AUG-CC-PVTZ-JKFIT
	 Reference Energy          =    -525.5435713855889617 [Eh]
	 Singles Energy            =      -0.0000000000000000 [Eh]
	 Same-Spin Energy          =      -0.5773698151861356 [Eh]
	 Opposite-Spin Energy      =      -1.7384735963140354 [Eh]
	 Correlation Energy        =      -2.3158434115001709 [Eh]
	 Total Energy              =    -527.8594147970891299 [Eh]

	 ================> DF-SCS-MP2 Energies <==================
	-----------------------------------------------------------
	 SCS Same-Spin Scale       =       0.3333333333333333 [-]
	 SCS Opposite-Spin Scale   =       1.2000000000000000 [-]
	 SCS Same-Spin Energy      =      -0.1924566050620452 [Eh]
	 SCS Opposite-Spin Energy  =      -2.0861683155768422 [Eh]
	 SCS Correlation Energy    =      -2.2786249206388876 [Eh]
	 SCS Total Energy          =    -527.8221963062278519 [Eh]
	-----------------------------------------------------------

  Dipole Moment: [D]
     X:    -2.5797      Y:     2.5555      Z:     0.4410     Total:     3.6579

*** Psi4 exiting successfully. Buy a developer a beer!
