                               Psi4 1.3.2 release

  ==> Input File <==

--------------------------------------------------------------------------
#psi4
#
memory 32 gb

molecule  {
0 1
  N        0.8160970    -0.2990240    -0.0443680
  N        1.3585440    -1.5263750    -0.2734470
  N       -1.0817850     0.9875590    -0.4601130
  N       -1.2686320    -1.2431920     0.4227390
  C        1.7597130     0.6951090     0.1272320
  C        2.9786120     0.0532150     0.0016160
  C       -0.5903530    -0.1795160    -0.0248380
  C        1.4539390     2.1247050     0.4316710
  C        2.6793880    -1.2992810    -0.2463060
  C       -2.4210880     1.0928180    -0.4382200
  C       -2.5823927    -1.1071426     0.3926973
  C       -3.2414650     0.0469210    -0.0276130
  H        3.9528590     0.5149220     0.0929350
  H        1.0131890     2.6387050    -0.4244530
  H        0.7544440     2.2203260     1.2670250
  H        2.3864280     2.6245280     0.7070350
  H        3.3561510    -2.1272050    -0.4162310
  H       -2.8304840     2.0415190    -0.7796900
  H       -3.1684390    -1.9801170     0.7461500
  H       -4.3226790     0.1358530    -0.0311710
units angstrom
no_reorient  #important for SAPT in psi4, default
symmetry c1  #important for SAPT in psi4, default
}

set PROPERTIES_ORIGIN ["COM"]
properties('MP2/aug-cc-pvtz', properties = ['dipole'])
--------------------------------------------------------------------------

    Molecular point group: c1
  Charge       = 0
  Multiplicity = 1
  Basis Set: AUG-CC-PVTZ
    Blend: AUG-CC-PVTZ
  Basis Set: (AUG-CC-PVTZ AUX)
    Blend: AUG-CC-PVTZ-JKFIT

    Orbital Energies [Eh]
    ---------------------

    Doubly Occupied:

       1A    -15.642605     2A    -15.582186     3A    -15.581915
       4A    -15.578079     5A    -11.368351     6A    -11.310809
       7A    -11.308603     8A    -11.287146     9A    -11.255026
      10A    -11.251876    11A    -11.234934    12A    -11.217718
      13A     -1.387300    14A     -1.315789    15A     -1.210442
      16A     -1.129841    17A     -1.084495    18A     -1.045178
      19A     -0.959108    20A     -0.906879    21A     -0.898508
      22A     -0.800749    23A     -0.794471    24A     -0.714718
      25A     -0.707430    26A     -0.682957    27A     -0.638782
      28A     -0.633285    29A     -0.605073    30A     -0.588690
      31A     -0.584830    32A     -0.576401    33A     -0.564237
      34A     -0.553393    35A     -0.536296    36A     -0.493813
      37A     -0.455513    38A     -0.433694    39A     -0.419841
      40A     -0.407534    41A     -0.338063    42A     -0.332806

  @DF-RHF Final Energy:  -525.54373584385735

   => Energetics <=

    Nuclear Repulsion Energy =            658.8167779766182548
    One-Electron Energy =               -2019.8822968562317328
    Two-Electron Energy =                 835.5217830357562434
    Total Energy =                       -525.5437358438573483
  Basis Set: (AUG-CC-PVTZ AUX)
    Blend: AUG-CC-PVTZ-RI
    Molecular point group: c1

    Geometry (in Angstrom), charge = 0, multiplicity = 1:

       Center              X                  Y                   Z               Mass
    ------------   -----------------  -----------------  -----------------  -----------------
         N            0.821561715110    -0.262148218798    -0.036820428687    14.003074004430
         N            1.364008715110    -1.489499218798    -0.265899428687    14.003074004430
         N           -1.076320284890     1.024434781202    -0.452565428687    14.003074004430
         N           -1.263167284890    -1.206316218798     0.430286571313    14.003074004430
         C            1.765177715110     0.731984781202     0.134779571313    12.000000000000
         C            2.984076715110     0.090090781202     0.009163571313    12.000000000000
         C           -0.584888284890    -0.142640218798    -0.017290428687    12.000000000000
         C            1.459403715110     2.161580781202     0.439218571313    12.000000000000
         C            2.684852715110    -1.262405218798    -0.238758428687    12.000000000000
         C           -2.415623284890     1.129693781202    -0.430672428687    12.000000000000
         C           -2.576927984890    -1.070266818798     0.400244871313    12.000000000000
         C           -3.236000284890     0.083796781202    -0.020065428687    12.000000000000
         H            3.958323715110     0.551797781202     0.100482571313     1.007825032230
         H            1.018653715110     2.675580781202    -0.416905428687     1.007825032230
         H            0.759908715110     2.257201781202     1.274572571313     1.007825032230
         H            2.391892715110     2.661403781202     0.714582571313     1.007825032230
         H            3.361615715110    -2.090329218798    -0.408683428687     1.007825032230
         H           -2.825019284890     2.078394781202    -0.772142428687     1.007825032230
         H           -3.162974284890    -1.943241218798     0.753697571313     1.007825032230
         H           -4.317214284890     0.172728781202    -0.023623428687     1.007825032230

  Basis Set: AUG-CC-PVTZ
    Blend: AUG-CC-PVTZ
  Basis Set: (AUG-CC-PVTZ AUX)
    Blend: AUG-CC-PVTZ-JKFIT
	 Reference Energy          =    -525.5437358438573483 [Eh]
	 Singles Energy            =      -0.0000000000000000 [Eh]
	 Same-Spin Energy          =      -0.5773753311059777 [Eh]
	 Opposite-Spin Energy      =      -1.7381436542643411 [Eh]
	 Correlation Energy        =      -2.3155189853703186 [Eh]
	 Total Energy              =    -527.8592548292276661 [Eh]

	 ================> DF-SCS-MP2 Energies <==================
	-----------------------------------------------------------
	 SCS Same-Spin Scale       =       0.3333333333333333 [-]
	 SCS Opposite-Spin Scale   =       1.2000000000000000 [-]
	 SCS Same-Spin Energy      =      -0.1924584437019926 [Eh]
	 SCS Opposite-Spin Energy  =      -2.0857723851172092 [Eh]
	 SCS Correlation Energy    =      -2.2782308288192019 [Eh]
	 SCS Total Energy          =    -527.8219666726765809 [Eh]
	-----------------------------------------------------------

  Dipole Moment: [D]
     X:    -2.5278      Y:     2.5740      Z:     0.4325     Total:     3.6335

*** Psi4 exiting successfully. Buy a developer a beer!
