                               Psi4 1.3.2 release

  ==> Input File <==

--------------------------------------------------------------------------
#psi4
#
memory 32 gb

molecule  {
0 1
  N        0.8160970    -0.2990240    -0.0443680
  N        1.3585440    -1.5263750    -0.2734470
  N       -1.1673881     0.9541038    -0.4431327
  N       -1.2686320    -1.2431920     0.4227390
  C        1.7597130     0.6951090     0.1272320
  C        2.9786120     0.0532150     0.0016160
  C       -0.5903530    -0.1795160    -0.0248380
  C        1.4539390     2.1247050     0.4316710
  C        2.6793880    -1.2992810    -0.2463060
  C       -2.4210880     1.0928180    -0.4382200
  C       -2.6039190    -1.1175230     0.3972460
  C       -3.2414650     0.0469210    -0.0276130
  H        3.9528590     0.5149220     0.0929350
  H        1.0131890     2.6387050    -0.4244530
  H        0.7544440     2.2203260     1.2670250
  H        2.3864280     2.6245280     0.7070350
  H        3.3561510    -2.1272050    -0.4162310
  H       -2.8304840     2.0415190    -0.7796900
  H       -3.1684390    -1.9801170     0.7461500
  H       -4.3226790     0.1358530    -0.0311710
units angstrom
no_reorient  #important for SAPT in psi4, default
symmetry c1  #important for SAPT in psi4, default
}

set PROPERTIES_ORIGIN ["COM"]
properties('MP2/aug-cc-pvtz', properties = ['dipole'])
--------------------------------------------------------------------------

    Molecular point group: c1
  Charge       = 0
  Multiplicity = 1
  Basis Set: AUG-CC-PVTZ
    Blend: AUG-CC-PVTZ
  Basis Set: (AUG-CC-PVTZ AUX)
    Blend: AUG-CC-PVTZ-JKFIT

    Orbital Energies [Eh]
    ---------------------

    Doubly Occupied:

       1A    -15.646588     2A    -15.584106     3A    -15.576330
       4A    -15.571803     5A    -11.368979     6A    -11.302652
       7A    -11.299496     8A    -11.289369     9A    -11.257101
      10A    -11.247247    11A    -11.237544    12A    -11.219659
      13A     -1.389092    14A     -1.324639    15A     -1.214731
      16A     -1.132032    17A     -1.085715    18A     -1.043330
      19A     -0.961448    20A     -0.909793    21A     -0.899246
      22A     -0.805843    23A     -0.798781    24A     -0.719898
      25A     -0.708795    26A     -0.683996    27A     -0.641148
      28A     -0.631544    29A     -0.609760    30A     -0.594589
      31A     -0.589393    32A     -0.580623    33A     -0.565941
      34A     -0.556947    35A     -0.537838    36A     -0.487715
      37A     -0.456008    38A     -0.438153    39A     -0.408732
      40A     -0.405860    41A     -0.336620    42A     -0.334564

  @DF-RHF Final Energy:  -525.53977855818482

   => Energetics <=

    Nuclear Repulsion Energy =            659.2839578320681539
    One-Electron Energy =               -2020.7401796084332091
    Two-Electron Energy =                 835.9164432181802340
    Total Energy =                       -525.5397785581848211
  Basis Set: (AUG-CC-PVTZ AUX)
    Blend: AUG-CC-PVTZ-RI
    Molecular point group: c1

    Geometry (in Angstrom), charge = 0, multiplicity = 1:

       Center              X                  Y                   Z               Mass
    ------------   -----------------  -----------------  -----------------  -----------------
         N            0.830663842791    -0.258443450248    -0.038646828730    14.003074004430
         N            1.373110842791    -1.485794450248    -0.267725828730    14.003074004430
         N           -1.152821257209     0.994684349752    -0.437411528730    14.003074004430
         N           -1.254065157209    -1.202611450248     0.428460171270    14.003074004430
         C            1.774279842791     0.735689549752     0.132953171270    12.000000000000
         C            2.993178842791     0.093795549752     0.007337171270    12.000000000000
         C           -0.575786157209    -0.138935450248    -0.019116828730    12.000000000000
         C            1.468505842791     2.165285549752     0.437392171270    12.000000000000
         C            2.693954842791    -1.258700450248    -0.240584828730    12.000000000000
         C           -2.406521157209     1.133398549752    -0.432498828730    12.000000000000
         C           -2.589352157209    -1.076942450248     0.402967171270    12.000000000000
         C           -3.226898157209     0.087501549752    -0.021891828730    12.000000000000
         H            3.967425842791     0.555502549752     0.098656171270     1.007825032230
         H            1.027755842791     2.679285549752    -0.418731828730     1.007825032230
         H            0.769010842791     2.260906549752     1.272746171270     1.007825032230
         H            2.400994842791     2.665108549752     0.712756171270     1.007825032230
         H            3.370717842791    -2.086624450248    -0.410509828730     1.007825032230
         H           -2.815917157209     2.082099549752    -0.773968828730     1.007825032230
         H           -3.153872157209    -1.939536450248     0.751871171270     1.007825032230
         H           -4.308112157209     0.176433549752    -0.025449828730     1.007825032230

  Basis Set: AUG-CC-PVTZ
    Blend: AUG-CC-PVTZ
  Basis Set: (AUG-CC-PVTZ AUX)
    Blend: AUG-CC-PVTZ-JKFIT
	 Reference Energy          =    -525.5397785581848211 [Eh]
	 Singles Energy            =      -0.0000000000000000 [Eh]
	 Same-Spin Energy          =      -0.5769119321864740 [Eh]
	 Opposite-Spin Energy      =      -1.7363060858296828 [Eh]
	 Correlation Energy        =      -2.3132180180161566 [Eh]
	 Total Energy              =    -527.8529965762010079 [Eh]

	 ================> DF-SCS-MP2 Energies <==================
	-----------------------------------------------------------
	 SCS Same-Spin Scale       =       0.3333333333333333 [-]
	 SCS Opposite-Spin Scale   =       1.2000000000000000 [-]
	 SCS Same-Spin Energy      =      -0.1923039773954913 [Eh]
	 SCS Opposite-Spin Energy  =      -2.0835673029956192 [Eh]
	 SCS Correlation Energy    =      -2.2758712803911108 [Eh]
	 SCS Total Energy          =    -527.8156498385759505 [Eh]
	-----------------------------------------------------------

  Dipole Moment: [D]
     X:    -2.2569      Y:     2.6467      Z:     0.3972     Total:     3.5009

*** Psi4 exiting successfully. Buy a developer a beer!
