                               Psi4 1.3.2 release

  ==> Input File <==

--------------------------------------------------------------------------
#psi4
#
memory 32 gb

molecule  {
0 1
  N        0.8160970    -0.2990240    -0.0443680
  N        1.3585440    -1.5263750    -0.2734470
  N       -1.0817850     0.9875590    -0.4601130
  N       -1.2686320    -1.2431920     0.4227390
  C        1.7597130     0.6951090     0.1272320
  C        2.9786120     0.0532150     0.0016160
  C       -0.5903530    -0.1795160    -0.0248380
  C        1.4539390     2.1247050     0.4316710
  C        2.6793880    -1.2992810    -0.2463060
  C       -2.4408128     1.1062598    -0.4426725
  C       -2.6039190    -1.1175230     0.3972460
  C       -3.2414650     0.0469210    -0.0276130
  H        3.9528590     0.5149220     0.0929350
  H        1.0131890     2.6387050    -0.4244530
  H        0.7544440     2.2203260     1.2670250
  H        2.3864280     2.6245280     0.7070350
  H        3.3561510    -2.1272050    -0.4162310
  H       -2.8304840     2.0415190    -0.7796900
  H       -3.1684390    -1.9801170     0.7461500
  H       -4.3226790     0.1358530    -0.0311710
units angstrom
no_reorient  #important for SAPT in psi4, default
symmetry c1  #important for SAPT in psi4, default
}

set PROPERTIES_ORIGIN ["COM"]
properties('MP2/aug-cc-pvtz', properties = ['dipole'])
--------------------------------------------------------------------------

    Molecular point group: c1
  Charge       = 0
  Multiplicity = 1
  Basis Set: AUG-CC-PVTZ
    Blend: AUG-CC-PVTZ
  Basis Set: (AUG-CC-PVTZ AUX)
    Blend: AUG-CC-PVTZ-JKFIT

    Orbital Energies [Eh]
    ---------------------

    Doubly Occupied:

       1A    -15.641680     2A    -15.582882     3A    -15.581117
       4A    -15.578993     5A    -11.366648     6A    -11.312327
       7A    -11.310247     8A    -11.286313     9A    -11.254151
      10A    -11.253722    11A    -11.234233    12A    -11.216900
      13A     -1.385511    14A     -1.309415    15A     -1.202145
      16A     -1.128728    17A     -1.083865    18A     -1.045049
      19A     -0.958319    20A     -0.911387    21A     -0.894713
      22A     -0.800889    23A     -0.794653    24A     -0.712649
      25A     -0.706424    26A     -0.682090    27A     -0.637367
      28A     -0.634781    29A     -0.609415    30A     -0.590331
      31A     -0.587333    32A     -0.574091    33A     -0.563337
      34A     -0.551713    35A     -0.535329    36A     -0.489530
      37A     -0.454738    38A     -0.427683    39A     -0.420449
      40A     -0.407957    41A     -0.338134    42A     -0.331991

  @DF-RHF Final Energy:  -525.54192990640331

   => Energetics <=

    Nuclear Repulsion Energy =            657.7437773347648999
    One-Electron Energy =               -2017.7929583466334407
    Two-Electron Energy =                 834.5072511054652296
    Total Energy =                       -525.5419299064033112
  Basis Set: (AUG-CC-PVTZ AUX)
    Blend: AUG-CC-PVTZ-RI
    Molecular point group: c1

    Geometry (in Angstrom), charge = 0, multiplicity = 1:

       Center              X                  Y                   Z               Mass
    ------------   -----------------  -----------------  -----------------  -----------------
         N            0.824654100060    -0.262377716370    -0.036827640311    14.003074004430
         N            1.367101100060    -1.489728716370    -0.265906640311    14.003074004430
         N           -1.073227899940     1.024205283630    -0.452572640311    14.003074004430
         N           -1.260074899940    -1.206545716370     0.430279359689    14.003074004430
         C            1.768270100060     0.731755283630     0.134772359689    12.000000000000
         C            2.987169100060     0.089861283630     0.009156359689    12.000000000000
         C           -0.581795899940    -0.142869716370    -0.017297640311    12.000000000000
         C            1.462496100060     2.161351283630     0.439211359689    12.000000000000
         C            2.687945100060    -1.262634716370    -0.238765640311    12.000000000000
         C           -2.432255699940     1.142906083630    -0.435132140311    12.000000000000
         C           -2.595361899940    -1.080876716370     0.404786359689    12.000000000000
         C           -3.232907899940     0.083567283630    -0.020072640311    12.000000000000
         H            3.961416100060     0.551568283630     0.100475359689     1.007825032230
         H            1.021746100060     2.675351283630    -0.416912640311     1.007825032230
         H            0.763001100060     2.256972283630     1.274565359689     1.007825032230
         H            2.394985100060     2.661174283630     0.714575359689     1.007825032230
         H            3.364708100060    -2.090558716370    -0.408690640311     1.007825032230
         H           -2.821926899940     2.078165283630    -0.772149640311     1.007825032230
         H           -3.159881899940    -1.943470716370     0.753690359689     1.007825032230
         H           -4.314121899940     0.172499283630    -0.023630640311     1.007825032230

  Basis Set: AUG-CC-PVTZ
    Blend: AUG-CC-PVTZ
  Basis Set: (AUG-CC-PVTZ AUX)
    Blend: AUG-CC-PVTZ-JKFIT
	 Reference Energy          =    -525.5419299064033112 [Eh]
	 Singles Energy            =      -0.0000000000000000 [Eh]
	 Same-Spin Energy          =      -0.5777393412911762 [Eh]
	 Opposite-Spin Energy      =      -1.7391990027913096 [Eh]
	 Correlation Energy        =      -2.3169383440824856 [Eh]
	 Total Energy              =    -527.8588682504857843 [Eh]

	 ================> DF-SCS-MP2 Energies <==================
	-----------------------------------------------------------
	 SCS Same-Spin Scale       =       0.3333333333333333 [-]
	 SCS Opposite-Spin Scale   =       1.2000000000000000 [-]
	 SCS Same-Spin Energy      =      -0.1925797804303921 [Eh]
	 SCS Opposite-Spin Energy  =      -2.0870388033495715 [Eh]
	 SCS Correlation Energy    =      -2.2796185837799636 [Eh]
	 SCS Total Energy          =    -527.8215484901833179 [Eh]
	-----------------------------------------------------------

  Dipole Moment: [D]
     X:    -2.6252      Y:     2.5732      Z:     0.4345     Total:     3.7016

*** Psi4 exiting successfully. Buy a developer a beer!
