                               Psi4 1.3.2 release

  ==> Input File <==

--------------------------------------------------------------------------
#psi4
#
memory 32 gb

molecule  {
0 1
  N        0.8140659    -0.3218613    -0.0353486
  N        1.3585440    -1.5263750    -0.2734470
  N       -1.0817850     0.9875590    -0.4601130
  N       -1.2686320    -1.2431920     0.4227390
  C        1.7597130     0.6951090     0.1272320
  C        2.9786120     0.0532150     0.0016160
  C       -0.5903530    -0.1795160    -0.0248380
  C        1.4539390     2.1247050     0.4316710
  C        2.6793880    -1.2992810    -0.2463060
  C       -2.4210880     1.0928180    -0.4382200
  C       -2.6039190    -1.1175230     0.3972460
  C       -3.2414650     0.0469210    -0.0276130
  H        3.9528590     0.5149220     0.0929350
  H        1.0131890     2.6387050    -0.4244530
  H        0.7544440     2.2203260     1.2670250
  H        2.3864280     2.6245280     0.7070350
  H        3.3561510    -2.1272050    -0.4162310
  H       -2.8304840     2.0415190    -0.7796900
  H       -3.1684390    -1.9801170     0.7461500
  H       -4.3226790     0.1358530    -0.0311710
units angstrom
no_reorient  #important for SAPT in psi4, default
symmetry c1  #important for SAPT in psi4, default
}

set PROPERTIES_ORIGIN ["COM"]
properties('MP2/aug-cc-pvtz', properties = ['dipole'])
--------------------------------------------------------------------------

    Molecular point group: c1
  Charge       = 0
  Multiplicity = 1
  Basis Set: AUG-CC-PVTZ
    Blend: AUG-CC-PVTZ
  Basis Set: (AUG-CC-PVTZ AUX)
    Blend: AUG-CC-PVTZ-JKFIT

    Orbital Energies [Eh]
    ---------------------

    Doubly Occupied:

       1A    -15.643070     2A    -15.582988     3A    -15.581949
       4A    -15.578230     5A    -11.367189     6A    -11.311851
       7A    -11.309300     8A    -11.286380     9A    -11.253266
      10A    -11.252740    11A    -11.234720    12A    -11.218379
      13A     -1.389580    14A     -1.313650    15A     -1.206023
      16A     -1.128607    17A     -1.083301    18A     -1.045580
      19A     -0.958782    20A     -0.909168    21A     -0.895865
      22A     -0.800930    23A     -0.794505    24A     -0.712937
      25A     -0.708093    26A     -0.682687    27A     -0.638338
      28A     -0.633764    29A     -0.607166    30A     -0.590357
      31A     -0.586427    32A     -0.575546    33A     -0.564379
      34A     -0.553932    35A     -0.535589    36A     -0.491401
      37A     -0.454859    38A     -0.430605    39A     -0.420285
      40A     -0.407321    41A     -0.338083    42A     -0.331194

  @DF-RHF Final Energy:  -525.54297932987129

   => Energetics <=

    Nuclear Repulsion Energy =            658.2622109323691575
    One-Electron Energy =               -2018.7923472049822067
    Two-Electron Energy =                 834.9871569427418763
    Total Energy =                       -525.5429793298712866
  Basis Set: (AUG-CC-PVTZ AUX)
    Blend: AUG-CC-PVTZ-RI
    Molecular point group: c1

    Geometry (in Angstrom), charge = 0, multiplicity = 1:

       Center              X                  Y                   Z               Mass
    ------------   -----------------  -----------------  -----------------  -----------------
         N            0.821322009328    -0.282209585705    -0.028931023020    14.003074004430
         N            1.365800109328    -1.486723285705    -0.267029423020    14.003074004430
         N           -1.074528890672     1.027210714295    -0.453695423020    14.003074004430
         N           -1.261375890672    -1.203540285705     0.429156576980    14.003074004430
         C            1.766969109328     0.734760714295     0.133649576980    12.000000000000
         C            2.985868109328     0.092866714295     0.008033576980    12.000000000000
         C           -0.583096890672    -0.139864285705    -0.018420423020    12.000000000000
         C            1.461195109328     2.164356714295     0.438088576980    12.000000000000
         C            2.686644109328    -1.259629285705    -0.239888423020    12.000000000000
         C           -2.413831890672     1.132469714295    -0.431802423020    12.000000000000
         C           -2.596662890672    -1.077871285705     0.403663576980    12.000000000000
         C           -3.234208890672     0.086572714295    -0.021195423020    12.000000000000
         H            3.960115109328     0.554573714295     0.099352576980     1.007825032230
         H            1.020445109328     2.678356714295    -0.418035423020     1.007825032230
         H            0.761700109328     2.259977714295     1.273442576980     1.007825032230
         H            2.393684109328     2.664179714295     0.713452576980     1.007825032230
         H            3.363407109328    -2.087553285705    -0.409813423020     1.007825032230
         H           -2.823227890672     2.081170714295    -0.773272423020     1.007825032230
         H           -3.161182890672    -1.940465285705     0.752567576980     1.007825032230
         H           -4.315422890672     0.175504714295    -0.024753423020     1.007825032230

  Basis Set: AUG-CC-PVTZ
    Blend: AUG-CC-PVTZ
  Basis Set: (AUG-CC-PVTZ AUX)
    Blend: AUG-CC-PVTZ-JKFIT
	 Reference Energy          =    -525.5429793298712866 [Eh]
	 Singles Energy            =      -0.0000000000000000 [Eh]
	 Same-Spin Energy          =      -0.5777101203509436 [Eh]
	 Opposite-Spin Energy      =      -1.7386668206076705 [Eh]
	 Correlation Energy        =      -2.3163769409586141 [Eh]
	 Total Energy              =    -527.8593562708299487 [Eh]

	 ================> DF-SCS-MP2 Energies <==================
	-----------------------------------------------------------
	 SCS Same-Spin Scale       =       0.3333333333333333 [-]
	 SCS Opposite-Spin Scale   =       1.2000000000000000 [-]
	 SCS Same-Spin Energy      =      -0.1925700401169812 [Eh]
	 SCS Opposite-Spin Energy  =      -2.0864001847292046 [Eh]
	 SCS Correlation Energy    =      -2.2789702248461858 [Eh]
	 SCS Total Energy          =    -527.8219495547174347 [Eh]
	-----------------------------------------------------------

  Dipole Moment: [D]
     X:    -2.5813      Y:     2.5684      Z:     0.4380     Total:     3.6676

*** Psi4 exiting successfully. Buy a developer a beer!
