                               Psi4 1.3.2 release

  ==> Input File <==

--------------------------------------------------------------------------
#psi4
#
memory 32 gb

molecule  {
0 1
  N        0.8160970    -0.2990240    -0.0443680
  N        1.3585440    -1.5263750    -0.2734470
  N       -1.0817850     0.9875590    -0.4601130
  N       -1.2650386    -1.1997614     0.4056159
  C        1.7597130     0.6951090     0.1272320
  C        2.9786120     0.0532150     0.0016160
  C       -0.5903530    -0.1795160    -0.0248380
  C        1.4539390     2.1247050     0.4316710
  C        2.6793880    -1.2992810    -0.2463060
  C       -2.4210880     1.0928180    -0.4382200
  C       -2.6039190    -1.1175230     0.3972460
  C       -3.2414650     0.0469210    -0.0276130
  H        3.9528590     0.5149220     0.0929350
  H        1.0131890     2.6387050    -0.4244530
  H        0.7544440     2.2203260     1.2670250
  H        2.3864280     2.6245280     0.7070350
  H        3.3561510    -2.1272050    -0.4162310
  H       -2.8304840     2.0415190    -0.7796900
  H       -3.1684390    -1.9801170     0.7461500
  H       -4.3226790     0.1358530    -0.0311710
units angstrom
no_reorient  #important for SAPT in psi4, default
symmetry c1  #important for SAPT in psi4, default
}

set PROPERTIES_ORIGIN ["COM"]
properties('MP2/aug-cc-pvtz', properties = ['dipole'])
--------------------------------------------------------------------------

    Molecular point group: c1
  Charge       = 0
  Multiplicity = 1
  Basis Set: AUG-CC-PVTZ
    Blend: AUG-CC-PVTZ
  Basis Set: (AUG-CC-PVTZ AUX)
    Blend: AUG-CC-PVTZ-JKFIT

    Orbital Energies [Eh]
    ---------------------

    Doubly Occupied:

       1A    -15.640168     2A    -15.580617     3A    -15.580524
       4A    -15.572134     5A    -11.361203     6A    -11.311254
       7A    -11.310966     8A    -11.285629     9A    -11.253425
      10A    -11.253415    11A    -11.233967    12A    -11.216209
      13A     -1.387131    14A     -1.317765    15A     -1.207069
      16A     -1.129530    17A     -1.084016    18A     -1.046128
      19A     -0.957903    20A     -0.913944    21A     -0.895578
      22A     -0.800467    23A     -0.795652    24A     -0.714730
      25A     -0.710088    26A     -0.682496    27A     -0.639087
      28A     -0.633726    29A     -0.607878    30A     -0.592488
      31A     -0.587220    32A     -0.576500    33A     -0.563218
      34A     -0.552419    35A     -0.535040    36A     -0.488550
      37A     -0.453849    38A     -0.429955    39A     -0.416999
      40A     -0.408474    41A     -0.338838    42A     -0.331389

  @DF-RHF Final Energy:  -525.54421522818245

   => Energetics <=

    Nuclear Repulsion Energy =            659.4986661198145157
    One-Electron Energy =               -2021.2904735404451912
    Two-Electron Energy =                 836.2475921924482236
    Total Energy =                       -525.5442152281824519
  Basis Set: (AUG-CC-PVTZ AUX)
    Blend: AUG-CC-PVTZ-RI
    Molecular point group: c1

    Geometry (in Angstrom), charge = 0, multiplicity = 1:

       Center              X                  Y                   Z               Mass
    ------------   -----------------  -----------------  -----------------  -----------------
         N            0.822861087834    -0.265169286543    -0.035663522508    14.003074004430
         N            1.365308087834    -1.492520286543    -0.264742522508    14.003074004430
         N           -1.075020912166     1.021413713457    -0.451408522508    14.003074004430
         N           -1.258274512166    -1.165906686543     0.414320377492    14.003074004430
         C            1.766477087834     0.728963713457     0.135936477492    12.000000000000
         C            2.985376087834     0.087069713457     0.010320477492    12.000000000000
         C           -0.583588912166    -0.145661286543    -0.016133522508    12.000000000000
         C            1.460703087834     2.158559713457     0.440375477492    12.000000000000
         C            2.686152087834    -1.265426286543    -0.237601522508    12.000000000000
         C           -2.414323912166     1.126672713457    -0.429515522508    12.000000000000
         C           -2.597154912166    -1.083668286543     0.405950477492    12.000000000000
         C           -3.234700912166     0.080775713457    -0.018908522508    12.000000000000
         H            3.959623087834     0.548776713457     0.101639477492     1.007825032230
         H            1.019953087834     2.672559713457    -0.415748522508     1.007825032230
         H            0.761208087834     2.254180713457     1.275729477492     1.007825032230
         H            2.393192087834     2.658382713457     0.715739477492     1.007825032230
         H            3.362915087834    -2.093350286543    -0.407526522508     1.007825032230
         H           -2.823719912166     2.075373713457    -0.770985522508     1.007825032230
         H           -3.161674912166    -1.946262286543     0.754854477492     1.007825032230
         H           -4.315914912166     0.169707713457    -0.022466522508     1.007825032230

  Basis Set: AUG-CC-PVTZ
    Blend: AUG-CC-PVTZ
  Basis Set: (AUG-CC-PVTZ AUX)
    Blend: AUG-CC-PVTZ-JKFIT
	 Reference Energy          =    -525.5442152281824519 [Eh]
	 Singles Energy            =      -0.0000000000000000 [Eh]
	 Same-Spin Energy          =      -0.5773160412016675 [Eh]
	 Opposite-Spin Energy      =      -1.7375045734787249 [Eh]
	 Correlation Energy        =      -2.3148206146803925 [Eh]
	 Total Energy              =    -527.8590358428627951 [Eh]

	 ================> DF-SCS-MP2 Energies <==================
	-----------------------------------------------------------
	 SCS Same-Spin Scale       =       0.3333333333333333 [-]
	 SCS Opposite-Spin Scale   =       1.2000000000000000 [-]
	 SCS Same-Spin Energy      =      -0.1924386804005558 [Eh]
	 SCS Opposite-Spin Energy  =      -2.0850054881744700 [Eh]
	 SCS Correlation Energy    =      -2.2774441685750260 [Eh]
	 SCS Total Energy          =    -527.8216593967574681 [Eh]
	-----------------------------------------------------------

  Dipole Moment: [D]
     X:    -2.6741      Y:     2.4861      Z:     0.4710     Total:     3.6814

*** Psi4 exiting successfully. Buy a developer a beer!
