                               Psi4 1.3.2 release

  ==> Input File <==

--------------------------------------------------------------------------
#psi4
#
memory 32 gb

molecule  {
0 1
  N        0.8160970    -0.2990240    -0.0443680
  N        1.3585440    -1.5263750    -0.2734470
  N       -1.0817850     0.9875590    -0.4601130
  N       -1.2686320    -1.2431920     0.4227390
  C        1.7597130     0.6951090     0.1272320
  C        2.9786120     0.0532150     0.0016160
  C       -0.5903530    -0.1795160    -0.0248380
  C        1.4539390     2.1247050     0.4316710
  C        2.7034305    -1.3042456    -0.2470233
  C       -2.4210880     1.0928180    -0.4382200
  C       -2.6039190    -1.1175230     0.3972460
  C       -3.2414650     0.0469210    -0.0276130
  H        3.9528590     0.5149220     0.0929350
  H        1.0131890     2.6387050    -0.4244530
  H        0.7544440     2.2203260     1.2670250
  H        2.3864280     2.6245280     0.7070350
  H        3.3561510    -2.1272050    -0.4162310
  H       -2.8304840     2.0415190    -0.7796900
  H       -3.1684390    -1.9801170     0.7461500
  H       -4.3226790     0.1358530    -0.0311710
units angstrom
no_reorient  #important for SAPT in psi4, default
symmetry c1  #important for SAPT in psi4, default
}

set PROPERTIES_ORIGIN ["COM"]
properties('MP2/aug-cc-pvtz', properties = ['dipole'])
--------------------------------------------------------------------------

    Molecular point group: c1
  Charge       = 0
  Multiplicity = 1
  Basis Set: AUG-CC-PVTZ
    Blend: AUG-CC-PVTZ
  Basis Set: (AUG-CC-PVTZ AUX)
    Blend: AUG-CC-PVTZ-JKFIT

    Orbital Energies [Eh]
    ---------------------

    Doubly Occupied:

       1A    -15.643584     2A    -15.582905     3A    -15.582857
       4A    -15.579016     5A    -11.367789     6A    -11.311755
       7A    -11.309680     8A    -11.286246     9A    -11.255380
      10A    -11.253049    11A    -11.234637    12A    -11.218185
      13A     -1.384240    14A     -1.311539    15A     -1.206322
      16A     -1.126272    17A     -1.082881    18A     -1.045097
      19A     -0.957570    20A     -0.909189    21A     -0.897684
      22A     -0.802996    23A     -0.794505    24A     -0.713217
      25A     -0.706820    26A     -0.682253    27A     -0.637872
      28A     -0.633742    29A     -0.607574    30A     -0.590486
      31A     -0.587057    32A     -0.576004    33A     -0.562573
      34A     -0.551441    35A     -0.538158    36A     -0.491922
      37A     -0.453536    38A     -0.430657    39A     -0.420226
      40A     -0.406863    41A     -0.337957    42A     -0.329762

  @DF-RHF Final Energy:  -525.54083653557973

   => Energetics <=

    Nuclear Repulsion Energy =            657.7148703788716375
    One-Electron Energy =               -2017.7084166972579169
    Two-Electron Energy =                 834.4527097828065507
    Total Energy =                       -525.5408365355797287
  Basis Set: (AUG-CC-PVTZ AUX)
    Blend: AUG-CC-PVTZ-RI
    Molecular point group: c1

    Geometry (in Angstrom), charge = 0, multiplicity = 1:

       Center              X                  Y                   Z               Mass
    ------------   -----------------  -----------------  -----------------  -----------------
         N            0.821373088407    -0.260997882273    -0.037107649238    14.003074004430
         N            1.363820088407    -1.488348882273    -0.266186649238    14.003074004430
         N           -1.076508911593     1.025585117727    -0.452852649238    14.003074004430
         N           -1.263355911593    -1.205165882273     0.429999350762    14.003074004430
         C            1.764989088407     0.733135117727     0.134492350762    12.000000000000
         C            2.983888088407     0.091241117727     0.008876350762    12.000000000000
         C           -0.585076911593    -0.141489882273    -0.017577649238    12.000000000000
         C            1.459215088407     2.162731117727     0.438931350762    12.000000000000
         C            2.708706588407    -1.266219482273    -0.239762949238    12.000000000000
         C           -2.415811911593     1.130844117727    -0.430959649238    12.000000000000
         C           -2.598642911593    -1.079496882273     0.404506350762    12.000000000000
         C           -3.236188911593     0.084947117727    -0.020352649238    12.000000000000
         H            3.958135088407     0.552948117727     0.100195350762     1.007825032230
         H            1.018465088407     2.676731117727    -0.417192649238     1.007825032230
         H            0.759720088407     2.258352117727     1.274285350762     1.007825032230
         H            2.391704088407     2.662554117727     0.714295350762     1.007825032230
         H            3.361427088407    -2.089178882273    -0.408970649238     1.007825032230
         H           -2.825207911593     2.079545117727    -0.772429649238     1.007825032230
         H           -3.163162911593    -1.942090882273     0.753410350762     1.007825032230
         H           -4.317402911593     0.173879117727    -0.023910649238     1.007825032230

  Basis Set: AUG-CC-PVTZ
    Blend: AUG-CC-PVTZ
  Basis Set: (AUG-CC-PVTZ AUX)
    Blend: AUG-CC-PVTZ-JKFIT
	 Reference Energy          =    -525.5408365355797287 [Eh]
	 Singles Energy            =      -0.0000000000000000 [Eh]
	 Same-Spin Energy          =      -0.5781973476582341 [Eh]
	 Opposite-Spin Energy      =      -1.7398800250877571 [Eh]
	 Correlation Energy        =      -2.3180773727459911 [Eh]
	 Total Energy              =    -527.8589139083256896 [Eh]

	 ================> DF-SCS-MP2 Energies <==================
	-----------------------------------------------------------
	 SCS Same-Spin Scale       =       0.3333333333333333 [-]
	 SCS Opposite-Spin Scale   =       1.2000000000000000 [-]
	 SCS Same-Spin Energy      =      -0.1927324492194114 [Eh]
	 SCS Opposite-Spin Energy  =      -2.0878560301053084 [Eh]
	 SCS Correlation Energy    =      -2.2805884793247198 [Eh]
	 SCS Total Energy          =    -527.8214250149044346 [Eh]
	-----------------------------------------------------------

  Dipole Moment: [D]
     X:    -2.6134      Y:     2.5549      Z:     0.4403     Total:     3.6812

*** Psi4 exiting successfully. Buy a developer a beer!
