                               Psi4 1.3.2 release

  ==> Input File <==

--------------------------------------------------------------------------
#psi4
#
memory 32 gb

molecule  {
0 1
  N        0.8160970    -0.2990240    -0.0443680
  N        1.3585440    -1.5263750    -0.2734470
  N       -1.0817850     0.9875590    -0.4601130
  N       -1.2686320    -1.2431920     0.4227390
  C        1.7597130     0.6951090     0.1272320
  C        2.9786120     0.0532150     0.0016160
  C       -0.5903530    -0.1795160    -0.0248380
  C        1.4539390     2.1247050     0.4316710
  C        2.6793880    -1.2992810    -0.2463060
  C       -2.4210880     1.0928180    -0.4382200
  C       -2.6039190    -1.1175230     0.3972460
  C       -3.2414650     0.0469210    -0.0276130
  H        3.9528590     0.5149220     0.0929350
  H        1.0131890     2.6387050    -0.4244530
  H        0.7544440     2.2203260     1.2670250
  H        2.3864280     2.6245280     0.7070350
  H        3.3561510    -2.1272050    -0.4162310
  H       -2.8304840     2.0415190    -0.7796900
  H       -3.1684390    -1.9801170     0.7461500
  H       -4.5220048     0.1522479    -0.0318269
units angstrom
no_reorient  #important for SAPT in psi4, default
symmetry c1  #important for SAPT in psi4, default
}

set PROPERTIES_ORIGIN ["COM"]
properties('MP2/aug-cc-pvtz', properties = ['dipole'])
--------------------------------------------------------------------------

    Molecular point group: c1
  Charge       = 0
  Multiplicity = 1
  Basis Set: AUG-CC-PVTZ
    Blend: AUG-CC-PVTZ
  Basis Set: (AUG-CC-PVTZ AUX)
    Blend: AUG-CC-PVTZ-JKFIT

    Orbital Energies [Eh]
    ---------------------

    Doubly Occupied:

       1A    -15.642757     2A    -15.584019     3A    -15.581985
       4A    -15.580288     5A    -11.368474     6A    -11.313490
       7A    -11.311475     8A    -11.287276     9A    -11.273255
      10A    -11.255053    11A    -11.235162    12A    -11.217799
      13A     -1.387087    14A     -1.313840    15A     -1.207494
      16A     -1.129375    17A     -1.084153    18A     -1.041315
      19A     -0.959244    20A     -0.910298    21A     -0.892444
      22A     -0.800551    23A     -0.795778    24A     -0.713436
      25A     -0.705258    26A     -0.669704    27A     -0.638851
      28A     -0.610234    29A     -0.606048    30A     -0.588789
      31A     -0.585941    32A     -0.576059    33A     -0.563452
      34A     -0.553242    35A     -0.535627    36A     -0.485151
      37A     -0.455662    38A     -0.431859    39A     -0.421404
      40A     -0.408703    41A     -0.338844    42A     -0.332891

  @DF-RHF Final Energy:  -525.52109200548762

   => Energetics <=

    Nuclear Repulsion Energy =            657.3190057516636671
    One-Electron Energy =               -2016.8926608319588922
    Two-Electron Energy =                 834.0525630748077219
    Total Energy =                       -525.5210920054876169
  Basis Set: (AUG-CC-PVTZ AUX)
    Blend: AUG-CC-PVTZ-RI
    Molecular point group: c1

    Geometry (in Angstrom), charge = 0, multiplicity = 1:

       Center              X                  Y                   Z               Mass
    ------------   -----------------  -----------------  -----------------  -----------------
         N            0.824430379351    -0.261473274682    -0.037157292048    14.003074004430
         N            1.366877379351    -1.488824274682    -0.266236292048    14.003074004430
         N           -1.073451620649     1.025109725318    -0.452902292048    14.003074004430
         N           -1.260298620649    -1.205641274682     0.429949707952    14.003074004430
         C            1.768046379351     0.732659725318     0.134442707952    12.000000000000
         C            2.986945379351     0.090765725318     0.008826707952    12.000000000000
         C           -0.582019620649    -0.141965274682    -0.017627292048    12.000000000000
         C            1.462272379351     2.162255725318     0.438881707952    12.000000000000
         C            2.687721379351    -1.261730274682    -0.239095292048    12.000000000000
         C           -2.412754620649     1.130368725318    -0.431009292048    12.000000000000
         C           -2.595585620649    -1.079972274682     0.404456707952    12.000000000000
         C           -3.233131620649     0.084471725318    -0.020402292048    12.000000000000
         H            3.961192379351     0.552472725318     0.100145707952     1.007825032230
         H            1.021522379351     2.676255725318    -0.417242292048     1.007825032230
         H            0.762777379351     2.257876725318     1.274235707952     1.007825032230
         H            2.394761379351     2.662078725318     0.714245707952     1.007825032230
         H            3.364484379351    -2.089654274682    -0.409020292048     1.007825032230
         H           -2.822150620649     2.079069725318    -0.772479292048     1.007825032230
         H           -3.160105620649    -1.942566274682     0.753360707952     1.007825032230
         H           -4.513671420649     0.189798625318    -0.024616192048     1.007825032230

  Basis Set: AUG-CC-PVTZ
    Blend: AUG-CC-PVTZ
  Basis Set: (AUG-CC-PVTZ AUX)
    Blend: AUG-CC-PVTZ-JKFIT
	 Reference Energy          =    -525.5210920054876169 [Eh]
	 Singles Energy            =      -0.0000000000000000 [Eh]
	 Same-Spin Energy          =      -0.5780421023500836 [Eh]
	 Opposite-Spin Energy      =      -1.7407077883722597 [Eh]
	 Correlation Energy        =      -2.3187498907223434 [Eh]
	 Total Energy              =    -527.8398418962099186 [Eh]

	 ================> DF-SCS-MP2 Energies <==================
	-----------------------------------------------------------
	 SCS Same-Spin Scale       =       0.3333333333333333 [-]
	 SCS Opposite-Spin Scale   =       1.2000000000000000 [-]
	 SCS Same-Spin Energy      =      -0.1926807007833612 [Eh]
	 SCS Opposite-Spin Energy  =      -2.0888493460467115 [Eh]
	 SCS Correlation Energy    =      -2.2815300468300728 [Eh]
	 SCS Total Energy          =    -527.8026220523177017 [Eh]
	-----------------------------------------------------------

  Dipole Moment: [D]
     X:    -2.5131      Y:     2.5504      Z:     0.4410     Total:     3.6076

*** Psi4 exiting successfully. Buy a developer a beer!
