                               Psi4 1.4a3.dev225

  ==> Input File <==

--------------------------------------------------------------------------
#psi4
#
memory 32 gb

molecule  {
0 1
  N        0.8160970    -0.2990240    -0.0443680
  N        1.3585440    -1.5263750    -0.2734470
  N       -1.0817850     0.9875590    -0.4601130
  N       -1.2686320    -1.2431920     0.4227390
  C        1.7597130     0.6951090     0.1272320
  C        2.9786120     0.0532150     0.0016160
  C       -0.5704267    -0.1812092    -0.0251147
  C        1.4539390     2.1247050     0.4316710
  C        2.6793880    -1.2992810    -0.2463060
  C       -2.4210880     1.0928180    -0.4382200
  C       -2.6039190    -1.1175230     0.3972460
  C       -3.2414650     0.0469210    -0.0276130
  H        3.9528590     0.5149220     0.0929350
  H        1.0131890     2.6387050    -0.4244530
  H        0.7544440     2.2203260     1.2670250
  H        2.3864280     2.6245280     0.7070350
  H        3.3561510    -2.1272050    -0.4162310
  H       -2.8304840     2.0415190    -0.7796900
  H       -3.1684390    -1.9801170     0.7461500
  H       -4.3226790     0.1358530    -0.0311710
units angstrom
no_reorient  #important for SAPT in psi4, default
symmetry c1  #important for SAPT in psi4, default
}

set PROPERTIES_ORIGIN ["COM"]
properties('MP2/aug-cc-pvtz', properties = ['dipole'])
--------------------------------------------------------------------------

    Molecular point group: c1
  Charge       = 0
  Multiplicity = 1
  Basis Set: AUG-CC-PVTZ
    Blend: AUG-CC-PVTZ
  Basis Set: (AUG-CC-PVTZ AUX)
    Blend: AUG-CC-PVTZ-JKFIT

    Orbital Energies [Eh]
    ---------------------

    Doubly Occupied:

       1A    -15.644087     2A    -15.583322     3A    -15.580915
       4A    -15.577115     5A    -11.367460     6A    -11.309794
       7A    -11.307685     8A    -11.288964     9A    -11.256860
      10A    -11.250860    11A    -11.235626    12A    -11.219374
      13A     -1.389919    14A     -1.308436    15A     -1.201050
      16A     -1.133257    17A     -1.085767    18A     -1.045173
      19A     -0.960294    20A     -0.906035    21A     -0.897513
      22A     -0.802209    23A     -0.797509    24A     -0.712080
      25A     -0.706329    26A     -0.683425    27A     -0.639738
      28A     -0.633190    29A     -0.606470    30A     -0.592079
      31A     -0.586450    32A     -0.574081    33A     -0.565387
      34A     -0.552857    35A     -0.537265    36A     -0.490471
      37A     -0.456413    38A     -0.428105    39A     -0.416198
      40A     -0.408591    41A     -0.337270    42A     -0.334222

  @DF-RHF Final Energy:  -525.54279038566608

   => Energetics <=

    Nuclear Repulsion Energy =            658.3094935857492374
    One-Electron Energy =               -2018.8848769975500090
    Two-Electron Energy =                 835.0325930261348049
    Total Energy =                       -525.5427903856660805
  Basis Set: (AUG-CC-PVTZ AUX)
    Blend: AUG-CC-PVTZ-RI
    Molecular point group: c1

    Geometry (in Angstrom), charge = 0, multiplicity = 1:

       Center              X                  Y                   Z               Mass
    ------------   -----------------  -----------------  -----------------  -----------------
         N            0.821681658965    -0.261243122476    -0.037140678777    14.003074004430
         N            1.364128658965    -1.488594122476    -0.266219678777    14.003074004430
         N           -1.076200341035     1.025339877524    -0.452885678777    14.003074004430
         N           -1.263047341035    -1.205411122476     0.429966321223    14.003074004430
         C            1.765297658965     0.732889877524     0.134459321223    12.000000000000
         C            2.984196658965     0.090995877524     0.008843321223    12.000000000000
         C           -0.564842041035    -0.143428322476    -0.017887378777    12.000000000000
         C            1.459523658965     2.162485877524     0.438898321223    12.000000000000
         C            2.684972658965    -1.261500122476    -0.239078678777    12.000000000000
         C           -2.415503341035     1.130598877524    -0.430992678777    12.000000000000
         C           -2.598334341035    -1.079742122476     0.404473321223    12.000000000000
         C           -3.235880341035     0.084701877524    -0.020385678777    12.000000000000
         H            3.958443658965     0.552702877524     0.100162321223     1.007825032230
         H            1.018773658965     2.676485877524    -0.417225678777     1.007825032230
         H            0.760028658965     2.258106877524     1.274252321223     1.007825032230
         H            2.392012658965     2.662308877524     0.714262321223     1.007825032230
         H            3.361735658965    -2.089424122476    -0.409003678777     1.007825032230
         H           -2.824899341035     2.079299877524    -0.772462678777     1.007825032230
         H           -3.162854341035    -1.942336122476     0.753377321223     1.007825032230
         H           -4.317094341035     0.173633877524    -0.023943678777     1.007825032230

  Basis Set: AUG-CC-PVTZ
    Blend: AUG-CC-PVTZ
  Basis Set: (AUG-CC-PVTZ AUX)
    Blend: AUG-CC-PVTZ-JKFIT
	 Reference Energy          =    -525.5427903856660805 [Eh]
	 Singles Energy            =      -0.0000000000000000 [Eh]
	 Same-Spin Energy          =      -0.5776461697918183 [Eh]
	 Opposite-Spin Energy      =      -1.7388374676356473 [Eh]
	 Correlation Energy        =      -2.3164836374274653 [Eh]
	 Total Energy              =    -527.8592740230935760 [Eh]

	 ================> DF-SCS-MP2 Energies <==================
	-----------------------------------------------------------
	 SCS Same-Spin Scale       =       0.3333333333333333 [-]
	 SCS Opposite-Spin Scale   =       1.2000000000000000 [-]
	 SCS Same-Spin Energy      =      -0.1925487232639394 [Eh]
	 SCS Opposite-Spin Energy  =      -2.0866049611627768 [Eh]
	 SCS Correlation Energy    =      -2.2791536844267162 [Eh]
	 SCS Total Energy          =    -527.8219440700927407 [Eh]
	-----------------------------------------------------------

  Dipole Moment: [D]
     X:    -2.3621      Y:     2.5441      Z:     0.4376     Total:     3.4990

*** Psi4 exiting successfully. Buy a developer a beer!
