                               Psi4 1.3.2 release

  ==> Input File <==

--------------------------------------------------------------------------
#psi4
#
memory 32 gb

molecule  {
0 1
  N        0.8518775    -0.3307787    -0.0503835
  N        1.3585440    -1.5263750    -0.2734470
  N       -1.0817850     0.9875590    -0.4601130
  N       -1.2686320    -1.2431920     0.4227390
  C        1.7597130     0.6951090     0.1272320
  C        2.9786120     0.0532150     0.0016160
  C       -0.5903530    -0.1795160    -0.0248380
  C        1.4539390     2.1247050     0.4316710
  C        2.6793880    -1.2992810    -0.2463060
  C       -2.4210880     1.0928180    -0.4382200
  C       -2.6039190    -1.1175230     0.3972460
  C       -3.2414650     0.0469210    -0.0276130
  H        3.9528590     0.5149220     0.0929350
  H        1.0131890     2.6387050    -0.4244530
  H        0.7544440     2.2203260     1.2670250
  H        2.3864280     2.6245280     0.7070350
  H        3.3561510    -2.1272050    -0.4162310
  H       -2.8304840     2.0415190    -0.7796900
  H       -3.1684390    -1.9801170     0.7461500
  H       -4.3226790     0.1358530    -0.0311710
units angstrom
no_reorient  #important for SAPT in psi4, default
symmetry c1  #important for SAPT in psi4, default
}

set PROPERTIES_ORIGIN ["COM"]
properties('MP2/aug-cc-pvtz', properties = ['dipole'])
--------------------------------------------------------------------------

    Molecular point group: c1
  Charge       = 0
  Multiplicity = 1
  Basis Set: AUG-CC-PVTZ
    Blend: AUG-CC-PVTZ
  Basis Set: (AUG-CC-PVTZ AUX)
    Blend: AUG-CC-PVTZ-JKFIT

    Orbital Energies [Eh]
    ---------------------

    Doubly Occupied:

       1A    -15.645354     2A    -15.586043     3A    -15.581410
       4A    -15.579683     5A    -11.370617     6A    -11.313735
       7A    -11.311252     8A    -11.281299     9A    -11.255328
      10A    -11.248439    11A    -11.234930    12A    -11.215115
      13A     -1.396819    14A     -1.318074    15A     -1.207995
      16A     -1.123144    17A     -1.086281    18A     -1.045001
      19A     -0.959559    20A     -0.910241    21A     -0.894794
      22A     -0.801895    23A     -0.793181    24A     -0.713706
      25A     -0.709382    26A     -0.683590    27A     -0.640130
      28A     -0.633537    29A     -0.607572    30A     -0.588017
      31A     -0.583548    32A     -0.576598    33A     -0.565691
      34A     -0.556969    35A     -0.534043    36A     -0.491725
      37A     -0.457501    38A     -0.432248    39A     -0.422595
      40A     -0.404568    41A     -0.338748    42A     -0.330223

  @DF-RHF Final Energy:  -525.54041142834035

   => Energetics <=

    Nuclear Repulsion Energy =            658.2754998992461424
    One-Electron Energy =               -2018.7706631647754421
    Two-Electron Energy =                 834.9547518371889510
    Total Energy =                       -525.5404114283403487
  Basis Set: (AUG-CC-PVTZ AUX)
    Blend: AUG-CC-PVTZ-RI
    Molecular point group: c1

    Geometry (in Angstrom), charge = 0, multiplicity = 1:

       Center              X                  Y                   Z               Mass
    ------------   -----------------  -----------------  -----------------  -----------------
         N            0.855825916209    -0.290346907036    -0.042650696071    14.003074004430
         N            1.362492416209    -1.485943207036    -0.265714196071    14.003074004430
         N           -1.077836583791     1.027990792964    -0.452380196071    14.003074004430
         N           -1.264683583791    -1.202760207036     0.430471803929    14.003074004430
         C            1.763661416209     0.735540792964     0.134964803929    12.000000000000
         C            2.982560416209     0.093646792964     0.009348803929    12.000000000000
         C           -0.586404583791    -0.139084207036    -0.017105196071    12.000000000000
         C            1.457887416209     2.165136792964     0.439403803929    12.000000000000
         C            2.683336416209    -1.258849207036    -0.238573196071    12.000000000000
         C           -2.417139583791     1.133249792964    -0.430487196071    12.000000000000
         C           -2.599970583791    -1.077091207036     0.404978803929    12.000000000000
         C           -3.237516583791     0.087352792964    -0.019880196071    12.000000000000
         H            3.956807416209     0.555353792964     0.100667803929     1.007825032230
         H            1.017137416209     2.679136792964    -0.416720196071     1.007825032230
         H            0.758392416209     2.260757792964     1.274757803929     1.007825032230
         H            2.390376416209     2.664959792964     0.714767803929     1.007825032230
         H            3.360099416209    -2.086773207036    -0.408498196071     1.007825032230
         H           -2.826535583791     2.081950792964    -0.771957196071     1.007825032230
         H           -3.164490583791    -1.939685207036     0.753882803929     1.007825032230
         H           -4.318730583791     0.176284792964    -0.023438196071     1.007825032230

  Basis Set: AUG-CC-PVTZ
    Blend: AUG-CC-PVTZ
  Basis Set: (AUG-CC-PVTZ AUX)
    Blend: AUG-CC-PVTZ-JKFIT
	 Reference Energy          =    -525.5404114283403487 [Eh]
	 Singles Energy            =      -0.0000000000000000 [Eh]
	 Same-Spin Energy          =      -0.5781204847326014 [Eh]
	 Opposite-Spin Energy      =      -1.7386309501305162 [Eh]
	 Correlation Energy        =      -2.3167514348631175 [Eh]
	 Total Energy              =    -527.8571628632034844 [Eh]

	 ================> DF-SCS-MP2 Energies <==================
	-----------------------------------------------------------
	 SCS Same-Spin Scale       =       0.3333333333333333 [-]
	 SCS Opposite-Spin Scale   =       1.2000000000000000 [-]
	 SCS Same-Spin Energy      =      -0.1927068282442004 [Eh]
	 SCS Opposite-Spin Energy  =      -2.0863571401566192 [Eh]
	 SCS Correlation Energy    =      -2.2790639684008198 [Eh]
	 SCS Total Energy          =    -527.8194753967411543 [Eh]
	-----------------------------------------------------------

  Dipole Moment: [D]
     X:    -2.8520      Y:     2.6031      Z:     0.4445     Total:     3.8868

*** Psi4 exiting successfully. Buy a developer a beer!
