                               Psi4 1.3.2 release

  ==> Input File <==

--------------------------------------------------------------------------
#psi4
#
memory 32 gb

molecule  {
0 1
  N        0.8160970    -0.2990240    -0.0443680
  N        1.3585440    -1.5263750    -0.2734470
  N       -1.0817850     0.9875590    -0.4601130
  N       -1.2686320    -1.2431920     0.4227390
  C        1.7597130     0.6951090     0.1272320
  C        2.9786120     0.0532150     0.0016160
  C       -0.5903530    -0.1795160    -0.0248380
  C        1.4539390     2.1247050     0.4316710
  C        2.6793880    -1.2992810    -0.2463060
  C       -2.4210880     1.0928180    -0.4382200
  C       -2.6039190    -1.1175230     0.3972460
  C       -3.2801596     0.0747486    -0.0369124
  H        3.9528590     0.5149220     0.0929350
  H        1.0131890     2.6387050    -0.4244530
  H        0.7544440     2.2203260     1.2670250
  H        2.3864280     2.6245280     0.7070350
  H        3.3561510    -2.1272050    -0.4162310
  H       -2.8304840     2.0415190    -0.7796900
  H       -3.1684390    -1.9801170     0.7461500
  H       -4.3226790     0.1358530    -0.0311710
units angstrom
no_reorient  #important for SAPT in psi4, default
symmetry c1  #important for SAPT in psi4, default
}

set PROPERTIES_ORIGIN ["COM"]
properties('MP2/aug-cc-pvtz', properties = ['dipole'])
--------------------------------------------------------------------------

    Molecular point group: c1
  Charge       = 0
  Multiplicity = 1
  Basis Set: AUG-CC-PVTZ
    Blend: AUG-CC-PVTZ
  Basis Set: (AUG-CC-PVTZ AUX)
    Blend: AUG-CC-PVTZ-JKFIT

    Orbital Energies [Eh]
    ---------------------

    Doubly Occupied:

       1A    -15.642774     2A    -15.581960     3A    -15.581574
       4A    -15.580255     5A    -11.368786     6A    -11.315862
       7A    -11.310002     8A    -11.287218     9A    -11.255107
      10A    -11.253685    11A    -11.234772    12A    -11.217770
      13A     -1.386768    14A     -1.311280    15A     -1.205648
      16A     -1.128265    17A     -1.083769    18A     -1.044015
      19A     -0.959014    20A     -0.906282    21A     -0.897747
      22A     -0.799939    23A     -0.795428    24A     -0.711158
      25A     -0.707673    26A     -0.687518    27A     -0.641524
      28A     -0.636829    29A     -0.602029    30A     -0.590014
      31A     -0.584173    32A     -0.574169    33A     -0.564374
      34A     -0.552201    35A     -0.536464    36A     -0.495188
      37A     -0.455465    38A     -0.430586    39A     -0.418919
      40A     -0.405542    41A     -0.337614    42A     -0.332820

  @DF-RHF Final Energy:  -525.54039486966940

   => Energetics <=

    Nuclear Repulsion Energy =            657.3912643981104793
    One-Electron Energy =               -2017.0389643990906734
    Two-Electron Energy =                 834.1073051313107953
    Total Energy =                       -525.5403948696693988
  Basis Set: (AUG-CC-PVTZ AUX)
    Blend: AUG-CC-PVTZ-RI
    Molecular point group: c1

    Geometry (in Angstrom), charge = 0, multiplicity = 1:

       Center              X                  Y                   Z               Mass
    ------------   -----------------  -----------------  -----------------  -----------------
         N            0.826076169387    -0.263456146555    -0.036464292894    14.003074004430
         N            1.368523169387    -1.490807146555    -0.265543292894    14.003074004430
         N           -1.071805830613     1.023126853445    -0.452209292894    14.003074004430
         N           -1.258652830613    -1.207624146555     0.430642707106    14.003074004430
         C            1.769692169387     0.730676853445     0.135135707106    12.000000000000
         C            2.988591169387     0.088782853445     0.009519707106    12.000000000000
         C           -0.580373830613    -0.143948146555    -0.016934292894    12.000000000000
         C            1.463918169387     2.160272853445     0.439574707106    12.000000000000
         C            2.689367169387    -1.263713146555    -0.238402292894    12.000000000000
         C           -2.411108830613     1.128385853445    -0.430316292894    12.000000000000
         C           -2.593939830613    -1.081955146555     0.405149707106    12.000000000000
         C           -3.270180430613     0.110316453445    -0.029008692894    12.000000000000
         H            3.962838169387     0.550489853445     0.100838707106     1.007825032230
         H            1.023168169387     2.674272853445    -0.416549292894     1.007825032230
         H            0.764423169387     2.255893853445     1.274928707106     1.007825032230
         H            2.396407169387     2.660095853445     0.714938707106     1.007825032230
         H            3.366130169387    -2.091637146555    -0.408327292894     1.007825032230
         H           -2.820504830613     2.077086853445    -0.771786292894     1.007825032230
         H           -3.158459830613    -1.944549146555     0.754053707106     1.007825032230
         H           -4.312699830613     0.171420853445    -0.023267292894     1.007825032230

  Basis Set: AUG-CC-PVTZ
    Blend: AUG-CC-PVTZ
  Basis Set: (AUG-CC-PVTZ AUX)
    Blend: AUG-CC-PVTZ-JKFIT
	 Reference Energy          =    -525.5403948696693988 [Eh]
	 Singles Energy            =      -0.0000000000000000 [Eh]
	 Same-Spin Energy          =      -0.5773372925554909 [Eh]
	 Opposite-Spin Energy      =      -1.7387182772739198 [Eh]
	 Correlation Energy        =      -2.3160555698294107 [Eh]
	 Total Energy              =    -527.8564504394987580 [Eh]

	 ================> DF-SCS-MP2 Energies <==================
	-----------------------------------------------------------
	 SCS Same-Spin Scale       =       0.3333333333333333 [-]
	 SCS Opposite-Spin Scale   =       1.2000000000000000 [-]
	 SCS Same-Spin Energy      =      -0.1924457641851636 [Eh]
	 SCS Opposite-Spin Energy  =      -2.0864619327287035 [Eh]
	 SCS Correlation Energy    =      -2.2789076969138673 [Eh]
	 SCS Total Energy          =    -527.8193025665832465 [Eh]
	-----------------------------------------------------------

  Dipole Moment: [D]
     X:    -2.5581      Y:     2.5089      Z:     0.4578     Total:     3.6122

*** Psi4 exiting successfully. Buy a developer a beer!
