                               Psi4 1.3.2 release

  ==> Input File <==

--------------------------------------------------------------------------
#psi4
#
memory 32 gb

molecule  {
0 1
  N        0.8160970    -0.2990240    -0.0443680
  N        1.3585440    -1.5263750    -0.2734470
  N       -1.0817850     0.9875590    -0.4601130
  N       -1.2686320    -1.2431920     0.4227390
  C        1.7597130     0.6951090     0.1272320
  C        2.9786120     0.0532150     0.0016160
  C       -0.5903530    -0.1795160    -0.0248380
  C        1.4539390     2.1247050     0.4316710
  C        2.6793880    -1.2992810    -0.2463060
  C       -2.4210880     1.0928180    -0.4382200
  C       -2.6039190    -1.1175230     0.3972460
  C       -3.3263254     0.0034837    -0.0081831
  H        3.9528590     0.5149220     0.0929350
  H        1.0131890     2.6387050    -0.4244530
  H        0.7544440     2.2203260     1.2670250
  H        2.3864280     2.6245280     0.7070350
  H        3.3561510    -2.1272050    -0.4162310
  H       -2.8304840     2.0415190    -0.7796900
  H       -3.1684390    -1.9801170     0.7461500
  H       -4.3226790     0.1358530    -0.0311710
units angstrom
no_reorient  #important for SAPT in psi4, default
symmetry c1  #important for SAPT in psi4, default
}

set PROPERTIES_ORIGIN ["COM"]
properties('MP2/aug-cc-pvtz', properties = ['dipole'])
--------------------------------------------------------------------------

    Molecular point group: c1
  Charge       = 0
  Multiplicity = 1
  Basis Set: AUG-CC-PVTZ
    Blend: AUG-CC-PVTZ
  Basis Set: (AUG-CC-PVTZ AUX)
    Blend: AUG-CC-PVTZ-JKFIT

    Orbital Energies [Eh]
    ---------------------

    Doubly Occupied:

       1A    -15.643428     2A    -15.585980     3A    -15.582340
       4A    -15.577198     5A    -11.369758     6A    -11.324129
       7A    -11.306811     8A    -11.287832     9A    -11.255547
      10A    -11.254928    11A    -11.235706    12A    -11.218340
      13A     -1.387167    14A     -1.310427    15A     -1.205567
      16A     -1.126932    17A     -1.084248    18A     -1.042611
      19A     -0.959872    20A     -0.906767    21A     -0.896629
      22A     -0.800923    23A     -0.794785    24A     -0.715389
      25A     -0.702858    26A     -0.693314    27A     -0.646929
      28A     -0.637687    29A     -0.601334    30A     -0.589622
      31A     -0.578223    32A     -0.573329    33A     -0.565289
      34A     -0.552111    35A     -0.537174    36A     -0.497807
      37A     -0.455348    38A     -0.431605    39A     -0.417501
      40A     -0.402812    41A     -0.336839    42A     -0.333257

  @DF-RHF Final Energy:  -525.53046929754476

   => Energetics <=

    Nuclear Repulsion Energy =            656.5080403013397472
    One-Electron Energy =               -2015.2243177314569493
    Two-Electron Energy =                 833.1858081325725607
    Total Energy =                       -525.5304692975447551
  Basis Set: (AUG-CC-PVTZ AUX)
    Blend: AUG-CC-PVTZ-RI
    Molecular point group: c1

    Geometry (in Angstrom), charge = 0, multiplicity = 1:

       Center              X                  Y                   Z               Mass
    ------------   -----------------  -----------------  -----------------  -----------------
         N            0.829536984373    -0.258113779826    -0.038617982249    14.003074004430
         N            1.371983984373    -1.485464779826    -0.267696982249    14.003074004430
         N           -1.068345015627     1.028469220174    -0.454362982249    14.003074004430
         N           -1.255192015627    -1.202281779826     0.428489017751    14.003074004430
         C            1.773152984373     0.736019220174     0.132982017751    12.000000000000
         C            2.992051984373     0.094125220174     0.007366017751    12.000000000000
         C           -0.576913015627    -0.138605779826    -0.019087982249    12.000000000000
         C            1.467378984373     2.165615220174     0.437421017751    12.000000000000
         C            2.692827984373    -1.258370779826    -0.240555982249    12.000000000000
         C           -2.407648015627     1.133728220174    -0.432469982249    12.000000000000
         C           -2.590479015627    -1.076612779826     0.402996017751    12.000000000000
         C           -3.312885415627     0.044393920174    -0.002433082249    12.000000000000
         H            3.966298984373     0.555832220174     0.098685017751     1.007825032230
         H            1.026628984373     2.679615220174    -0.418702982249     1.007825032230
         H            0.767883984373     2.261236220174     1.272775017751     1.007825032230
         H            2.399867984373     2.665438220174     0.712785017751     1.007825032230
         H            3.369590984373    -2.086294779826    -0.410480982249     1.007825032230
         H           -2.817044015627     2.082429220174    -0.773939982249     1.007825032230
         H           -3.154999015627    -1.939206779826     0.751900017751     1.007825032230
         H           -4.309239015627     0.176763220174    -0.025420982249     1.007825032230

  Basis Set: AUG-CC-PVTZ
    Blend: AUG-CC-PVTZ
  Basis Set: (AUG-CC-PVTZ AUX)
    Blend: AUG-CC-PVTZ-JKFIT
	 Reference Energy          =    -525.5304692975447551 [Eh]
	 Singles Energy            =      -0.0000000000000000 [Eh]
	 Same-Spin Energy          =      -0.5773440378534962 [Eh]
	 Opposite-Spin Energy      =      -1.7393148694664040 [Eh]
	 Correlation Energy        =      -2.3166589073199004 [Eh]
	 Total Energy              =    -527.8471282048647026 [Eh]

	 ================> DF-SCS-MP2 Energies <==================
	-----------------------------------------------------------
	 SCS Same-Spin Scale       =       0.3333333333333333 [-]
	 SCS Opposite-Spin Scale   =       1.2000000000000000 [-]
	 SCS Same-Spin Energy      =      -0.1924480126178321 [Eh]
	 SCS Opposite-Spin Energy  =      -2.0871778433596848 [Eh]
	 SCS Correlation Energy    =      -2.2796258559775167 [Eh]
	 SCS Total Energy          =    -527.8100951535222976 [Eh]
	-----------------------------------------------------------

  Dipole Moment: [D]
     X:    -2.5100      Y:     2.6429      Z:     0.4047     Total:     3.6673

*** Psi4 exiting successfully. Buy a developer a beer!
