                               Psi4 1.3.2 release

  ==> Input File <==

--------------------------------------------------------------------------
#psi4
#
memory 32 gb

molecule  {
0 1
  N        0.8160970    -0.2990240    -0.0443680
  N        1.3585440    -1.5263750    -0.2734470
  N       -1.0817850     0.9875590    -0.4601130
  N       -1.2686320    -1.2431920     0.4227390
  C        1.7597130     0.6951090     0.1272320
  C        2.9786120     0.0532150     0.0016160
  C       -0.5903530    -0.1795160    -0.0248380
  C        1.4539390     2.1247050     0.4316710
  C        2.6793880    -1.2992810    -0.2463060
  C       -2.4210880     1.0928180    -0.4382200
  C       -2.6039190    -1.1175230     0.3972460
  C       -3.2414650     0.0469210    -0.0276130
  H        3.9528590     0.5149220     0.0929350
  H        1.0131890     2.6387050    -0.4244530
  H        0.7544440     2.2203260     1.2670250
  H        2.3864280     2.6245280     0.7070350
  H        3.3561510    -2.1272050    -0.4162310
  H       -2.8304840     2.0415190    -0.7796900
  H       -3.1684390    -1.9801170     0.7461500
  H       -4.3226790     0.1358530    -0.0311710
units angstrom
no_reorient  #important for SAPT in psi4, default
symmetry c1  #important for SAPT in psi4, default
}

set PROPERTIES_ORIGIN ["COM"]
properties('MP2/aug-cc-pvtz', properties = ['dipole'])
--------------------------------------------------------------------------

    Molecular point group: c1
  Charge       = 0
  Multiplicity = 1
  Basis Set: AUG-CC-PVTZ
    Blend: AUG-CC-PVTZ
  Basis Set: (AUG-CC-PVTZ AUX)
    Blend: AUG-CC-PVTZ-JKFIT

    Orbital Energies [Eh]
    ---------------------

    Doubly Occupied:

       1A    -15.642114     2A    -15.582420     3A    -15.581457
       4A    -15.578653     5A    -11.367390     6A    -11.311525
       7A    -11.309481     8A    -11.286737     9A    -11.254530
      10A    -11.252688    11A    -11.234699    12A    -11.217308
      13A     -1.386323    14A     -1.312546    15A     -1.206030
      16A     -1.129396    17A     -1.084206    18A     -1.045008
      19A     -0.958790    20A     -0.909064    21A     -0.896548
      22A     -0.800122    23A     -0.795227    24A     -0.713144
      25A     -0.707382    26A     -0.682516    27A     -0.638223
      28A     -0.633408    29A     -0.607152    30A     -0.589579
      31A     -0.586641    32A     -0.575139    33A     -0.563974
      34A     -0.552681    35A     -0.535904    36A     -0.491658
      37A     -0.455081    38A     -0.430507    39A     -0.420216
      40A     -0.407712    41A     -0.338044    42A     -0.332370

  @DF-RHF Final Energy:  -525.54362663311565

   => Energetics <=

    Nuclear Repulsion Energy =            658.2750559946827025
    One-Electron Energy =               -2018.8301718677830650
    Two-Electron Energy =                 835.0114892399848259
    Total Energy =                       -525.5436266331156503
  Basis Set: (AUG-CC-PVTZ AUX)
    Blend: AUG-CC-PVTZ-RI
    Molecular point group: c1

    Geometry (in Angstrom), charge = 0, multiplicity = 1:

       Center              X                  Y                   Z               Mass
    ------------   -----------------  -----------------  -----------------  -----------------
         N            0.823175432227    -0.261370053059    -0.037161421567    14.003074004430
         N            1.365622432227    -1.488721053059    -0.266240421567    14.003074004430
         N           -1.074706567773     1.025212946941    -0.452906421567    14.003074004430
         N           -1.261553567773    -1.205538053059     0.429945578433    14.003074004430
         C            1.766791432227     0.732762946941     0.134438578433    12.000000000000
         C            2.985690432227     0.090868946941     0.008822578433    12.000000000000
         C           -0.583274567773    -0.141862053059    -0.017631421567    12.000000000000
         C            1.461017432227     2.162358946941     0.438877578433    12.000000000000
         C            2.686466432227    -1.261627053059    -0.239099421567    12.000000000000
         C           -2.414009567773     1.130471946941    -0.431013421567    12.000000000000
         C           -2.596840567773    -1.079869053059     0.404452578433    12.000000000000
         C           -3.234386567773     0.084574946941    -0.020406421567    12.000000000000
         H            3.959937432227     0.552575946941     0.100141578433     1.007825032230
         H            1.020267432227     2.676358946941    -0.417246421567     1.007825032230
         H            0.761522432227     2.257979946941     1.274231578433     1.007825032230
         H            2.393506432227     2.662181946941     0.714241578433     1.007825032230
         H            3.363229432227    -2.089551053059    -0.409024421567     1.007825032230
         H           -2.823405567773     2.079172946941    -0.772483421567     1.007825032230
         H           -3.161360567773    -1.942463053059     0.753356578433     1.007825032230
         H           -4.315600567773     0.173506946941    -0.023964421567     1.007825032230

  Basis Set: AUG-CC-PVTZ
    Blend: AUG-CC-PVTZ
  Basis Set: (AUG-CC-PVTZ AUX)
    Blend: AUG-CC-PVTZ-JKFIT
	 Reference Energy          =    -525.5436266331156503 [Eh]
	 Singles Energy            =      -0.0000000000000000 [Eh]
	 Same-Spin Energy          =      -0.5775594878723119 [Eh]
	 Opposite-Spin Energy      =      -1.7386301980250032 [Eh]
	 Correlation Energy        =      -2.3161896858973150 [Eh]
	 Total Energy              =    -527.8598163190130208 [Eh]

	 ================> DF-SCS-MP2 Energies <==================
	-----------------------------------------------------------
	 SCS Same-Spin Scale       =       0.3333333333333333 [-]
	 SCS Opposite-Spin Scale   =       1.2000000000000000 [-]
	 SCS Same-Spin Energy      =      -0.1925198292907706 [Eh]
	 SCS Opposite-Spin Energy  =      -2.0863562376300036 [Eh]
	 SCS Correlation Energy    =      -2.2788760669207742 [Eh]
	 SCS Total Energy          =    -527.8225027000364662 [Eh]
	-----------------------------------------------------------

  Dipole Moment: [D]
     X:    -2.5794      Y:     2.5550      Z:     0.4399     Total:     3.6572

*** Psi4 exiting successfully. Buy a developer a beer!
