                               Psi4 1.4a3.dev225

  ==> Input File <==

--------------------------------------------------------------------------
#psi4
#
memory 32 gb

molecule  {
0 1
  N        0.8160970    -0.2990240    -0.0443680
  N        1.3585440    -1.5263750    -0.2734470
  N       -1.0817850     0.9875590    -0.4601130
  N       -1.2686320    -1.2431920     0.4227390
  C        1.7597130     0.6951090     0.1272320
  C        2.9786120     0.0532150     0.0016160
  C       -0.5903530    -0.1795160    -0.0248380
  C        1.4539390     2.1247050     0.4316710
  C        2.6301211    -1.3077515    -0.2473183
  C       -2.4210880     1.0928180    -0.4382200
  C       -2.6039190    -1.1175230     0.3972460
  C       -3.2414650     0.0469210    -0.0276130
  H        3.9528590     0.5149220     0.0929350
  H        1.0131890     2.6387050    -0.4244530
  H        0.7544440     2.2203260     1.2670250
  H        2.3864280     2.6245280     0.7070350
  H        3.3561510    -2.1272050    -0.4162310
  H       -2.8304840     2.0415190    -0.7796900
  H       -3.1684390    -1.9801170     0.7461500
  H       -4.3226790     0.1358530    -0.0311710
units angstrom
no_reorient  #important for SAPT in psi4, default
symmetry c1  #important for SAPT in psi4, default
}

set PROPERTIES_ORIGIN ["COM"]
properties('MP2/aug-cc-pvtz', properties = ['dipole'])
--------------------------------------------------------------------------

    Molecular point group: c1
  Charge       = 0
  Multiplicity = 1
  Basis Set: AUG-CC-PVTZ
    Blend: AUG-CC-PVTZ
  Basis Set: (AUG-CC-PVTZ AUX)
    Blend: AUG-CC-PVTZ-JKFIT

    Orbital Energies [Eh]
    ---------------------

    Doubly Occupied:

       1A    -15.638860     2A    -15.581403     3A    -15.579152
       4A    -15.577780     5A    -11.366598     6A    -11.310993
       7A    -11.309007     8A    -11.287322     9A    -11.253672
      10A    -11.251819    11A    -11.234654    12A    -11.217055
      13A     -1.391220    14A     -1.314503    15A     -1.205353
      16A     -1.137288    17A     -1.086017    18A     -1.043687
      19A     -0.959940    20A     -0.908781    21A     -0.894131
      22A     -0.797689    23A     -0.794988    24A     -0.713202
      25A     -0.707932    26A     -0.682683    27A     -0.639687
      28A     -0.632535    29A     -0.607314    30A     -0.588440
      31A     -0.586927    32A     -0.575395    33A     -0.564363
      34A     -0.555211    35A     -0.532814    36A     -0.490992
      37A     -0.454550    38A     -0.430101    39A     -0.419717
      40A     -0.409358    41A     -0.343360    42A     -0.332401

  @DF-RHF Final Energy:  -525.54495554523282

   => Energetics <=

    Nuclear Repulsion Energy =            659.1729629781524409
    One-Electron Energy =               -2020.6180451722966609
    Two-Electron Energy =                 835.9001266489112822
    Total Energy =                       -525.5449555452328241
  Basis Set: (AUG-CC-PVTZ AUX)
    Blend: AUG-CC-PVTZ-RI
    Molecular point group: c1

    Geometry (in Angstrom), charge = 0, multiplicity = 1:

       Center              X                  Y                   Z               Mass
    ------------   -----------------  -----------------  -----------------  -----------------
         N            0.826868720892    -0.260735062799    -0.037085534590    14.003074004430
         N            1.369315720892    -1.488086062799    -0.266164534590    14.003074004430
         N           -1.071013279108     1.025847937201    -0.452830534590    14.003074004430
         N           -1.257860279108    -1.204903062799     0.430021465410    14.003074004430
         C            1.770484720892     0.733397937201     0.134514465410    12.000000000000
         C            2.989383720892     0.091503937201     0.008898465410    12.000000000000
         C           -0.579581279108    -0.141227062799    -0.017555534590    12.000000000000
         C            1.464710720892     2.162993937201     0.438953465410    12.000000000000
         C            2.640892820892    -1.269462562799    -0.240035834590    12.000000000000
         C           -2.410316279108     1.131106937201    -0.430937534590    12.000000000000
         C           -2.593147279108    -1.079234062799     0.404528465410    12.000000000000
         C           -3.230693279108     0.085209937201    -0.020330534590    12.000000000000
         H            3.963630720892     0.553210937201     0.100217465410     1.007825032230
         H            1.023960720892     2.676993937201    -0.417170534590     1.007825032230
         H            0.765215720892     2.258614937201     1.274307465410     1.007825032230
         H            2.397199720892     2.662816937201     0.714317465410     1.007825032230
         H            3.366922720892    -2.088916062799    -0.408948534590     1.007825032230
         H           -2.819712279108     2.079807937201    -0.772407534590     1.007825032230
         H           -3.157667279108    -1.941828062799     0.753432465410     1.007825032230
         H           -4.311907279108     0.174141937201    -0.023888534590     1.007825032230

  Basis Set: AUG-CC-PVTZ
    Blend: AUG-CC-PVTZ
  Basis Set: (AUG-CC-PVTZ AUX)
    Blend: AUG-CC-PVTZ-JKFIT
	 Reference Energy          =    -525.5449555452328241 [Eh]
	 Singles Energy            =      -0.0000000000000000 [Eh]
	 Same-Spin Energy          =      -0.5760163056312609 [Eh]
	 Opposite-Spin Energy      =      -1.7360080178726864 [Eh]
	 Correlation Energy        =      -2.3120243235039473 [Eh]
	 Total Energy              =    -527.8569798687367438 [Eh]

	 ================> DF-SCS-MP2 Energies <==================
	-----------------------------------------------------------
	 SCS Same-Spin Scale       =       0.3333333333333333 [-]
	 SCS Opposite-Spin Scale   =       1.2000000000000000 [-]
	 SCS Same-Spin Energy      =      -0.1920054352104203 [Eh]
	 SCS Opposite-Spin Energy  =      -2.0832096214472235 [Eh]
	 SCS Correlation Energy    =      -2.2752150566576437 [Eh]
	 SCS Total Energy          =    -527.8201706018904815 [Eh]
	-----------------------------------------------------------

  Dipole Moment: [D]
     X:    -2.4922      Y:     2.5238      Z:     0.4325     Total:     3.5732

*** Psi4 exiting successfully. Buy a developer a beer!
