                               Psi4 1.3.2 release

  ==> Input File <==

--------------------------------------------------------------------------
#psi4
#
memory 32 gb

molecule  {
0 1
  N        0.8160970    -0.2990240    -0.0443680
  N        1.3585440    -1.5263750    -0.2734470
  N       -1.0817850     0.9875590    -0.4601130
  N       -1.2686320    -1.2431920     0.4227390
  C        1.7597130     0.6951090     0.1272320
  C        2.9786120     0.0532150     0.0016160
  C       -0.5903530    -0.1795160    -0.0248380
  C        1.4129860     2.3161739     0.4724452
  C        2.6793880    -1.2992810    -0.2463060
  C       -2.4210880     1.0928180    -0.4382200
  C       -2.6039190    -1.1175230     0.3972460
  C       -3.2414650     0.0469210    -0.0276130
  H        3.9528590     0.5149220     0.0929350
  H        1.0131890     2.6387050    -0.4244530
  H        0.7544440     2.2203260     1.2670250
  H        2.3864280     2.6245280     0.7070350
  H        3.3561510    -2.1272050    -0.4162310
  H       -2.8304840     2.0415190    -0.7796900
  H       -3.1684390    -1.9801170     0.7461500
  H       -4.3226790     0.1358530    -0.0311710
units angstrom
no_reorient  #important for SAPT in psi4, default
symmetry c1  #important for SAPT in psi4, default
}

set PROPERTIES_ORIGIN ["COM"]
properties('MP2/aug-cc-pvtz', properties = ['dipole'])
--------------------------------------------------------------------------

    Molecular point group: c1
  Charge       = 0
  Multiplicity = 1
  Basis Set: AUG-CC-PVTZ
    Blend: AUG-CC-PVTZ
  Basis Set: (AUG-CC-PVTZ AUX)
    Blend: AUG-CC-PVTZ-JKFIT

    Orbital Energies [Eh]
    ---------------------

    Doubly Occupied:

       1A    -15.640960     2A    -15.582435     3A    -15.579557
       4A    -15.578210     5A    -11.366942     6A    -11.311512
       7A    -11.309334     8A    -11.289289     9A    -11.253218
      10A    -11.252399    11A    -11.239458    12A    -11.215650
      13A     -1.384082    14A     -1.311833    15A     -1.205687
      16A     -1.127116    17A     -1.069131    18A     -1.042679
      19A     -0.962997    20A     -0.908631    21A     -0.896380
      22A     -0.798120    23A     -0.792390    24A     -0.711969
      25A     -0.703354    26A     -0.674074    27A     -0.637583
      28A     -0.631543    29A     -0.612128    30A     -0.601511
      31A     -0.594077    32A     -0.586161    33A     -0.565536
      34A     -0.561470    35A     -0.495907    36A     -0.492576
      37A     -0.452207    38A     -0.430682    39A     -0.420092
      40A     -0.406827    41A     -0.337123    42A     -0.333497

  @DF-RHF Final Energy:  -525.51658057375857

   => Energetics <=

    Nuclear Repulsion Energy =            654.8671425979489413
    One-Electron Energy =               -2012.0347940985104742
    Two-Electron Energy =                 831.6510709268029586
    Total Energy =                       -525.5165805737585742
  Basis Set: (AUG-CC-PVTZ AUX)
    Blend: AUG-CC-PVTZ-RI
    Molecular point group: c1

    Geometry (in Angstrom), charge = 0, multiplicity = 1:

       Center              X                  Y                   Z               Mass
    ------------   -----------------  -----------------  -----------------  -----------------
         N            0.826245470137    -0.275723501685    -0.040218055752    14.003074004430
         N            1.368692470137    -1.503074501685    -0.269297055752    14.003074004430
         N           -1.071636529863     1.010859498315    -0.455963055752    14.003074004430
         N           -1.258483529863    -1.219891501685     0.426888944248    14.003074004430
         C            1.769861470137     0.718409498315     0.131381944248    12.000000000000
         C            2.988760470137     0.076515498315     0.005765944248    12.000000000000
         C           -0.580204529863    -0.156215501685    -0.020688055752    12.000000000000
         C            1.423134470137     2.339474398315     0.476595144248    12.000000000000
         C            2.689536470137    -1.275980501685    -0.242156055752    12.000000000000
         C           -2.410939529863     1.116118498315    -0.434070055752    12.000000000000
         C           -2.593770529863    -1.094222501685     0.401395944248    12.000000000000
         C           -3.231316529863     0.070221498315    -0.023463055752    12.000000000000
         H            3.963007470137     0.538222498315     0.097084944248     1.007825032230
         H            1.023337470137     2.662005498315    -0.420303055752     1.007825032230
         H            0.764592470137     2.243626498315     1.271174944248     1.007825032230
         H            2.396576470137     2.647828498315     0.711184944248     1.007825032230
         H            3.366299470137    -2.103904501685    -0.412081055752     1.007825032230
         H           -2.820335529863     2.064819498315    -0.775540055752     1.007825032230
         H           -3.158290529863    -1.956816501685     0.750299944248     1.007825032230
         H           -4.312530529863     0.159153498315    -0.027021055752     1.007825032230

  Basis Set: AUG-CC-PVTZ
    Blend: AUG-CC-PVTZ
  Basis Set: (AUG-CC-PVTZ AUX)
    Blend: AUG-CC-PVTZ-JKFIT
	 Reference Energy          =    -525.5165805737585742 [Eh]
	 Singles Energy            =      -0.0000000000000000 [Eh]
	 Same-Spin Energy          =      -0.5769952678257163 [Eh]
	 Opposite-Spin Energy      =      -1.7392240678364721 [Eh]
	 Correlation Energy        =      -2.3162193356621885 [Eh]
	 Total Energy              =    -527.8327999094207144 [Eh]

	 ================> DF-SCS-MP2 Energies <==================
	-----------------------------------------------------------
	 SCS Same-Spin Scale       =       0.3333333333333333 [-]
	 SCS Opposite-Spin Scale   =       1.2000000000000000 [-]
	 SCS Same-Spin Energy      =      -0.1923317559419054 [Eh]
	 SCS Opposite-Spin Energy  =      -2.0870688814037663 [Eh]
	 SCS Correlation Energy    =      -2.2794006373456717 [Eh]
	 SCS Total Energy          =    -527.7959812111042766 [Eh]
	-----------------------------------------------------------

  Dipole Moment: [D]
     X:    -2.5732      Y:     2.5592      Z:     0.4495     Total:     3.6569

*** Psi4 exiting successfully. Buy a developer a beer!
