                               Psi4 1.3.2 release

  ==> Input File <==

--------------------------------------------------------------------------
#psi4
#
memory 32 gb

molecule  {
0 1
  N        0.8160970    -0.2990240    -0.0443680
  N        1.3585440    -1.5263750    -0.2734470
  N       -1.0817850     0.9875590    -0.4601130
  N       -1.2686320    -1.2431920     0.4227390
  C        1.7597130     0.6951090     0.1272320
  C        2.9786120     0.0532150     0.0016160
  C       -0.5903530    -0.1795160    -0.0248380
  C        1.4539390     2.1247050     0.4316710
  C        2.6793880    -1.2992810    -0.2463060
  C       -2.4210880     1.0928180    -0.4382200
  C       -2.6039190    -1.1175230     0.3972460
  C       -3.3543630     0.1340895    -0.0569662
  H        3.9528590     0.5149220     0.0929350
  H        1.0131890     2.6387050    -0.4244530
  H        0.7544440     2.2203260     1.2670250
  H        2.3864280     2.6245280     0.7070350
  H        3.3561510    -2.1272050    -0.4162310
  H       -2.8304840     2.0415190    -0.7796900
  H       -3.1684390    -1.9801170     0.7461500
  H       -4.3226790     0.1358530    -0.0311710
units angstrom
no_reorient  #important for SAPT in psi4, default
symmetry c1  #important for SAPT in psi4, default
}

set PROPERTIES_ORIGIN ["COM"]
properties('MP2/aug-cc-pvtz', properties = ['dipole'])
--------------------------------------------------------------------------

    Molecular point group: c1
  Charge       = 0
  Multiplicity = 1
  Basis Set: AUG-CC-PVTZ
    Blend: AUG-CC-PVTZ
  Basis Set: (AUG-CC-PVTZ AUX)
    Blend: AUG-CC-PVTZ-JKFIT

    Orbital Energies [Eh]
    ---------------------

    Doubly Occupied:

       1A    -15.644256     2A    -15.583410     3A    -15.583085
       4A    -15.580281     5A    -11.371763     6A    -11.326963
       7A    -11.308041     8A    -11.288310     9A    -11.256384
      10A    -11.256064    11A    -11.235039    12A    -11.218817
      13A     -1.387902    14A     -1.309609    15A     -1.205572
      16A     -1.126721    17A     -1.083339    18A     -1.042504
      19A     -0.959607    20A     -0.907503    21A     -0.895388
      22A     -0.800526    23A     -0.796263    24A     -0.718376
      25A     -0.706202    26A     -0.694527    27A     -0.649738
      28A     -0.637175    29A     -0.596966    30A     -0.590251
      31A     -0.575896    32A     -0.571545    33A     -0.564485
      34A     -0.551409    35A     -0.537435    36A     -0.499114
      37A     -0.456279    38A     -0.432030    39A     -0.415129
      40A     -0.401540    41A     -0.336861    42A     -0.333827

  @DF-RHF Final Energy:  -525.51554052485756

   => Energetics <=

    Nuclear Repulsion Energy =            655.7553599395508854
    One-Electron Energy =               -2013.6695361488384606
    Two-Electron Energy =                 832.3986356844301326
    Total Energy =                       -525.5155405248575562
  Basis Set: (AUG-CC-PVTZ AUX)
    Blend: AUG-CC-PVTZ-RI
    Molecular point group: c1

    Geometry (in Angstrom), charge = 0, multiplicity = 1:

       Center              X                  Y                   Z               Mass
    ------------   -----------------  -----------------  -----------------  -----------------
         N            0.831638820500    -0.267904631712    -0.034960961606    14.003074004430
         N            1.374085820500    -1.495255631712    -0.264039961606    14.003074004430
         N           -1.066243179500     1.018678368288    -0.450705961606    14.003074004430
         N           -1.253090179500    -1.212072631712     0.432146038394    14.003074004430
         C            1.775254820500     0.726228368288     0.136639038394    12.000000000000
         C            2.994153820500     0.084334368288     0.011023038394    12.000000000000
         C           -0.574811179500    -0.148396631712    -0.015430961606    12.000000000000
         C            1.469480820500     2.155824368288     0.441078038394    12.000000000000
         C            2.694929820500    -1.268161631712    -0.236898961606    12.000000000000
         C           -2.405546179500     1.123937368288    -0.428812961606    12.000000000000
         C           -2.588377179500    -1.086403631712     0.406653038394    12.000000000000
         C           -3.338821179500     0.165208868288    -0.047559161606    12.000000000000
         H            3.968400820500     0.546041368288     0.102342038394     1.007825032230
         H            1.028730820500     2.669824368288    -0.415045961606     1.007825032230
         H            0.769985820500     2.251445368288     1.276432038394     1.007825032230
         H            2.401969820500     2.655647368288     0.716442038394     1.007825032230
         H            3.371692820500    -2.096085631712    -0.406823961606     1.007825032230
         H           -2.814942179500     2.072638368288    -0.770282961606     1.007825032230
         H           -3.152897179500    -1.948997631712     0.755557038394     1.007825032230
         H           -4.307137179500     0.166972368288    -0.021763961606     1.007825032230

  Basis Set: AUG-CC-PVTZ
    Blend: AUG-CC-PVTZ
  Basis Set: (AUG-CC-PVTZ AUX)
    Blend: AUG-CC-PVTZ-JKFIT
	 Reference Energy          =    -525.5155405248575562 [Eh]
	 Singles Energy            =      -0.0000000000000000 [Eh]
	 Same-Spin Energy          =      -0.5771073731975740 [Eh]
	 Opposite-Spin Energy      =      -1.7398571492567509 [Eh]
	 Correlation Energy        =      -2.3169645224543247 [Eh]
	 Total Energy              =    -527.8325050473118836 [Eh]

	 ================> DF-SCS-MP2 Energies <==================
	-----------------------------------------------------------
	 SCS Same-Spin Scale       =       0.3333333333333333 [-]
	 SCS Opposite-Spin Scale   =       1.2000000000000000 [-]
	 SCS Same-Spin Energy      =      -0.1923691243991913 [Eh]
	 SCS Opposite-Spin Energy  =      -2.0878285791081010 [Eh]
	 SCS Correlation Energy    =      -2.2801977035072922 [Eh]
	 SCS Total Energy          =    -527.7957382283648258 [Eh]
	-----------------------------------------------------------

  Dipole Moment: [D]
     X:    -2.4756      Y:     2.4077      Z:     0.4963     Total:     3.4889

*** Psi4 exiting successfully. Buy a developer a beer!
