                               Psi4 1.4a3.dev225

  ==> Input File <==

--------------------------------------------------------------------------
#psi4
#
memory 32 gb

molecule  {
0 1
  N        0.8160970    -0.2990240    -0.0443680
  N        1.3585440    -1.5263750    -0.2734470
  N       -1.0817850     0.9875590    -0.4601130
  N       -1.2686320    -1.2431920     0.4227390
  C        1.7597130     0.6951090     0.1272320
  C        2.9786120     0.0532150     0.0016160
  C       -0.5903530    -0.1795160    -0.0248380
  C        1.4539390     2.1247050     0.4316710
  C        2.6793880    -1.2992810    -0.2463060
  C       -2.4210880     1.0928180    -0.4382200
  C       -2.6039190    -1.1175230     0.3972460
  C       -3.2414650     0.0469210    -0.0276130
  H        3.9528590     0.5149220     0.0929350
  H        1.0131890     2.6387050    -0.4244530
  H        0.7544440     2.2203260     1.2670250
  H        2.3864280     2.6245280     0.7070350
  H        3.3561510    -2.1272050    -0.4162310
  H       -2.8304840     2.0415190    -0.7796900
  H       -3.1684390    -1.9801170     0.7461500
  H       -4.3725105     0.1399517    -0.0313350
units angstrom
no_reorient  #important for SAPT in psi4, default
symmetry c1  #important for SAPT in psi4, default
}

set PROPERTIES_ORIGIN ["COM"]
properties('MP2/aug-cc-pvtz', properties = ['dipole'])
--------------------------------------------------------------------------

    Molecular point group: c1
  Charge       = 0
  Multiplicity = 1
  Basis Set: AUG-CC-PVTZ
    Blend: AUG-CC-PVTZ
  Basis Set: (AUG-CC-PVTZ AUX)
    Blend: AUG-CC-PVTZ-JKFIT

    Orbital Energies [Eh]
    ---------------------

    Doubly Occupied:

       1A    -15.642237     2A    -15.582764     3A    -15.581558
       4A    -15.579006     5A    -11.367597     6A    -11.311929
       7A    -11.309894     8A    -11.286840     9A    -11.258200
      10A    -11.254629    11A    -11.234790    12A    -11.217401
      13A     -1.386473    14A     -1.312812    15A     -1.206339
      16A     -1.129270    17A     -1.084094    18A     -1.043716
      19A     -0.958872    20A     -0.909314    21A     -0.895133
      22A     -0.800160    23A     -0.795306    24A     -0.712906
      25A     -0.706389    26A     -0.677945    27A     -0.638247
      28A     -0.627673    29A     -0.607371    30A     -0.589439
      31A     -0.586739    32A     -0.575329    33A     -0.563914
      34A     -0.552801    35A     -0.535857    36A     -0.490453
      37A     -0.455197    38A     -0.430790    39A     -0.420461
      40A     -0.407892    41A     -0.338184    42A     -0.332470

  @DF-RHF Final Energy:  -525.54113021363946

   => Energetics <=

    Nuclear Repulsion Energy =            658.0163775018974093
    One-Electron Energy =               -2018.3182215960130179
    Two-Electron Energy =                 834.7607138804760325
    Total Energy =                       -525.5411302136394625
  Basis Set: (AUG-CC-PVTZ AUX)
    Blend: AUG-CC-PVTZ-RI
    Molecular point group: c1

    Geometry (in Angstrom), charge = 0, multiplicity = 1:

       Center              X                  Y                   Z               Mass
    ------------   -----------------  -----------------  -----------------  -----------------
         N            0.823489169323    -0.261395858308    -0.037160389030    14.003074004430
         N            1.365936169323    -1.488746858308    -0.266239389030    14.003074004430
         N           -1.074392830677     1.025187141692    -0.452905389030    14.003074004430
         N           -1.261239830677    -1.205563858308     0.429946610970    14.003074004430
         C            1.767105169323     0.732737141692     0.134439610970    12.000000000000
         C            2.986004169323     0.090843141692     0.008823610970    12.000000000000
         C           -0.582960830677    -0.141887858308    -0.017630389030    12.000000000000
         C            1.461331169323     2.162333141692     0.438878610970    12.000000000000
         C            2.686780169323    -1.261652858308    -0.239098389030    12.000000000000
         C           -2.413695830677     1.130446141692    -0.431012389030    12.000000000000
         C           -2.596526830677    -1.079894858308     0.404453610970    12.000000000000
         C           -3.234072830677     0.084549141692    -0.020405389030    12.000000000000
         H            3.960251169323     0.552550141692     0.100142610970     1.007825032230
         H            1.020581169323     2.676333141692    -0.417245389030     1.007825032230
         H            0.761836169323     2.257954141692     1.274232610970     1.007825032230
         H            2.393820169323     2.662156141692     0.714242610970     1.007825032230
         H            3.363543169323    -2.089576858308    -0.409023389030     1.007825032230
         H           -2.823091830677     2.079147141692    -0.772482389030     1.007825032230
         H           -3.161046830677    -1.942488858308     0.753357610970     1.007825032230
         H           -4.365118330677     0.177579841692    -0.024127389030     1.007825032230

  Basis Set: AUG-CC-PVTZ
    Blend: AUG-CC-PVTZ
  Basis Set: (AUG-CC-PVTZ AUX)
    Blend: AUG-CC-PVTZ-JKFIT
	 Reference Energy          =    -525.5411302136394625 [Eh]
	 Singles Energy            =      -0.0000000000000000 [Eh]
	 Same-Spin Energy          =      -0.5776634833447718 [Eh]
	 Opposite-Spin Energy      =      -1.7390121989699838 [Eh]
	 Correlation Energy        =      -2.3166756823147558 [Eh]
	 Total Energy              =    -527.8578058959542432 [Eh]

	 ================> DF-SCS-MP2 Energies <==================
	-----------------------------------------------------------
	 SCS Same-Spin Scale       =       0.3333333333333333 [-]
	 SCS Opposite-Spin Scale   =       1.2000000000000000 [-]
	 SCS Same-Spin Energy      =      -0.1925544944482573 [Eh]
	 SCS Opposite-Spin Energy  =      -2.0868146387639803 [Eh]
	 SCS Correlation Energy    =      -2.2793691332122377 [Eh]
	 SCS Total Energy          =    -527.8204993468516477 [Eh]
	-----------------------------------------------------------

  Dipole Moment: [D]
     X:    -2.5686      Y:     2.5542      Z:     0.4401     Total:     3.6490

*** Psi4 exiting successfully. Buy a developer a beer!
