                               Psi4 1.3.2 release

  ==> Input File <==

--------------------------------------------------------------------------
#psi4
#
memory 32 gb

molecule  {
0 1
  N        0.8160970    -0.2990240    -0.0443680
  N        1.3585440    -1.5263750    -0.2734470
  N       -1.0803894     1.0095801    -0.4680523
  N       -1.2686320    -1.2431920     0.4227390
  C        1.7597130     0.6951090     0.1272320
  C        2.9786120     0.0532150     0.0016160
  C       -0.5903530    -0.1795160    -0.0248380
  C        1.4539390     2.1247050     0.4316710
  C        2.6793880    -1.2992810    -0.2463060
  C       -2.4210880     1.0928180    -0.4382200
  C       -2.6039190    -1.1175230     0.3972460
  C       -3.2414650     0.0469210    -0.0276130
  H        3.9528590     0.5149220     0.0929350
  H        1.0131890     2.6387050    -0.4244530
  H        0.7544440     2.2203260     1.2670250
  H        2.3864280     2.6245280     0.7070350
  H        3.3561510    -2.1272050    -0.4162310
  H       -2.8304840     2.0415190    -0.7796900
  H       -3.1684390    -1.9801170     0.7461500
  H       -4.3226790     0.1358530    -0.0311710
units angstrom
no_reorient  #important for SAPT in psi4, default
symmetry c1  #important for SAPT in psi4, default
}

set PROPERTIES_ORIGIN ["COM"]
properties('MP2/aug-cc-pvtz', properties = ['dipole'])
--------------------------------------------------------------------------

    Molecular point group: c1
  Charge       = 0
  Multiplicity = 1
  Basis Set: AUG-CC-PVTZ
    Blend: AUG-CC-PVTZ
  Basis Set: (AUG-CC-PVTZ AUX)
    Blend: AUG-CC-PVTZ-JKFIT

    Orbital Energies [Eh]
    ---------------------

    Doubly Occupied:

       1A    -15.642984     2A    -15.585420     3A    -15.581881
       4A    -15.579509     5A    -11.370283     6A    -11.310947
       7A    -11.309938     8A    -11.287209     9A    -11.255090
      10A    -11.252303    11A    -11.234713    12A    -11.217756
      13A     -1.386061    14A     -1.309881    15A     -1.205631
      16A     -1.129346    17A     -1.084309    18A     -1.044420
      19A     -0.959013    20A     -0.907187    21A     -0.896557
      22A     -0.799661    23A     -0.795268    24A     -0.710952
      25A     -0.707621    26A     -0.682425    27A     -0.637786
      28A     -0.633365    29A     -0.606791    30A     -0.588741
      31A     -0.585574    32A     -0.574171    33A     -0.564376
      34A     -0.552578    35A     -0.536328    36A     -0.493095
      37A     -0.455597    38A     -0.431140    39A     -0.421421
      40A     -0.407329    41A     -0.337633    42A     -0.332773

  @DF-RHF Final Energy:  -525.54188646584043

   => Energetics <=

    Nuclear Repulsion Energy =            657.7229846005161562
    One-Electron Energy =               -2017.7196180811145041
    Two-Electron Energy =                 834.4547470147579133
    Total Energy =                       -525.5418864658404345
  Basis Set: (AUG-CC-PVTZ AUX)
    Blend: AUG-CC-PVTZ-RI
    Molecular point group: c1

    Geometry (in Angstrom), charge = 0, multiplicity = 1:

       Center              X                  Y                   Z               Mass
    ------------   -----------------  -----------------  -----------------  -----------------
         N            0.823053347562    -0.263296420654    -0.036466905387    14.003074004430
         N            1.365500347562    -1.490647420654    -0.265545905387    14.003074004430
         N           -1.073433052438     1.045307679346    -0.460151205387    14.003074004430
         N           -1.261675652438    -1.207464420654     0.430640094613    14.003074004430
         C            1.766669347562     0.730836579346     0.135133094613    12.000000000000
         C            2.985568347562     0.088942579346     0.009517094613    12.000000000000
         C           -0.583396652438    -0.143788420654    -0.016936905387    12.000000000000
         C            1.460895347562     2.160432579346     0.439572094613    12.000000000000
         C            2.686344347562    -1.263553420654    -0.238404905387    12.000000000000
         C           -2.414131652438     1.128545579346    -0.430318905387    12.000000000000
         C           -2.596962652438    -1.081795420654     0.405147094613    12.000000000000
         C           -3.234508652438     0.082648579346    -0.019711905387    12.000000000000
         H            3.959815347562     0.550649579346     0.100836094613     1.007825032230
         H            1.020145347562     2.674432579346    -0.416551905387     1.007825032230
         H            0.761400347562     2.256053579346     1.274926094613     1.007825032230
         H            2.393384347562     2.660255579346     0.714936094613     1.007825032230
         H            3.363107347562    -2.091477420654    -0.408329905387     1.007825032230
         H           -2.823527652438     2.077246579346    -0.771788905387     1.007825032230
         H           -3.161482652438    -1.944389420654     0.754051094613     1.007825032230
         H           -4.315722652438     0.171580579346    -0.023269905387     1.007825032230

  Basis Set: AUG-CC-PVTZ
    Blend: AUG-CC-PVTZ
  Basis Set: (AUG-CC-PVTZ AUX)
    Blend: AUG-CC-PVTZ-JKFIT
	 Reference Energy          =    -525.5418864658404345 [Eh]
	 Singles Energy            =      -0.0000000000000000 [Eh]
	 Same-Spin Energy          =      -0.5777312249169708 [Eh]
	 Opposite-Spin Energy      =      -1.7392997036190940 [Eh]
	 Correlation Energy        =      -2.3170309285360648 [Eh]
	 Total Energy              =    -527.8589173943764763 [Eh]

	 ================> DF-SCS-MP2 Energies <==================
	-----------------------------------------------------------
	 SCS Same-Spin Scale       =       0.3333333333333333 [-]
	 SCS Opposite-Spin Scale   =       1.2000000000000000 [-]
	 SCS Same-Spin Energy      =      -0.1925770749723236 [Eh]
	 SCS Opposite-Spin Energy  =      -2.0871596443429126 [Eh]
	 SCS Correlation Energy    =      -2.2797367193152360 [Eh]
	 SCS Total Energy          =    -527.8216231851556586 [Eh]
	-----------------------------------------------------------

  Dipole Moment: [D]
     X:    -2.5448      Y:     2.5140      Z:     0.4536     Total:     3.6058

*** Psi4 exiting successfully. Buy a developer a beer!
