                               Psi4 1.3.2 release

  ==> Input File <==

--------------------------------------------------------------------------
#psi4
#
memory 32 gb

molecule  {
0 1
  N        0.8160970    -0.2990240    -0.0443680
  N        1.2788481    -1.3460535    -0.2397909
  N       -1.0817850     0.9875590    -0.4601130
  N       -1.2686320    -1.2431920     0.4227390
  C        1.7597130     0.6951090     0.1272320
  C        2.9786120     0.0532150     0.0016160
  C       -0.5903530    -0.1795160    -0.0248380
  C        1.4539390     2.1247050     0.4316710
  C        2.6793880    -1.2992810    -0.2463060
  C       -2.4210880     1.0928180    -0.4382200
  C       -2.6039190    -1.1175230     0.3972460
  C       -3.2414650     0.0469210    -0.0276130
  H        3.9528590     0.5149220     0.0929350
  H        1.0131890     2.6387050    -0.4244530
  H        0.7544440     2.2203260     1.2670250
  H        2.3864280     2.6245280     0.7070350
  H        3.3561510    -2.1272050    -0.4162310
  H       -2.8304840     2.0415190    -0.7796900
  H       -3.1684390    -1.9801170     0.7461500
  H       -4.3226790     0.1358530    -0.0311710
units angstrom
no_reorient  #important for SAPT in psi4, default
symmetry c1  #important for SAPT in psi4, default
}

set PROPERTIES_ORIGIN ["COM"]
properties('MP2/aug-cc-pvtz', properties = ['dipole'])
--------------------------------------------------------------------------

    Molecular point group: c1
  Charge       = 0
  Multiplicity = 1
  Basis Set: AUG-CC-PVTZ
    Blend: AUG-CC-PVTZ
  Basis Set: (AUG-CC-PVTZ AUX)
    Blend: AUG-CC-PVTZ-JKFIT

    Orbital Energies [Eh]
    ---------------------

    Doubly Occupied:

       1A    -15.659112     2A    -15.590003     3A    -15.587183
       4A    -15.570985     5A    -11.371612     6A    -11.316305
       7A    -11.314960     8A    -11.259772     9A    -11.258058
      10A    -11.242745    11A    -11.224062    12A    -11.218510
      13A     -1.477594    14A     -1.327791    15A     -1.212682
      16A     -1.124807    17A     -1.090025    18A     -1.049523
      19A     -0.949485    20A     -0.914622    21A     -0.906255
      22A     -0.820830    23A     -0.807773    24A     -0.720527
      25A     -0.709157    26A     -0.682474    27A     -0.668572
      28A     -0.639165    29A     -0.612349    30A     -0.605745
      31A     -0.589846    32A     -0.579472    33A     -0.561486
      34A     -0.556990    35A     -0.525282    36A     -0.498158
      37A     -0.441351    38A     -0.434619    39A     -0.417917
      40A     -0.403994    41A     -0.353056    42A     -0.300122

  @DF-RHF Final Energy:  -525.49972036299812

   => Energetics <=

    Nuclear Repulsion Energy =            664.1531590991941130
    One-Electron Energy =               -2030.1158044665676243
    Two-Electron Energy =                 840.4629250043755064
    Total Energy =                       -525.4997203629981186
  Basis Set: (AUG-CC-PVTZ AUX)
    Blend: AUG-CC-PVTZ-RI
    Molecular point group: c1

    Geometry (in Angstrom), charge = 0, multiplicity = 1:

       Center              X                  Y                   Z               Mass
    ------------   -----------------  -----------------  -----------------  -----------------
         N            0.830147091191    -0.277144264805    -0.040105598762    14.003074004430
         N            1.292898191191    -1.324173764805    -0.235528498762    14.003074004430
         N           -1.067734908809     1.009438735195    -0.455850598762    14.003074004430
         N           -1.254581908809    -1.221312264805     0.427001401238    14.003074004430
         C            1.773763091191     0.716988735195     0.131494401238    12.000000000000
         C            2.992662091191     0.075094735195     0.005878401238    12.000000000000
         C           -0.576302908809    -0.157636264805    -0.020575598762    12.000000000000
         C            1.467989091191     2.146584735195     0.435933401238    12.000000000000
         C            2.693438091191    -1.277401264805    -0.242043598762    12.000000000000
         C           -2.407037908809     1.114697735195    -0.433957598762    12.000000000000
         C           -2.589868908809    -1.095643264805     0.401508401238    12.000000000000
         C           -3.227414908809     0.068800735195    -0.023350598762    12.000000000000
         H            3.966909091191     0.536801735195     0.097197401238     1.007825032230
         H            1.027239091191     2.660584735195    -0.420190598762     1.007825032230
         H            0.768494091191     2.242205735195     1.271287401238     1.007825032230
         H            2.400478091191     2.646407735195     0.711297401238     1.007825032230
         H            3.370201091191    -2.105325264805    -0.411968598762     1.007825032230
         H           -2.816433908809     2.063398735195    -0.775427598762     1.007825032230
         H           -3.154388908809    -1.958237264805     0.750412401238     1.007825032230
         H           -4.308628908809     0.157732735195    -0.026908598762     1.007825032230

  Basis Set: AUG-CC-PVTZ
    Blend: AUG-CC-PVTZ
  Basis Set: (AUG-CC-PVTZ AUX)
    Blend: AUG-CC-PVTZ-JKFIT
	 Reference Energy          =    -525.4997203629981186 [Eh]
	 Singles Energy            =      -0.0000000000000000 [Eh]
	 Same-Spin Energy          =      -0.5797790708607022 [Eh]
	 Opposite-Spin Energy      =      -1.7377911923064537 [Eh]
	 Correlation Energy        =      -2.3175702631671560 [Eh]
	 Total Energy              =    -527.8172906261652315 [Eh]

	 ================> DF-SCS-MP2 Energies <==================
	-----------------------------------------------------------
	 SCS Same-Spin Scale       =       0.3333333333333333 [-]
	 SCS Opposite-Spin Scale   =       1.2000000000000000 [-]
	 SCS Same-Spin Energy      =      -0.1932596902869007 [Eh]
	 SCS Opposite-Spin Energy  =      -2.0853494307677445 [Eh]
	 SCS Correlation Energy    =      -2.2786091210546453 [Eh]
	 SCS Total Energy          =    -527.7783294840527333 [Eh]
	-----------------------------------------------------------

  Dipole Moment: [D]
     X:    -3.0293      Y:     2.2678      Z:     0.3796     Total:     3.8032

*** Psi4 exiting successfully. Buy a developer a beer!
