                               Psi4 1.3.2 release

  ==> Input File <==

--------------------------------------------------------------------------
#psi4
#
memory 32 gb

molecule  {
0 1
  N        0.7986352    -0.2826900    -0.0412814
  N        1.3585440    -1.5263750    -0.2734470
  N       -1.0817850     0.9875590    -0.4601130
  N       -1.2686320    -1.2431920     0.4227390
  C        1.7597130     0.6951090     0.1272320
  C        2.9786120     0.0532150     0.0016160
  C       -0.5903530    -0.1795160    -0.0248380
  C        1.4539390     2.1247050     0.4316710
  C        2.6793880    -1.2992810    -0.2463060
  C       -2.4210880     1.0928180    -0.4382200
  C       -2.6039190    -1.1175230     0.3972460
  C       -3.2414650     0.0469210    -0.0276130
  H        3.9528590     0.5149220     0.0929350
  H        1.0131890     2.6387050    -0.4244530
  H        0.7544440     2.2203260     1.2670250
  H        2.3864280     2.6245280     0.7070350
  H        3.3561510    -2.1272050    -0.4162310
  H       -2.8304840     2.0415190    -0.7796900
  H       -3.1684390    -1.9801170     0.7461500
  H       -4.3226790     0.1358530    -0.0311710
units angstrom
no_reorient  #important for SAPT in psi4, default
symmetry c1  #important for SAPT in psi4, default
}

set PROPERTIES_ORIGIN ["COM"]
properties('MP2/aug-cc-pvtz', properties = ['dipole'])
--------------------------------------------------------------------------

    Molecular point group: c1
  Charge       = 0
  Multiplicity = 1
  Basis Set: AUG-CC-PVTZ
    Blend: AUG-CC-PVTZ
  Basis Set: (AUG-CC-PVTZ AUX)
    Blend: AUG-CC-PVTZ-JKFIT

    Orbital Energies [Eh]
    ---------------------

    Doubly Occupied:

       1A    -15.640607     2A    -15.582550     3A    -15.580490
       4A    -15.577208     5A    -11.365601     6A    -11.310349
       7A    -11.308557     8A    -11.289504     9A    -11.257584
      10A    -11.251282    11A    -11.234588    12A    -11.218526
      13A     -1.382616    14A     -1.309416    15A     -1.204998
      16A     -1.132800    17A     -1.083478    18A     -1.044697
      19A     -0.958552    20A     -0.908450    21A     -0.897558
      22A     -0.800925    23A     -0.794511    24A     -0.713002
      25A     -0.706207    26A     -0.682022    27A     -0.637834
      28A     -0.633523    29A     -0.606978    30A     -0.592359
      31A     -0.585996    32A     -0.574515    33A     -0.562594
      34A     -0.550438    35A     -0.536841    36A     -0.491539
      37A     -0.453648    38A     -0.429589    39A     -0.418948
      40A     -0.409538    41A     -0.338856    42A     -0.332038

  @DF-RHF Final Energy:  -525.54281381119017

   => Energetics <=

    Nuclear Repulsion Energy =            658.2941492841470108
    One-Electron Energy =               -2018.8912976111921580
    Two-Electron Energy =                 835.0543345158548618
    Total Energy =                       -525.5428138111901717
  Basis Set: (AUG-CC-PVTZ AUX)
    Blend: AUG-CC-PVTZ-RI
    Molecular point group: c1

    Geometry (in Angstrom), charge = 0, multiplicity = 1:

       Center              X                  Y                   Z               Mass
    ------------   -----------------  -----------------  -----------------  -----------------
         N            0.807241160174    -0.246464923020    -0.034344831976    14.003074004430
         N            1.367149960174    -1.490149923020    -0.266510431976    14.003074004430
         N           -1.073179039826     1.023784076980    -0.453176431976    14.003074004430
         N           -1.260026039826    -1.206966923020     0.429675568024    14.003074004430
         C            1.768318960174     0.731334076980     0.134168568024    12.000000000000
         C            2.987217960174     0.089440076980     0.008552568024    12.000000000000
         C           -0.581747039826    -0.143290923020    -0.017901431976    12.000000000000
         C            1.462544960174     2.160930076980     0.438607568024    12.000000000000
         C            2.687993960174    -1.263055923020    -0.239369431976    12.000000000000
         C           -2.412482039826     1.129043076980    -0.431283431976    12.000000000000
         C           -2.595313039826    -1.081297923020     0.404182568024    12.000000000000
         C           -3.232859039826     0.083146076980    -0.020676431976    12.000000000000
         H            3.961464960174     0.551147076980     0.099871568024     1.007825032230
         H            1.021794960174     2.674930076980    -0.417516431976     1.007825032230
         H            0.763049960174     2.256551076980     1.273961568024     1.007825032230
         H            2.395033960174     2.660753076980     0.713971568024     1.007825032230
         H            3.364756960174    -2.090979923020    -0.409294431976     1.007825032230
         H           -2.821878039826     2.077744076980    -0.772753431976     1.007825032230
         H           -3.159833039826    -1.943891923020     0.753086568024     1.007825032230
         H           -4.314073039826     0.172078076980    -0.024234431976     1.007825032230

  Basis Set: AUG-CC-PVTZ
    Blend: AUG-CC-PVTZ
  Basis Set: (AUG-CC-PVTZ AUX)
    Blend: AUG-CC-PVTZ-JKFIT
	 Reference Energy          =    -525.5428138111901717 [Eh]
	 Singles Energy            =      -0.0000000000000000 [Eh]
	 Same-Spin Energy          =      -0.5773641470743718 [Eh]
	 Opposite-Spin Energy      =      -1.7388081464106167 [Eh]
	 Correlation Energy        =      -2.3161722934849882 [Eh]
	 Total Energy              =    -527.8589861046751821 [Eh]

	 ================> DF-SCS-MP2 Energies <==================
	-----------------------------------------------------------
	 SCS Same-Spin Scale       =       0.3333333333333333 [-]
	 SCS Opposite-Spin Scale   =       1.2000000000000000 [-]
	 SCS Same-Spin Energy      =      -0.1924547156914573 [Eh]
	 SCS Opposite-Spin Energy  =      -2.0865697756927397 [Eh]
	 SCS Correlation Energy    =      -2.2790244913841970 [Eh]
	 SCS Total Energy          =    -527.8218383025744060 [Eh]
	-----------------------------------------------------------

  Dipole Moment: [D]
     X:    -2.4354      Y:     2.5274      Z:     0.4369     Total:     3.5370

*** Psi4 exiting successfully. Buy a developer a beer!
