                               Psi4 1.3.2 release

  ==> Input File <==

--------------------------------------------------------------------------
#psi4
#
memory 32 gb

molecule  {
0 1
  N        0.8160970    -0.2990240    -0.0443680
  N        1.3585440    -1.5263750    -0.2734470
  N       -1.0857607     0.9439363    -0.4433583
  N       -1.2686320    -1.2431920     0.4227390
  C        1.7597130     0.6951090     0.1272320
  C        2.9786120     0.0532150     0.0016160
  C       -0.5903530    -0.1795160    -0.0248380
  C        1.4539390     2.1247050     0.4316710
  C        2.6793880    -1.2992810    -0.2463060
  C       -2.4210880     1.0928180    -0.4382200
  C       -2.6039190    -1.1175230     0.3972460
  C       -3.2414650     0.0469210    -0.0276130
  H        3.9528590     0.5149220     0.0929350
  H        1.0131890     2.6387050    -0.4244530
  H        0.7544440     2.2203260     1.2670250
  H        2.3864280     2.6245280     0.7070350
  H        3.3561510    -2.1272050    -0.4162310
  H       -2.8304840     2.0415190    -0.7796900
  H       -3.1684390    -1.9801170     0.7461500
  H       -4.3226790     0.1358530    -0.0311710
units angstrom
no_reorient  #important for SAPT in psi4, default
symmetry c1  #important for SAPT in psi4, default
}

set PROPERTIES_ORIGIN ["COM"]
properties('MP2/aug-cc-pvtz', properties = ['dipole'])
--------------------------------------------------------------------------

    Molecular point group: c1
  Charge       = 0
  Multiplicity = 1
  Basis Set: AUG-CC-PVTZ
    Blend: AUG-CC-PVTZ
  Basis Set: (AUG-CC-PVTZ AUX)
    Blend: AUG-CC-PVTZ-JKFIT

    Orbital Energies [Eh]
    ---------------------

    Doubly Occupied:

       1A    -15.640298     2A    -15.580590     3A    -15.576822
       4A    -15.576241     5A    -11.361251     6A    -11.312736
       7A    -11.308485     8A    -11.285784     9A    -11.253504
      10A    -11.253395    11A    -11.234717    12A    -11.216413
      13A     -1.387194    14A     -1.318277    15A     -1.206533
      16A     -1.129562    17A     -1.084063    18A     -1.046287
      19A     -0.958376    20A     -0.913818    21A     -0.895418
      22A     -0.801475    23A     -0.794717    24A     -0.717965
      25A     -0.706755    26A     -0.682472    27A     -0.639335
      28A     -0.633649    29A     -0.607751    30A     -0.592524
      31A     -0.587397    32A     -0.577044    33A     -0.563202
      34A     -0.552856    35A     -0.535102    36A     -0.488918
      37A     -0.453976    38A     -0.429655    39A     -0.417134
      40A     -0.408118    41A     -0.338832    42A     -0.331552

  @DF-RHF Final Energy:  -525.54416310733211

   => Energetics <=

    Nuclear Repulsion Energy =            659.3909654631158901
    One-Electron Energy =               -2021.0698677464686170
    Two-Electron Energy =                 836.1347391760206165
    Total Energy =                       -525.5441631073321105
  Basis Set: (AUG-CC-PVTZ AUX)
    Blend: AUG-CC-PVTZ-RI
    Molecular point group: c1

    Geometry (in Angstrom), charge = 0, multiplicity = 1:

       Center              X                  Y                   Z               Mass
    ------------   -----------------  -----------------  -----------------  -----------------
         N            0.823523219560    -0.257554015001    -0.038627093634    14.003074004430
         N            1.365970219560    -1.484905015001    -0.267706093634    14.003074004430
         N           -1.078334480440     0.985406284999    -0.437617393634    14.003074004430
         N           -1.261205780440    -1.201722015001     0.428479906366    14.003074004430
         C            1.767139219560     0.736578984999     0.132972906366    12.000000000000
         C            2.986038219560     0.094684984999     0.007356906366    12.000000000000
         C           -0.582926780440    -0.138046015001    -0.019097093634    12.000000000000
         C            1.461365219560     2.166174984999     0.437411906366    12.000000000000
         C            2.686814219560    -1.257811015001    -0.240565093634    12.000000000000
         C           -2.413661780440     1.134287984999    -0.432479093634    12.000000000000
         C           -2.596492780440    -1.076053015001     0.402986906366    12.000000000000
         C           -3.234038780440     0.088390984999    -0.021872093634    12.000000000000
         H            3.960285219560     0.556391984999     0.098675906366     1.007825032230
         H            1.020615219560     2.680174984999    -0.418712093634     1.007825032230
         H            0.761870219560     2.261795984999     1.272765906366     1.007825032230
         H            2.393854219560     2.665997984999     0.712775906366     1.007825032230
         H            3.363577219560    -2.085735015001    -0.410490093634     1.007825032230
         H           -2.823057780440     2.082988984999    -0.773949093634     1.007825032230
         H           -3.161012780440    -1.938647015001     0.751890906366     1.007825032230
         H           -4.315252780440     0.177322984999    -0.025430093634     1.007825032230

  Basis Set: AUG-CC-PVTZ
    Blend: AUG-CC-PVTZ
  Basis Set: (AUG-CC-PVTZ AUX)
    Blend: AUG-CC-PVTZ-JKFIT
	 Reference Energy          =    -525.5441631073321105 [Eh]
	 Singles Energy            =      -0.0000000000000000 [Eh]
	 Same-Spin Energy          =      -0.5772596118163839 [Eh]
	 Opposite-Spin Energy      =      -1.7374882160314447 [Eh]
	 Correlation Energy        =      -2.3147478278478286 [Eh]
	 Total Energy              =    -527.8589109351798925 [Eh]

	 ================> DF-SCS-MP2 Energies <==================
	-----------------------------------------------------------
	 SCS Same-Spin Scale       =       0.3333333333333333 [-]
	 SCS Opposite-Spin Scale   =       1.2000000000000000 [-]
	 SCS Same-Spin Energy      =      -0.1924198706054613 [Eh]
	 SCS Opposite-Spin Energy  =      -2.0849858592377335 [Eh]
	 SCS Correlation Energy    =      -2.2774057298431947 [Eh]
	 SCS Total Energy          =    -527.8215688371752776 [Eh]
	-----------------------------------------------------------

  Dipole Moment: [D]
     X:    -2.6450      Y:     2.6426      Z:     0.4093     Total:     3.7612

*** Psi4 exiting successfully. Buy a developer a beer!
