                               Psi4 1.3.2 release

  ==> Input File <==

--------------------------------------------------------------------------
#psi4
#
memory 32 gb

molecule  {
0 1
  N        0.8160970    -0.2990240    -0.0443680
  N        1.3585440    -1.5263750    -0.2734470
  N       -1.0817850     0.9875590    -0.4601130
  N       -1.2686320    -1.2431920     0.4227390
  C        1.7597130     0.6951090     0.1272320
  C        2.9786120     0.0532150     0.0016160
  C       -0.5903530    -0.1795160    -0.0248380
  C        1.4539390     2.1247050     0.4316710
  C        2.6793880    -1.2992810    -0.2463060
  C       -2.4210880     1.0928180    -0.4382200
  C       -2.6039190    -1.1175230     0.3972460
  C       -3.1534985     0.0846852    -0.0449730
  H        3.9528590     0.5149220     0.0929350
  H        1.0131890     2.6387050    -0.4244530
  H        0.7544440     2.2203260     1.2670250
  H        2.3864280     2.6245280     0.7070350
  H        3.3561510    -2.1272050    -0.4162310
  H       -2.8304840     2.0415190    -0.7796900
  H       -3.1684390    -1.9801170     0.7461500
  H       -4.3226790     0.1358530    -0.0311710
units angstrom
no_reorient  #important for SAPT in psi4, default
symmetry c1  #important for SAPT in psi4, default
}

set PROPERTIES_ORIGIN ["COM"]
properties('MP2/aug-cc-pvtz', properties = ['dipole'])
--------------------------------------------------------------------------

    Molecular point group: c1
  Charge       = 0
  Multiplicity = 1
  Basis Set: AUG-CC-PVTZ
    Blend: AUG-CC-PVTZ
  Basis Set: (AUG-CC-PVTZ AUX)
    Blend: AUG-CC-PVTZ-JKFIT

    Orbital Energies [Eh]
    ---------------------

    Doubly Occupied:

       1A    -15.641118     2A    -15.580812     3A    -15.580658
       4A    -15.579175     5A    -11.365432     6A    -11.313371
       7A    -11.297522     8A    -11.285890     9A    -11.253765
      10A    -11.250870    11A    -11.233886    12A    -11.216509
      13A     -1.385958    14A     -1.316153    15A     -1.207764
      16A     -1.133213    17A     -1.084398    18A     -1.047924
      19A     -0.957931    20A     -0.917292    21A     -0.892571
      22A     -0.800153    23A     -0.796276    24A     -0.717870
      25A     -0.708858    26A     -0.676871    27A     -0.639958
      28A     -0.622282    29A     -0.610632    30A     -0.589862
      31A     -0.588350    32A     -0.577460    33A     -0.562359
      34A     -0.553390    35A     -0.534441    36A     -0.480691
      37A     -0.454893    38A     -0.431803    39A     -0.421926
      40A     -0.412728    41A     -0.339293    42A     -0.331680

  @DF-RHF Final Energy:  -525.53051016137397

   => Energetics <=

    Nuclear Repulsion Energy =            660.2202584356563193
    One-Electron Energy =               -2022.7135652139545527
    Two-Electron Energy =                 836.9627966169241517
    Total Energy =                       -525.5305101613739680
  Basis Set: (AUG-CC-PVTZ AUX)
    Blend: AUG-CC-PVTZ-RI
    Molecular point group: c1

    Geometry (in Angstrom), charge = 0, multiplicity = 1:

       Center              X                  Y                   Z               Mass
    ------------   -----------------  -----------------  -----------------  -----------------
         N            0.816581031577    -0.264201042868    -0.035860030751    14.003074004430
         N            1.359028031577    -1.491552042868    -0.264939030751    14.003074004430
         N           -1.081300968423     1.022381957132    -0.451605030751    14.003074004430
         N           -1.268147968423    -1.208369042868     0.431246969249    14.003074004430
         C            1.760197031577     0.729931957132     0.135739969249    12.000000000000
         C            2.979096031577     0.088037957132     0.010123969249    12.000000000000
         C           -0.589868968423    -0.144693042868    -0.016330030751    12.000000000000
         C            1.454423031577     2.159527957132     0.440178969249    12.000000000000
         C            2.679872031577    -1.264458042868    -0.237798030751    12.000000000000
         C           -2.420603968423     1.127640957132    -0.429712030751    12.000000000000
         C           -2.603434968423    -1.082700042868     0.405753969249    12.000000000000
         C           -3.153014468423     0.119508157132    -0.036465030751    12.000000000000
         H            3.953343031577     0.549744957132     0.101442969249     1.007825032230
         H            1.013673031577     2.673527957132    -0.415945030751     1.007825032230
         H            0.754928031577     2.255148957132     1.275532969249     1.007825032230
         H            2.386912031577     2.659350957132     0.715542969249     1.007825032230
         H            3.356635031577    -2.092382042868    -0.407723030751     1.007825032230
         H           -2.829999968423     2.076341957132    -0.771182030751     1.007825032230
         H           -3.167954968423    -1.945294042868     0.754657969249     1.007825032230
         H           -4.322194968423     0.170675957132    -0.022663030751     1.007825032230

  Basis Set: AUG-CC-PVTZ
    Blend: AUG-CC-PVTZ
  Basis Set: (AUG-CC-PVTZ AUX)
    Blend: AUG-CC-PVTZ-JKFIT
	 Reference Energy          =    -525.5305101613739680 [Eh]
	 Singles Energy            =      -0.0000000000000000 [Eh]
	 Same-Spin Energy          =      -0.5780554755307539 [Eh]
	 Opposite-Spin Energy      =      -1.7392420186380346 [Eh]
	 Correlation Energy        =      -2.3172974941687885 [Eh]
	 Total Energy              =    -527.8478076555427378 [Eh]

	 ================> DF-SCS-MP2 Energies <==================
	-----------------------------------------------------------
	 SCS Same-Spin Scale       =       0.3333333333333333 [-]
	 SCS Opposite-Spin Scale   =       1.2000000000000000 [-]
	 SCS Same-Spin Energy      =      -0.1926851585102513 [Eh]
	 SCS Opposite-Spin Energy  =      -2.0870904223656415 [Eh]
	 SCS Correlation Energy    =      -2.2797755808758926 [Eh]
	 SCS Total Energy          =    -527.8102857422499028 [Eh]
	-----------------------------------------------------------

  Dipole Moment: [D]
     X:    -2.5857      Y:     2.4703      Z:     0.4727     Total:     3.6072

*** Psi4 exiting successfully. Buy a developer a beer!
