                               Psi4 1.3.2 release

  ==> Input File <==

--------------------------------------------------------------------------
#psi4
#
memory 32 gb

molecule  {
0 1
  N        0.8160970    -0.2990240    -0.0443680
  N        1.3585440    -1.5263750    -0.2734470
  N       -1.0817850     0.9875590    -0.4601130
  N       -1.2686320    -1.2431920     0.4227390
  C        1.7597130     0.6951090     0.1272320
  C        2.9786120     0.0532150     0.0016160
  C       -0.5903530    -0.1795160    -0.0248380
  C        1.4539390     2.1247050     0.4316710
  C        2.6793880    -1.2992810    -0.2463060
  C       -2.4210880     1.0928180    -0.4382200
  C       -2.6039190    -1.1175230     0.3972460
  C       -3.2414650     0.0469210    -0.0276130
  H        3.9528590     0.5149220     0.0929350
  H        1.0131890     2.6387050    -0.4244530
  H        0.7544440     2.2203260     1.2670250
  H        2.3864280     2.6245280     0.7070350
  H        3.3561510    -2.1272050    -0.4162310
  H       -2.8304840     2.0415190    -0.7796900
  H       -3.0646994    -1.8216015     0.6820333
  H       -4.3226790     0.1358530    -0.0311710
units angstrom
no_reorient  #important for SAPT in psi4, default
symmetry c1  #important for SAPT in psi4, default
}

set PROPERTIES_ORIGIN ["COM"]
properties('MP2/aug-cc-pvtz', properties = ['dipole'])
--------------------------------------------------------------------------

    Molecular point group: c1
  Charge       = 0
  Multiplicity = 1
  Basis Set: AUG-CC-PVTZ
    Blend: AUG-CC-PVTZ
  Basis Set: (AUG-CC-PVTZ AUX)
    Blend: AUG-CC-PVTZ-JKFIT

    Orbital Energies [Eh]
    ---------------------

    Doubly Occupied:

       1A    -15.641706     2A    -15.582405     3A    -15.581189
       4A    -15.577645     5A    -11.366292     6A    -11.310848
       7A    -11.286694     8A    -11.286432     9A    -11.254252
      10A    -11.251807    11A    -11.234526    12A    -11.217049
      13A     -1.385930    14A     -1.312408    15A     -1.207615
      16A     -1.130207    17A     -1.085185    18A     -1.046321
      19A     -0.958588    20A     -0.930620    21A     -0.897154
      22A     -0.811087    23A     -0.798356    24A     -0.717176
      25A     -0.711770    26A     -0.683378    27A     -0.647394
      28A     -0.636645    29A     -0.616596    30A     -0.594551
      31A     -0.587055    32A     -0.574763    33A     -0.563797
      34A     -0.552390    35A     -0.535670    36A     -0.491104
      37A     -0.454978    38A     -0.430180    39A     -0.421689
      40A     -0.407321    41A     -0.337624    42A     -0.332111

  @DF-RHF Final Energy:  -525.50910675557759

   => Energetics <=

    Nuclear Repulsion Energy =            659.5059737489714280
    One-Electron Energy =               -2021.1291456904241386
    Two-Electron Energy =                 836.1140651858751198
    Total Energy =                       -525.5091067555775908
  Basis Set: (AUG-CC-PVTZ AUX)
    Blend: AUG-CC-PVTZ-RI
    Molecular point group: c1

    Geometry (in Angstrom), charge = 0, multiplicity = 1:

       Center              X                  Y                   Z               Mass
    ------------   -----------------  -----------------  -----------------  -----------------
         N            0.822522291927    -0.262368060196    -0.036757745433    14.003074004430
         N            1.364969291927    -1.489719060196    -0.265836745433    14.003074004430
         N           -1.075359708073     1.024214939804    -0.452502745433    14.003074004430
         N           -1.262206708073    -1.206536060196     0.430349254567    14.003074004430
         C            1.766138291927     0.731764939804     0.134842254567    12.000000000000
         C            2.985037291927     0.089870939804     0.009226254567    12.000000000000
         C           -0.583927708073    -0.142860060196    -0.017227745433    12.000000000000
         C            1.460364291927     2.161360939804     0.439281254567    12.000000000000
         C            2.685813291927    -1.262625060196    -0.238695745433    12.000000000000
         C           -2.414662708073     1.129473939804    -0.430609745433    12.000000000000
         C           -2.597493708073    -1.080867060196     0.404856254567    12.000000000000
         C           -3.235039708073     0.083576939804    -0.020002745433    12.000000000000
         H            3.959284291927     0.551577939804     0.100545254567     1.007825032230
         H            1.019614291927     2.675360939804    -0.416842745433     1.007825032230
         H            0.760869291927     2.256981939804     1.274635254567     1.007825032230
         H            2.392853291927     2.661183939804     0.714645254567     1.007825032230
         H            3.362576291927    -2.090549060196    -0.408620745433     1.007825032230
         H           -2.824058708073     2.078174939804    -0.772079745433     1.007825032230
         H           -3.058274108073    -1.784945560196     0.689643554567     1.007825032230
         H           -4.316253708073     0.172508939804    -0.023560745433     1.007825032230

  Basis Set: AUG-CC-PVTZ
    Blend: AUG-CC-PVTZ
  Basis Set: (AUG-CC-PVTZ AUX)
    Blend: AUG-CC-PVTZ-JKFIT
	 Reference Energy          =    -525.5091067555775908 [Eh]
	 Singles Energy            =      -0.0000000000000000 [Eh]
	 Same-Spin Energy          =      -0.5773534609326101 [Eh]
	 Opposite-Spin Energy      =      -1.7380580303052793 [Eh]
	 Correlation Energy        =      -2.3154114912378896 [Eh]
	 Total Energy              =    -527.8245182468155008 [Eh]

	 ================> DF-SCS-MP2 Energies <==================
	-----------------------------------------------------------
	 SCS Same-Spin Scale       =       0.3333333333333333 [-]
	 SCS Opposite-Spin Scale   =       1.2000000000000000 [-]
	 SCS Same-Spin Energy      =      -0.1924511536442033 [Eh]
	 SCS Opposite-Spin Energy  =      -2.0856696363663350 [Eh]
	 SCS Correlation Energy    =      -2.2781207900105382 [Eh]
	 SCS Total Energy          =    -527.7872275455881663 [Eh]
	-----------------------------------------------------------

  Dipole Moment: [D]
     X:    -2.6208      Y:     2.5597      Z:     0.4387     Total:     3.6896

*** Psi4 exiting successfully. Buy a developer a beer!
