                               Psi4 1.3.2 release

  ==> Input File <==

--------------------------------------------------------------------------
#psi4
#
memory 32 gb

molecule  {
0 1
  N        0.8160970    -0.2990240    -0.0443680
  N        1.3585440    -1.5263750    -0.2734470
  N       -1.0817850     0.9875590    -0.4601130
  N       -1.2686320    -1.2431920     0.4227390
  C        1.7597130     0.6951090     0.1272320
  C        2.9786120     0.0532150     0.0016160
  C       -0.5903530    -0.1795160    -0.0248380
  C        1.4539390     2.1247050     0.4316710
  C        2.6793880    -1.2992810    -0.2463060
  C       -2.4210880     1.0928180    -0.4382200
  C       -2.7369217    -1.1722536     0.4217748
  C       -3.2414650     0.0469210    -0.0276130
  H        3.9528590     0.5149220     0.0929350
  H        1.0131890     2.6387050    -0.4244530
  H        0.7544440     2.2203260     1.2670250
  H        2.3864280     2.6245280     0.7070350
  H        3.3561510    -2.1272050    -0.4162310
  H       -2.8304840     2.0415190    -0.7796900
  H       -3.1684390    -1.9801170     0.7461500
  H       -4.3226790     0.1358530    -0.0311710
units angstrom
no_reorient  #important for SAPT in psi4, default
symmetry c1  #important for SAPT in psi4, default
}

set PROPERTIES_ORIGIN ["COM"]
properties('MP2/aug-cc-pvtz', properties = ['dipole'])
--------------------------------------------------------------------------

    Molecular point group: c1
  Charge       = 0
  Multiplicity = 1
  Basis Set: AUG-CC-PVTZ
    Blend: AUG-CC-PVTZ
  Basis Set: (AUG-CC-PVTZ AUX)
    Blend: AUG-CC-PVTZ-JKFIT

    Orbital Energies [Eh]
    ---------------------

    Doubly Occupied:

       1A    -15.639604     2A    -15.585038     3A    -15.581582
       4A    -15.579093     5A    -11.362302     6A    -11.316605
       7A    -11.315511     8A    -11.284645     9A    -11.260193
      10A    -11.251954    11A    -11.233670    12A    -11.215211
      13A     -1.382072    14A     -1.299671    15A     -1.181090
      16A     -1.127170    17A     -1.083155    18A     -1.044664
      19A     -0.957292    20A     -0.924730    21A     -0.887752
      22A     -0.805222    23A     -0.795082    24A     -0.714498
      25A     -0.699091    26A     -0.680822    27A     -0.649179
      28A     -0.630471    29A     -0.619369    30A     -0.591442
      31A     -0.585433    32A     -0.569668    33A     -0.562479
      34A     -0.548954    35A     -0.533906    36A     -0.477926
      37A     -0.452890    38A     -0.419178    39A     -0.411899
      40A     -0.409857    41A     -0.338241    42A     -0.330125

  @DF-RHF Final Energy:  -525.50988111557967

   => Energetics <=

    Nuclear Repulsion Energy =            655.2385994987459981
    One-Electron Energy =               -2012.8194938515459853
    Two-Electron Energy =                 832.0710132372203134
    Total Energy =                       -525.5098811155796739
  Basis Set: (AUG-CC-PVTZ AUX)
    Blend: AUG-CC-PVTZ-RI
    Molecular point group: c1

    Geometry (in Angstrom), charge = 0, multiplicity = 1:

       Center              X                  Y                   Z               Mass
    ------------   -----------------  -----------------  -----------------  -----------------
         N            0.833145967502    -0.257267178622    -0.039000220822    14.003074004430
         N            1.375592967502    -1.484618178622    -0.268079220822    14.003074004430
         N           -1.064736032498     1.029315821378    -0.454745220822    14.003074004430
         N           -1.251583032498    -1.201435178622     0.428106779178    14.003074004430
         C            1.776761967502     0.736865821378     0.132599779178    12.000000000000
         C            2.995660967502     0.094971821378     0.006983779178    12.000000000000
         C           -0.573304032498    -0.137759178622    -0.019470220822    12.000000000000
         C            1.470987967502     2.166461821378     0.437038779178    12.000000000000
         C            2.696436967502    -1.257524178622    -0.240938220822    12.000000000000
         C           -2.404039032498     1.134574821378    -0.432852220822    12.000000000000
         C           -2.719872732498    -1.130496778622     0.427142579178    12.000000000000
         C           -3.224416032498     0.088677821378    -0.022245220822    12.000000000000
         H            3.969907967502     0.556678821378     0.098302779178     1.007825032230
         H            1.030237967502     2.680461821378    -0.419085220822     1.007825032230
         H            0.771492967502     2.262082821378     1.272392779178     1.007825032230
         H            2.403476967502     2.666284821378     0.712402779178     1.007825032230
         H            3.373199967502    -2.085448178622    -0.410863220822     1.007825032230
         H           -2.813435032498     2.083275821378    -0.774322220822     1.007825032230
         H           -3.151390032498    -1.938360178622     0.751517779178     1.007825032230
         H           -4.305630032498     0.177609821378    -0.025803220822     1.007825032230

  Basis Set: AUG-CC-PVTZ
    Blend: AUG-CC-PVTZ
  Basis Set: (AUG-CC-PVTZ AUX)
    Blend: AUG-CC-PVTZ-JKFIT
	 Reference Energy          =    -525.5098811155796739 [Eh]
	 Singles Energy            =      -0.0000000000000000 [Eh]
	 Same-Spin Energy          =      -0.5791317184081517 [Eh]
	 Opposite-Spin Energy      =      -1.7436304866681813 [Eh]
	 Correlation Energy        =      -2.3227622050763328 [Eh]
	 Total Energy              =    -527.8326433206559614 [Eh]

	 ================> DF-SCS-MP2 Energies <==================
	-----------------------------------------------------------
	 SCS Same-Spin Scale       =       0.3333333333333333 [-]
	 SCS Opposite-Spin Scale   =       1.2000000000000000 [-]
	 SCS Same-Spin Energy      =      -0.1930439061360505 [Eh]
	 SCS Opposite-Spin Energy  =      -2.0923565840018177 [Eh]
	 SCS Correlation Energy    =      -2.2854004901378682 [Eh]
	 SCS Total Energy          =    -527.7952816057174914 [Eh]
	-----------------------------------------------------------

  Dipole Moment: [D]
     X:    -2.8079      Y:     2.5104      Z:     0.4564     Total:     3.7940

*** Psi4 exiting successfully. Buy a developer a beer!
