                               Psi4 1.3.2 release

  ==> Input File <==

--------------------------------------------------------------------------
#psi4
#
memory 32 gb

molecule  {
0 1
  N        0.7303300    -0.3394086    -0.0507941
  N        1.3585440    -1.5263750    -0.2734470
  N       -1.0817850     0.9875590    -0.4601130
  N       -1.2686320    -1.2431920     0.4227390
  C        1.7597130     0.6951090     0.1272320
  C        2.9786120     0.0532150     0.0016160
  C       -0.5903530    -0.1795160    -0.0248380
  C        1.4539390     2.1247050     0.4316710
  C        2.6793880    -1.2992810    -0.2463060
  C       -2.4210880     1.0928180    -0.4382200
  C       -2.6039190    -1.1175230     0.3972460
  C       -3.2414650     0.0469210    -0.0276130
  H        3.9528590     0.5149220     0.0929350
  H        1.0131890     2.6387050    -0.4244530
  H        0.7544440     2.2203260     1.2670250
  H        2.3864280     2.6245280     0.7070350
  H        3.3561510    -2.1272050    -0.4162310
  H       -2.8304840     2.0415190    -0.7796900
  H       -3.1684390    -1.9801170     0.7461500
  H       -4.3226790     0.1358530    -0.0311710
units angstrom
no_reorient  #important for SAPT in psi4, default
symmetry c1  #important for SAPT in psi4, default
}

set PROPERTIES_ORIGIN ["COM"]
properties('MP2/aug-cc-pvtz', properties = ['dipole'])
--------------------------------------------------------------------------

    Molecular point group: c1
  Charge       = 0
  Multiplicity = 1
  Basis Set: AUG-CC-PVTZ
    Blend: AUG-CC-PVTZ
  Basis Set: (AUG-CC-PVTZ AUX)
    Blend: AUG-CC-PVTZ-JKFIT

    Orbital Energies [Eh]
    ---------------------

    Doubly Occupied:

       1A    -15.640662     2A    -15.588381     3A    -15.575730
       4A    -15.569923     5A    -11.357718     6A    -11.307553
       7A    -11.304340     8A    -11.297580     9A    -11.262056
      10A    -11.246073    11A    -11.235245    12A    -11.228312
      13A     -1.387393    14A     -1.304844    15A     -1.201051
      16A     -1.143221    17A     -1.077727    18A     -1.044775
      19A     -0.960422    20A     -0.906674    21A     -0.896580
      22A     -0.806079    23A     -0.788022    24A     -0.711686
      25A     -0.706505    26A     -0.681145    27A     -0.638774
      28A     -0.637574    29A     -0.606544    30A     -0.600174
      31A     -0.583763    32A     -0.574416    33A     -0.561885
      34A     -0.548998    35A     -0.538948    36A     -0.488436
      37A     -0.448184    38A     -0.426755    39A     -0.415037
      40A     -0.413736    41A     -0.340004    42A     -0.326441

  @DF-RHF Final Energy:  -525.53034378732434

   => Energetics <=

    Nuclear Repulsion Energy =            658.3783504119112422
    One-Electron Energy =               -2019.0586580363126359
    Two-Electron Energy =                 835.1499638370770526
    Total Energy =                       -525.5303437873243411
  Basis Set: (AUG-CC-PVTZ AUX)
    Blend: AUG-CC-PVTZ-RI
    Molecular point group: c1

    Geometry (in Angstrom), charge = 0, multiplicity = 1:

       Center              X                  Y                   Z               Mass
    ------------   -----------------  -----------------  -----------------  -----------------
         N            0.744911180478    -0.298221878367    -0.043025377496    14.003074004430
         N            1.373125180478    -1.485188278367    -0.265678277496    14.003074004430
         N           -1.067203819522     1.028745721633    -0.452344277496    14.003074004430
         N           -1.254050819522    -1.202005278367     0.430507722504    14.003074004430
         C            1.774294180478     0.736295721633     0.135000722504    12.000000000000
         C            2.993193180478     0.094401721633     0.009384722504    12.000000000000
         C           -0.575771819522    -0.138329278367    -0.017069277496    12.000000000000
         C            1.468520180478     2.165891721633     0.439439722504    12.000000000000
         C            2.693969180478    -1.258094278367    -0.238537277496    12.000000000000
         C           -2.406506819522     1.134004721633    -0.430451277496    12.000000000000
         C           -2.589337819522    -1.076336278367     0.405014722504    12.000000000000
         C           -3.226883819522     0.088107721633    -0.019844277496    12.000000000000
         H            3.967440180478     0.556108721633     0.100703722504     1.007825032230
         H            1.027770180478     2.679891721633    -0.416684277496     1.007825032230
         H            0.769025180478     2.261512721633     1.274793722504     1.007825032230
         H            2.401009180478     2.665714721633     0.714803722504     1.007825032230
         H            3.370732180478    -2.086018278367    -0.408462277496     1.007825032230
         H           -2.815902819522     2.082705721633    -0.771921277496     1.007825032230
         H           -3.153857819522    -1.938930278367     0.753918722504     1.007825032230
         H           -4.308097819522     0.177039721633    -0.023402277496     1.007825032230

  Basis Set: AUG-CC-PVTZ
    Blend: AUG-CC-PVTZ
  Basis Set: (AUG-CC-PVTZ AUX)
    Blend: AUG-CC-PVTZ-JKFIT
	 Reference Energy          =    -525.5303437873243411 [Eh]
	 Singles Energy            =      -0.0000000000000000 [Eh]
	 Same-Spin Energy          =      -0.5775193930169755 [Eh]
	 Opposite-Spin Energy      =      -1.7397451081072710 [Eh]
	 Correlation Energy        =      -2.3172645011242468 [Eh]
	 Total Energy              =    -527.8476082884485550 [Eh]

	 ================> DF-SCS-MP2 Energies <==================
	-----------------------------------------------------------
	 SCS Same-Spin Scale       =       0.3333333333333333 [-]
	 SCS Opposite-Spin Scale   =       1.2000000000000000 [-]
	 SCS Same-Spin Energy      =      -0.1925064643389918 [Eh]
	 SCS Opposite-Spin Energy  =      -2.0876941297287250 [Eh]
	 SCS Correlation Energy    =      -2.2802005940677170 [Eh]
	 SCS Total Energy          =    -527.8105443813921056 [Eh]
	-----------------------------------------------------------

  Dipole Moment: [D]
     X:    -1.9201      Y:     2.5276      Z:     0.4282     Total:     3.2029

*** Psi4 exiting successfully. Buy a developer a beer!
