                               Psi4 1.3.2 release

  ==> Input File <==

--------------------------------------------------------------------------
#psi4
#
memory 32 gb

molecule  {
0 1
  N        0.8160970    -0.2990240    -0.0443680
  N        1.3585440    -1.5263750    -0.2734470
  N       -1.0817850     0.9875590    -0.4601130
  N       -1.2686320    -1.2431920     0.4227390
  C        1.6914024     0.6231414     0.1148095
  C        2.9786120     0.0532150     0.0016160
  C       -0.5903530    -0.1795160    -0.0248380
  C        1.4539390     2.1247050     0.4316710
  C        2.6793880    -1.2992810    -0.2463060
  C       -2.4210880     1.0928180    -0.4382200
  C       -2.6039190    -1.1175230     0.3972460
  C       -3.2414650     0.0469210    -0.0276130
  H        3.9528590     0.5149220     0.0929350
  H        1.0131890     2.6387050    -0.4244530
  H        0.7544440     2.2203260     1.2670250
  H        2.3864280     2.6245280     0.7070350
  H        3.3561510    -2.1272050    -0.4162310
  H       -2.8304840     2.0415190    -0.7796900
  H       -3.1684390    -1.9801170     0.7461500
  H       -4.3226790     0.1358530    -0.0311710
units angstrom
no_reorient  #important for SAPT in psi4, default
symmetry c1  #important for SAPT in psi4, default
}

set PROPERTIES_ORIGIN ["COM"]
properties('MP2/aug-cc-pvtz', properties = ['dipole'])
--------------------------------------------------------------------------

    Molecular point group: c1
  Charge       = 0
  Multiplicity = 1
  Basis Set: AUG-CC-PVTZ
    Blend: AUG-CC-PVTZ
  Basis Set: (AUG-CC-PVTZ AUX)
    Blend: AUG-CC-PVTZ-JKFIT

    Orbital Energies [Eh]
    ---------------------

    Doubly Occupied:

       1A    -15.647222     2A    -15.587315     3A    -15.583458
       4A    -15.570395     5A    -11.372096     6A    -11.314813
       7A    -11.312717     8A    -11.282951     9A    -11.256969
      10A    -11.252706    11A    -11.236838    12A    -11.211777
      13A     -1.405656    14A     -1.318908    15A     -1.210355
      16A     -1.137323    17A     -1.083937    18A     -1.044198
      19A     -0.950684    20A     -0.912645    21A     -0.907070
      22A     -0.807826    23A     -0.801632    24A     -0.716787
      25A     -0.705677    26A     -0.680119    27A     -0.648006
      28A     -0.635706    29A     -0.608992    30A     -0.595973
      31A     -0.586909    32A     -0.575111    33A     -0.566919
      34A     -0.554702    35A     -0.512421    36A     -0.493801
      37A     -0.452483    38A     -0.433472    39A     -0.422972
      40A     -0.409509    41A     -0.348943    42A     -0.322943

  @DF-RHF Final Energy:  -525.53519491933184

   => Energetics <=

    Nuclear Repulsion Energy =            659.9589016799262708
    One-Electron Energy =               -2022.0263200305150804
    Two-Electron Energy =                 836.5322234312570799
    Total Energy =                       -525.5351949193318433
  Basis Set: (AUG-CC-PVTZ AUX)
    Blend: AUG-CC-PVTZ-RI
    Molecular point group: c1

    Geometry (in Angstrom), charge = 0, multiplicity = 1:

       Center              X                  Y                   Z               Mass
    ------------   -----------------  -----------------  -----------------  -----------------
         N            0.828296330126    -0.255975008489    -0.036230169988    14.003074004430
         N            1.370743330126    -1.483326008489    -0.265309169988    14.003074004430
         N           -1.069585669874     1.030607991511    -0.451975169988    14.003074004430
         N           -1.256432669874    -1.200143008489     0.430876830012    14.003074004430
         C            1.703601730126     0.666190391511     0.122947330012    12.000000000000
         C            2.990811330126     0.096263991511     0.009753830012    12.000000000000
         C           -0.578153669874    -0.136467008489    -0.016700169988    12.000000000000
         C            1.466138330126     2.167753991511     0.439808830012    12.000000000000
         C            2.691587330126    -1.256232008489    -0.238168169988    12.000000000000
         C           -2.408888669874     1.135866991511    -0.430082169988    12.000000000000
         C           -2.591719669874    -1.074474008489     0.405383830012    12.000000000000
         C           -3.229265669874     0.089969991511    -0.019475169988    12.000000000000
         H            3.965058330126     0.557970991511     0.101072830012     1.007825032230
         H            1.025388330126     2.681753991511    -0.416315169988     1.007825032230
         H            0.766643330126     2.263374991511     1.275162830012     1.007825032230
         H            2.398627330126     2.667576991511     0.715172830012     1.007825032230
         H            3.368350330126    -2.084156008489    -0.408093169988     1.007825032230
         H           -2.818284669874     2.084567991511    -0.771552169988     1.007825032230
         H           -3.156239669874    -1.937068008489     0.754287830012     1.007825032230
         H           -4.310479669874     0.178901991511    -0.023033169988     1.007825032230

  Basis Set: AUG-CC-PVTZ
    Blend: AUG-CC-PVTZ
  Basis Set: (AUG-CC-PVTZ AUX)
    Blend: AUG-CC-PVTZ-JKFIT
	 Reference Energy          =    -525.5351949193318433 [Eh]
	 Singles Energy            =      -0.0000000000000000 [Eh]
	 Same-Spin Energy          =      -0.5768647263865654 [Eh]
	 Opposite-Spin Energy      =      -1.7368262218697015 [Eh]
	 Correlation Energy        =      -2.3136909482562666 [Eh]
	 Total Energy              =    -527.8488858675881374 [Eh]

	 ================> DF-SCS-MP2 Energies <==================
	-----------------------------------------------------------
	 SCS Same-Spin Scale       =       0.3333333333333333 [-]
	 SCS Opposite-Spin Scale   =       1.2000000000000000 [-]
	 SCS Same-Spin Energy      =      -0.1922882421288551 [Eh]
	 SCS Opposite-Spin Energy  =      -2.0841914662436416 [Eh]
	 SCS Correlation Energy    =      -2.2764797083724968 [Eh]
	 SCS Total Energy          =    -527.8116746277042921 [Eh]
	-----------------------------------------------------------

  Dipole Moment: [D]
     X:    -2.9603      Y:     2.5297      Z:     0.4341     Total:     3.9180

*** Psi4 exiting successfully. Buy a developer a beer!
