                               Psi4 1.3.2 release

  ==> Input File <==

--------------------------------------------------------------------------
#psi4
#
memory 32 gb

molecule  {
0 1
  N        0.8160970    -0.2990240    -0.0443680
  N        1.3585440    -1.5263750    -0.2734470
  N       -1.0817850     0.9875590    -0.4601130
  N       -1.2686320    -1.2431920     0.4227390
  C        1.7597130     0.6951090     0.1272320
  C        2.9786120     0.0532150     0.0016160
  C       -0.5903530    -0.1795160    -0.0248380
  C        1.4539390     2.1247050     0.4316710
  C        2.5842024    -1.2753197    -0.2426840
  C       -2.4210880     1.0928180    -0.4382200
  C       -2.6039190    -1.1175230     0.3972460
  C       -3.2414650     0.0469210    -0.0276130
  H        3.9528590     0.5149220     0.0929350
  H        1.0131890     2.6387050    -0.4244530
  H        0.7544440     2.2203260     1.2670250
  H        2.3864280     2.6245280     0.7070350
  H        3.3561510    -2.1272050    -0.4162310
  H       -2.8304840     2.0415190    -0.7796900
  H       -3.1684390    -1.9801170     0.7461500
  H       -4.3226790     0.1358530    -0.0311710
units angstrom
no_reorient  #important for SAPT in psi4, default
symmetry c1  #important for SAPT in psi4, default
}

set PROPERTIES_ORIGIN ["COM"]
properties('MP2/aug-cc-pvtz', properties = ['dipole'])
--------------------------------------------------------------------------

    Molecular point group: c1
  Charge       = 0
  Multiplicity = 1
  Basis Set: AUG-CC-PVTZ
    Blend: AUG-CC-PVTZ
  Basis Set: (AUG-CC-PVTZ AUX)
    Blend: AUG-CC-PVTZ-JKFIT

    Orbital Energies [Eh]
    ---------------------

    Doubly Occupied:

       1A    -15.637089     2A    -15.581006     3A    -15.577561
       4A    -15.575200     5A    -11.366126     6A    -11.310874
       7A    -11.308974     8A    -11.289011     9A    -11.251550
      10A    -11.251529    11A    -11.235147    12A    -11.214993
      13A     -1.398888    14A     -1.317111    15A     -1.205203
      16A     -1.144317    17A     -1.089393    18A     -1.044601
      19A     -0.964434    20A     -0.908832    21A     -0.892667
      22A     -0.798977    23A     -0.789522    24A     -0.715127
      25A     -0.708757    26A     -0.684284    27A     -0.642304
      28A     -0.631874    29A     -0.606358    30A     -0.589257
      31A     -0.584242    32A     -0.574548    33A     -0.564675
      34A     -0.558569    35A     -0.527129    36A     -0.490909
      37A     -0.455267    38A     -0.430132    39A     -0.419946
      40A     -0.412630    41A     -0.347935    42A     -0.333666

  @DF-RHF Final Energy:  -525.53636859734252

   => Energetics <=

    Nuclear Repulsion Energy =            660.6599451411040036
    One-Electron Energy =               -2023.5313954143389310
    Two-Electron Energy =                 837.3350816758925248
    Total Energy =                       -525.5363685973425163
  Basis Set: (AUG-CC-PVTZ AUX)
    Blend: AUG-CC-PVTZ-RI
    Molecular point group: c1

    Geometry (in Angstrom), charge = 0, multiplicity = 1:

       Center              X                  Y                   Z               Mass
    ------------   -----------------  -----------------  -----------------  -----------------
         N            0.830311012050    -0.263166309728    -0.037432944467    14.003074004430
         N            1.372758012050    -1.490517309728    -0.266511944467    14.003074004430
         N           -1.067570987950     1.023416690272    -0.453177944467    14.003074004430
         N           -1.254417987950    -1.207334309728     0.429674055533    14.003074004430
         C            1.773927012050     0.730966690272     0.134167055533    12.000000000000
         C            2.992826012050     0.089072690272     0.008551055533    12.000000000000
         C           -0.576138987950    -0.143658309728    -0.017902944467    12.000000000000
         C            1.468153012050     2.160562690272     0.438606055533    12.000000000000
         C            2.598416412050    -1.239462009728    -0.235748944467    12.000000000000
         C           -2.406873987950     1.128675690272    -0.431284944467    12.000000000000
         C           -2.589704987950    -1.081665309728     0.404181055533    12.000000000000
         C           -3.227250987950     0.082778690272    -0.020677944467    12.000000000000
         H            3.967073012050     0.550779690272     0.099870055533     1.007825032230
         H            1.027403012050     2.674562690272    -0.417517944467     1.007825032230
         H            0.768658012050     2.256183690272     1.273960055533     1.007825032230
         H            2.400642012050     2.660385690272     0.713970055533     1.007825032230
         H            3.370365012050    -2.091347309728    -0.409295944467     1.007825032230
         H           -2.816269987950     2.077376690272    -0.772754944467     1.007825032230
         H           -3.154224987950    -1.944259309728     0.753085055533     1.007825032230
         H           -4.308464987950     0.171710690272    -0.024235944467     1.007825032230

  Basis Set: AUG-CC-PVTZ
    Blend: AUG-CC-PVTZ
  Basis Set: (AUG-CC-PVTZ AUX)
    Blend: AUG-CC-PVTZ-JKFIT
	 Reference Energy          =    -525.5363685973425163 [Eh]
	 Singles Energy            =      -0.0000000000000000 [Eh]
	 Same-Spin Energy          =      -0.5754597532156959 [Eh]
	 Opposite-Spin Energy      =      -1.7346883528726551 [Eh]
	 Correlation Energy        =      -2.3101481060883509 [Eh]
	 Total Energy              =    -527.8465167034308934 [Eh]

	 ================> DF-SCS-MP2 Energies <==================
	-----------------------------------------------------------
	 SCS Same-Spin Scale       =       0.3333333333333333 [-]
	 SCS Opposite-Spin Scale   =       1.2000000000000000 [-]
	 SCS Same-Spin Energy      =      -0.1918199177385653 [Eh]
	 SCS Opposite-Spin Energy  =      -2.0816260234471859 [Eh]
	 SCS Correlation Energy    =      -2.2734459411857513 [Eh]
	 SCS Total Energy          =    -527.8098145385282578 [Eh]
	-----------------------------------------------------------

  Dipole Moment: [D]
     X:    -2.4830      Y:     2.5861      Z:     0.4441     Total:     3.6125

*** Psi4 exiting successfully. Buy a developer a beer!
