                               Psi4 1.4a3.dev225

  ==> Input File <==

--------------------------------------------------------------------------
#psi4
#
memory 32 gb

molecule  {
0 1
  N        0.8160970    -0.2990240    -0.0443680
  N        1.3585440    -1.5263750    -0.2734470
  N       -1.0817850     0.9875590    -0.4601130
  N       -1.2686320    -1.2431920     0.4227390
  C        1.7597130     0.6951090     0.1272320
  C        2.9786120     0.0532150     0.0016160
  C       -0.5903530    -0.1795160    -0.0248380
  C        1.4539390     2.1247050     0.4316710
  C        2.6793880    -1.2992810    -0.2463060
  C       -2.4210880     1.0928180    -0.4382200
  C       -2.6039190    -1.1175230     0.3972460
  C       -3.2414650     0.0469210    -0.0276130
  H        3.9528590     0.5149220     0.0929350
  H        1.0131890     2.6387050    -0.4244530
  H        0.7544440     2.2203260     1.2670250
  H        2.3864280     2.6245280     0.7070350
  H        3.3561510    -2.1272050    -0.4162310
  H       -2.8304840     2.0415190    -0.7796900
  H       -3.1425041    -1.9404881     0.7301208
  H       -4.3226790     0.1358530    -0.0311710
units angstrom
no_reorient  #important for SAPT in psi4, default
symmetry c1  #important for SAPT in psi4, default
}

set PROPERTIES_ORIGIN ["COM"]
properties('MP2/aug-cc-pvtz', properties = ['dipole'])
--------------------------------------------------------------------------

    Molecular point group: c1
  Charge       = 0
  Multiplicity = 1
  Basis Set: AUG-CC-PVTZ
    Blend: AUG-CC-PVTZ
  Basis Set: (AUG-CC-PVTZ AUX)
    Blend: AUG-CC-PVTZ-JKFIT

    Orbital Energies [Eh]
    ---------------------

    Doubly Occupied:

       1A    -15.641975     2A    -15.582342     3A    -15.581362
       4A    -15.578262     5A    -11.367038     6A    -11.311285
       7A    -11.303841     8A    -11.286631     9A    -11.254433
      10A    -11.252338    11A    -11.234629    12A    -11.217216
      13A     -1.386180    14A     -1.312407    15A     -1.206190
      16A     -1.129463    17A     -1.084319    18A     -1.045146
      19A     -0.958710    20A     -0.912772    21A     -0.896775
      22A     -0.801253    23A     -0.797102    24A     -0.713234
      25A     -0.708988    26A     -0.682692    27A     -0.638875
      28A     -0.635058    29A     -0.610115    30A     -0.591655
      31A     -0.587068    32A     -0.574999    33A     -0.563910
      34A     -0.552569    35A     -0.535817    36A     -0.491451
      37A     -0.455029    38A     -0.430341    39A     -0.420598
      40A     -0.407557    41A     -0.337897    42A     -0.332278

  @DF-RHF Final Energy:  -525.54287672377484

   => Energetics <=

    Nuclear Repulsion Energy =            658.5540023521181183
    One-Electron Energy =               -2019.3701613977732450
    Two-Electron Energy =                 835.2732823218804015
    Total Energy =                       -525.5428767237748389
  Basis Set: (AUG-CC-PVTZ AUX)
    Blend: AUG-CC-PVTZ-RI
    Molecular point group: c1

    Geometry (in Angstrom), charge = 0, multiplicity = 1:

       Center              X                  Y                   Z               Mass
    ------------   -----------------  -----------------  -----------------  -----------------
         N            0.823012147152    -0.261619555001    -0.037060502376    14.003074004430
         N            1.365459147152    -1.488970555001    -0.266139502376    14.003074004430
         N           -1.074869852848     1.024963444999    -0.452805502376    14.003074004430
         N           -1.261716852848    -1.205787555001     0.430046497624    14.003074004430
         C            1.766628147152     0.732513444999     0.134539497624    12.000000000000
         C            2.985527147152     0.090619444999     0.008923497624    12.000000000000
         C           -0.583437852848    -0.142111555001    -0.017530502376    12.000000000000
         C            1.460854147152     2.162109444999     0.438978497624    12.000000000000
         C            2.686303147152    -1.261876555001    -0.238998502376    12.000000000000
         C           -2.414172852848     1.130222444999    -0.430912502376    12.000000000000
         C           -2.597003852848    -1.080118555001     0.404553497624    12.000000000000
         C           -3.234549852848     0.084325444999    -0.020305502376    12.000000000000
         H            3.959774147152     0.552326444999     0.100242497624     1.007825032230
         H            1.020104147152     2.676109444999    -0.417145502376     1.007825032230
         H            0.761359147152     2.257730444999     1.274332497624     1.007825032230
         H            2.393343147152     2.661932444999     0.714342497624     1.007825032230
         H            3.363066147152    -2.089800555001    -0.408923502376     1.007825032230
         H           -2.823568852848     2.078923444999    -0.772382502376     1.007825032230
         H           -3.135588952848    -1.903083655001     0.737428297624     1.007825032230
         H           -4.315763852848     0.173257444999    -0.023863502376     1.007825032230

  Basis Set: AUG-CC-PVTZ
    Blend: AUG-CC-PVTZ
  Basis Set: (AUG-CC-PVTZ AUX)
    Blend: AUG-CC-PVTZ-JKFIT
	 Reference Energy          =    -525.5428767237748389 [Eh]
	 Singles Energy            =      -0.0000000000000000 [Eh]
	 Same-Spin Energy          =      -0.5774579426571113 [Eh]
	 Opposite-Spin Energy      =      -1.7383028845034751 [Eh]
	 Correlation Energy        =      -2.3157608271605863 [Eh]
	 Total Energy              =    -527.8586375509354411 [Eh]

	 ================> DF-SCS-MP2 Energies <==================
	-----------------------------------------------------------
	 SCS Same-Spin Scale       =       0.3333333333333333 [-]
	 SCS Opposite-Spin Scale   =       1.2000000000000000 [-]
	 SCS Same-Spin Energy      =      -0.1924859808857037 [Eh]
	 SCS Opposite-Spin Energy  =      -2.0859634614041700 [Eh]
	 SCS Correlation Energy    =      -2.2784494422898738 [Eh]
	 SCS Total Energy          =    -527.8213261660647504 [Eh]
	-----------------------------------------------------------

  Dipole Moment: [D]
     X:    -2.5953      Y:     2.5506      Z:     0.4418     Total:     3.6655

*** Psi4 exiting successfully. Buy a developer a beer!
