                               Psi4 1.3.2 release

  ==> Input File <==

--------------------------------------------------------------------------
#psi4
#
memory 32 gb

molecule  {
0 1
  N        0.8160970    -0.2990240    -0.0443680
  N        1.3585440    -1.5263750    -0.2734470
  N       -1.0817850     0.9875590    -0.4601130
  N       -1.2686320    -1.2431920     0.4227390
  C        1.7597130     0.6951090     0.1272320
  C        2.9786120     0.0532150     0.0016160
  C       -0.5903530    -0.1795160    -0.0248380
  C        1.4539390     2.1247050     0.4316710
  C        2.6793880    -1.2992810    -0.2463060
  C       -2.4210880     1.0928180    -0.4382200
  C       -2.6039190    -1.1175230     0.3972460
  C       -3.2414650     0.0469210    -0.0276130
  H        4.0429024     0.5575946     0.1013750
  H        1.0131890     2.6387050    -0.4244530
  H        0.7544440     2.2203260     1.2670250
  H        2.3864280     2.6245280     0.7070350
  H        3.3561510    -2.1272050    -0.4162310
  H       -2.8304840     2.0415190    -0.7796900
  H       -3.1684390    -1.9801170     0.7461500
  H       -4.3226790     0.1358530    -0.0311710
units angstrom
no_reorient  #important for SAPT in psi4, default
symmetry c1  #important for SAPT in psi4, default
}

set PROPERTIES_ORIGIN ["COM"]
properties('MP2/aug-cc-pvtz', properties = ['dipole'])
--------------------------------------------------------------------------

    Molecular point group: c1
  Charge       = 0
  Multiplicity = 1
  Basis Set: AUG-CC-PVTZ
    Blend: AUG-CC-PVTZ
  Basis Set: (AUG-CC-PVTZ AUX)
    Blend: AUG-CC-PVTZ-JKFIT

    Orbital Energies [Eh]
    ---------------------

    Doubly Occupied:

       1A    -15.642765     2A    -15.582650     3A    -15.582206
       4A    -15.578928     5A    -11.367725     6A    -11.311719
       7A    -11.309697     8A    -11.287593     9A    -11.255537
      10A    -11.252897    11A    -11.234627    12A    -11.228294
      13A     -1.386946    14A     -1.312907    15A     -1.206269
      16A     -1.129832    17A     -1.083898    18A     -1.044457
      19A     -0.957943    20A     -0.909169    21A     -0.895968
      22A     -0.800400    23A     -0.789004    24A     -0.713106
      25A     -0.707470    26A     -0.681122    27A     -0.638557
      28A     -0.630546    29A     -0.604205    30A     -0.588125
      31A     -0.582755    32A     -0.573927    33A     -0.557453
      34A     -0.552397    35A     -0.535939    36A     -0.491805
      37A     -0.454975    38A     -0.430716    39A     -0.420411
      40A     -0.408107    41A     -0.338487    42A     -0.332952

  @DF-RHF Final Energy:  -525.53604422479987

   => Energetics <=

    Nuclear Repulsion Energy =            657.7664884743193170
    One-Electron Energy =               -2017.8160878508263067
    Two-Electron Energy =                 834.5135551517072372
    Total Energy =                       -525.5360442247998662
  Basis Set: (AUG-CC-PVTZ AUX)
    Blend: AUG-CC-PVTZ-RI
    Molecular point group: c1

    Geometry (in Angstrom), charge = 0, multiplicity = 1:

       Center              X                  Y                   Z               Mass
    ------------   -----------------  -----------------  -----------------  -----------------
         N            0.822608522645    -0.261638718012    -0.037214559464    14.003074004430
         N            1.365055522645    -1.488989718012    -0.266293559464    14.003074004430
         N           -1.075273477355     1.024944281988    -0.452959559464    14.003074004430
         N           -1.262120477355    -1.205806718012     0.429892440536    14.003074004430
         C            1.766224522645     0.732494281988     0.134385440536    12.000000000000
         C            2.985123522645     0.090600281988     0.008769440536    12.000000000000
         C           -0.583841477355    -0.142130718012    -0.017684559464    12.000000000000
         C            1.460450522645     2.162090281988     0.438824440536    12.000000000000
         C            2.685899522645    -1.261895718012    -0.239152559464    12.000000000000
         C           -2.414576477355     1.130203281988    -0.431066559464    12.000000000000
         C           -2.597407477355    -1.080137718012     0.404399440536    12.000000000000
         C           -3.234953477355     0.084306281988    -0.020459559464    12.000000000000
         H            4.049413922645     0.594979881988     0.108528440536     1.007825032230
         H            1.019700522645     2.676090281988    -0.417299559464     1.007825032230
         H            0.760955522645     2.257711281988     1.274178440536     1.007825032230
         H            2.392939522645     2.661913281988     0.714188440536     1.007825032230
         H            3.362662522645    -2.089819718012    -0.409077559464     1.007825032230
         H           -2.823972477355     2.078904281988    -0.772536559464     1.007825032230
         H           -3.161927477355    -1.942731718012     0.753303440536     1.007825032230
         H           -4.316167477355     0.173238281988    -0.024017559464     1.007825032230

  Basis Set: AUG-CC-PVTZ
    Blend: AUG-CC-PVTZ
  Basis Set: (AUG-CC-PVTZ AUX)
    Blend: AUG-CC-PVTZ-JKFIT
	 Reference Energy          =    -525.5360442247998662 [Eh]
	 Singles Energy            =      -0.0000000000000000 [Eh]
	 Same-Spin Energy          =      -0.5777663630818590 [Eh]
	 Opposite-Spin Energy      =      -1.7395107061762947 [Eh]
	 Correlation Energy        =      -2.3172770692581537 [Eh]
	 Total Energy              =    -527.8533212940579915 [Eh]

	 ================> DF-SCS-MP2 Energies <==================
	-----------------------------------------------------------
	 SCS Same-Spin Scale       =       0.3333333333333333 [-]
	 SCS Opposite-Spin Scale   =       1.2000000000000000 [-]
	 SCS Same-Spin Energy      =      -0.1925887876939530 [Eh]
	 SCS Opposite-Spin Energy  =      -2.0874128474115534 [Eh]
	 SCS Correlation Energy    =      -2.2800016351055064 [Eh]
	 SCS Total Energy          =    -527.8160458599053300 [Eh]
	-----------------------------------------------------------

  Dipole Moment: [D]
     X:    -2.6009      Y:     2.5434      Z:     0.4374     Total:     3.6640

*** Psi4 exiting successfully. Buy a developer a beer!
