                               Psi4 1.3.2 release

  ==> Input File <==

--------------------------------------------------------------------------
#psi4
#
memory 32 gb

molecule  {
0 1
  N        0.8160970    -0.2990240    -0.0443680
  N        1.4860807    -1.4639703    -0.2614814
  N       -1.0817850     0.9875590    -0.4601130
  N       -1.2686320    -1.2431920     0.4227390
  C        1.7597130     0.6951090     0.1272320
  C        2.9786120     0.0532150     0.0016160
  C       -0.5903530    -0.1795160    -0.0248380
  C        1.4539390     2.1247050     0.4316710
  C        2.6793880    -1.2992810    -0.2463060
  C       -2.4210880     1.0928180    -0.4382200
  C       -2.6039190    -1.1175230     0.3972460
  C       -3.2414650     0.0469210    -0.0276130
  H        3.9528590     0.5149220     0.0929350
  H        1.0131890     2.6387050    -0.4244530
  H        0.7544440     2.2203260     1.2670250
  H        2.3864280     2.6245280     0.7070350
  H        3.3561510    -2.1272050    -0.4162310
  H       -2.8304840     2.0415190    -0.7796900
  H       -3.1684390    -1.9801170     0.7461500
  H       -4.3226790     0.1358530    -0.0311710
units angstrom
no_reorient  #important for SAPT in psi4, default
symmetry c1  #important for SAPT in psi4, default
}

set PROPERTIES_ORIGIN ["COM"]
properties('MP2/aug-cc-pvtz', properties = ['dipole'])
--------------------------------------------------------------------------

    Molecular point group: c1
  Charge       = 0
  Multiplicity = 1
  Basis Set: AUG-CC-PVTZ
    Blend: AUG-CC-PVTZ
  Basis Set: (AUG-CC-PVTZ AUX)
    Blend: AUG-CC-PVTZ-JKFIT

    Orbital Energies [Eh]
    ---------------------

    Doubly Occupied:

       1A    -15.636696     2A    -15.583260     3A    -15.579624
       4A    -15.563242     5A    -11.370942     6A    -11.312622
       7A    -11.310404     8A    -11.282057     9A    -11.253148
      10A    -11.236603    11A    -11.231430    12A    -11.208941
      13A     -1.397933    14A     -1.320784    15A     -1.206908
      16A     -1.159767    17A     -1.081273    18A     -1.046046
      19A     -0.955408    20A     -0.910765    21A     -0.900682
      22A     -0.801841    23A     -0.795615    24A     -0.713731
      25A     -0.711467    26A     -0.686108    27A     -0.644199
      28A     -0.639829    29A     -0.609152    30A     -0.600400
      31A     -0.586337    32A     -0.576431    33A     -0.561810
      34A     -0.557556    35A     -0.537742    36A     -0.492307
      37A     -0.434778    38A     -0.430612    39A     -0.420027
      40A     -0.416494    41A     -0.352636    42A     -0.326730

  @DF-RHF Final Energy:  -525.53271099880169

   => Energetics <=

    Nuclear Repulsion Energy =            660.2867818697746998
    One-Electron Energy =               -2022.7503073528125697
    Two-Electron Energy =                 836.9308144842360662
    Total Energy =                       -525.5327109988016900
  Basis Set: (AUG-CC-PVTZ AUX)
    Blend: AUG-CC-PVTZ-RI
    Molecular point group: c1

    Geometry (in Angstrom), charge = 0, multiplicity = 1:

       Center              X                  Y                   Z               Mass
    ------------   -----------------  -----------------  -----------------  -----------------
         N            0.812018743140    -0.266829107868    -0.038208151481    14.003074004430
         N            1.482002443140    -1.431775407868    -0.255321551481    14.003074004430
         N           -1.085863256860     1.019753892132    -0.453953151481    14.003074004430
         N           -1.272710256860    -1.210997107868     0.428898848519    14.003074004430
         C            1.755634743140     0.727303892132     0.133391848519    12.000000000000
         C            2.974533743140     0.085409892132     0.007775848519    12.000000000000
         C           -0.594431256860    -0.147321107868    -0.018678151481    12.000000000000
         C            1.449860743140     2.156899892132     0.437830848519    12.000000000000
         C            2.675309743140    -1.267086107868    -0.240146151481    12.000000000000
         C           -2.425166256860     1.125012892132    -0.432060151481    12.000000000000
         C           -2.607997256860    -1.085328107868     0.403405848519    12.000000000000
         C           -3.245543256860     0.079115892132    -0.021453151481    12.000000000000
         H            3.948780743140     0.547116892132     0.099094848519     1.007825032230
         H            1.009110743140     2.670899892132    -0.418293151481     1.007825032230
         H            0.750365743140     2.252520892132     1.273184848519     1.007825032230
         H            2.382349743140     2.656722892132     0.713194848519     1.007825032230
         H            3.352072743140    -2.095010107868    -0.410071151481     1.007825032230
         H           -2.834562256860     2.073713892132    -0.773530151481     1.007825032230
         H           -3.172517256860    -1.947922107868     0.752309848519     1.007825032230
         H           -4.326757256860     0.168047892132    -0.025011151481     1.007825032230

  Basis Set: AUG-CC-PVTZ
    Blend: AUG-CC-PVTZ
  Basis Set: (AUG-CC-PVTZ AUX)
    Blend: AUG-CC-PVTZ-JKFIT
	 Reference Energy          =    -525.5327109988016900 [Eh]
	 Singles Energy            =      -0.0000000000000000 [Eh]
	 Same-Spin Energy          =      -0.5736574936452280 [Eh]
	 Opposite-Spin Energy      =      -1.7312634920336007 [Eh]
	 Correlation Energy        =      -2.3049209856788289 [Eh]
	 Total Energy              =    -527.8376319844804812 [Eh]

	 ================> DF-SCS-MP2 Energies <==================
	-----------------------------------------------------------
	 SCS Same-Spin Scale       =       0.3333333333333333 [-]
	 SCS Opposite-Spin Scale   =       1.2000000000000000 [-]
	 SCS Same-Spin Energy      =      -0.1912191645484093 [Eh]
	 SCS Opposite-Spin Energy  =      -2.0775161904403210 [Eh]
	 SCS Correlation Energy    =      -2.2687353549887304 [Eh]
	 SCS Total Energy          =    -527.8014463537904248 [Eh]
	-----------------------------------------------------------

  Dipole Moment: [D]
     X:    -2.6571      Y:     2.2936      Z:     0.3758     Total:     3.5302

*** Psi4 exiting successfully. Buy a developer a beer!
