                               Psi4 1.3.2 release

  ==> Input File <==

--------------------------------------------------------------------------
#psi4
#
memory 32 gb

molecule  {
0 1
  N        0.8160970    -0.2990240    -0.0443680
  N        1.3585440    -1.5263750    -0.2734470
  N       -1.0817850     0.9875590    -0.4601130
  N       -1.2686320    -1.2431920     0.4227390
  C        1.7597130     0.6951090     0.1272320
  C        2.9786120     0.0532150     0.0016160
  C       -0.5903530    -0.1795160    -0.0248380
  C        1.4539390     2.1247050     0.4316710
  C        2.6793880    -1.2992810    -0.2463060
  C       -2.4210880     1.0928180    -0.4382200
  C       -2.6039190    -1.1175230     0.3972460
  C       -3.2414650     0.0469210    -0.0276130
  H        3.9528590     0.5149220     0.0929350
  H        1.0131890     2.6387050    -0.4244530
  H        0.7544440     2.2203260     1.2670250
  H        2.3864280     2.6245280     0.7070350
  H        3.3561510    -2.1272050    -0.4162310
  H       -2.7928636     1.9543405    -0.7483115
  H       -3.1684390    -1.9801170     0.7461500
  H       -4.3226790     0.1358530    -0.0311710
units angstrom
no_reorient  #important for SAPT in psi4, default
symmetry c1  #important for SAPT in psi4, default
}

set PROPERTIES_ORIGIN ["COM"]
properties('MP2/aug-cc-pvtz', properties = ['dipole'])
--------------------------------------------------------------------------

    Molecular point group: c1
  Charge       = 0
  Multiplicity = 1
  Basis Set: AUG-CC-PVTZ
    Blend: AUG-CC-PVTZ
  Basis Set: (AUG-CC-PVTZ AUX)
    Blend: AUG-CC-PVTZ-JKFIT

    Orbital Energies [Eh]
    ---------------------

    Doubly Occupied:

       1A    -15.641856     2A    -15.581707     3A    -15.581279
       4A    -15.578533     5A    -11.366735     6A    -11.309024
       7A    -11.300032     8A    -11.286557     9A    -11.254348
      10A    -11.252053    11A    -11.234589    12A    -11.217148
      13A     -1.386063    14A     -1.312330    15A     -1.206390
      16A     -1.129940    17A     -1.084127    18A     -1.045598
      19A     -0.958671    20A     -0.917768    21A     -0.896765
      22A     -0.805673    23A     -0.795517    24A     -0.717288
      25A     -0.707716    26A     -0.683130    27A     -0.639641
      28A     -0.637948    29A     -0.611771    30A     -0.591848
      31A     -0.587691    32A     -0.575158    33A     -0.563812
      34A     -0.552498    35A     -0.535751    36A     -0.491286
      37A     -0.455065    38A     -0.430219    39A     -0.420778
      40A     -0.407442    41A     -0.337769    42A     -0.332207

  @DF-RHF Final Energy:  -525.53783773091004

   => Energetics <=

    Nuclear Repulsion Energy =            658.8482449937197316
    One-Electron Energy =               -2019.9287219492484837
    Two-Electron Energy =                 835.5426392246188243
    Total Energy =                       -525.5378377309100415
  Basis Set: (AUG-CC-PVTZ AUX)
    Blend: AUG-CC-PVTZ-RI
    Molecular point group: c1

    Geometry (in Angstrom), charge = 0, multiplicity = 1:

       Center              X                  Y                   Z               Mass
    ------------   -----------------  -----------------  -----------------  -----------------
         N            0.822938575719    -0.260821180771    -0.037358979326    14.003074004430
         N            1.365385575719    -1.488172180771    -0.266437979326    14.003074004430
         N           -1.074943424281     1.025761819229    -0.453103979326    14.003074004430
         N           -1.261790424281    -1.204989180771     0.429748020674    14.003074004430
         C            1.766554575719     0.733311819229     0.134241020674    12.000000000000
         C            2.985453575719     0.091417819229     0.008625020674    12.000000000000
         C           -0.583511424281    -0.141313180771    -0.017828979326    12.000000000000
         C            1.460780575719     2.162907819229     0.438680020674    12.000000000000
         C            2.686229575719    -1.261078180771    -0.239296979326    12.000000000000
         C           -2.414246424281     1.131020819229    -0.431210979326    12.000000000000
         C           -2.597077424281    -1.079320180771     0.404255020674    12.000000000000
         C           -3.234623424281     0.085123819229    -0.020603979326    12.000000000000
         H            3.959700575719     0.553124819229     0.099944020674     1.007825032230
         H            1.020030575719     2.676907819229    -0.417443979326     1.007825032230
         H            0.761285575719     2.258528819229     1.274034020674     1.007825032230
         H            2.393269575719     2.662730819229     0.714044020674     1.007825032230
         H            3.362992575719    -2.089002180771    -0.409221979326     1.007825032230
         H           -2.786022024281     1.992543319229    -0.741302479326     1.007825032230
         H           -3.161597424281    -1.941914180771     0.753159020674     1.007825032230
         H           -4.315837424281     0.174055819229    -0.024161979326     1.007825032230

  Basis Set: AUG-CC-PVTZ
    Blend: AUG-CC-PVTZ
  Basis Set: (AUG-CC-PVTZ AUX)
    Blend: AUG-CC-PVTZ-JKFIT
	 Reference Energy          =    -525.5378377309100415 [Eh]
	 Singles Energy            =      -0.0000000000000000 [Eh]
	 Same-Spin Energy          =      -0.5773907185882310 [Eh]
	 Opposite-Spin Energy      =      -1.7381063234908756 [Eh]
	 Correlation Energy        =      -2.3154970420791066 [Eh]
	 Total Energy              =    -527.8533347729891148 [Eh]

	 ================> DF-SCS-MP2 Energies <==================
	-----------------------------------------------------------
	 SCS Same-Spin Scale       =       0.3333333333333333 [-]
	 SCS Opposite-Spin Scale   =       1.2000000000000000 [-]
	 SCS Same-Spin Energy      =      -0.1924635728627437 [Eh]
	 SCS Opposite-Spin Energy  =      -2.0857275881890507 [Eh]
	 SCS Correlation Energy    =      -2.2781911610517942 [Eh]
	 SCS Total Energy          =    -527.8160288919618779 [Eh]
	-----------------------------------------------------------

  Dipole Moment: [D]
     X:    -2.6061      Y:     2.5654      Z:     0.4368     Total:     3.6829

*** Psi4 exiting successfully. Buy a developer a beer!
