                               Psi4 1.3.2 release

  ==> Input File <==

--------------------------------------------------------------------------
#psi4
#
memory 32 gb

molecule  {
0 1
  N        0.8160970    -0.2990240    -0.0443680
  N        1.3585440    -1.5263750    -0.2734470
  N       -1.0817850     0.9875590    -0.4601130
  N       -1.2686320    -1.2431920     0.4227390
  C        1.8277871     0.6278073     0.1157102
  C        2.9786120     0.0532150     0.0016160
  C       -0.5903530    -0.1795160    -0.0248380
  C        1.4539390     2.1247050     0.4316710
  C        2.6793880    -1.2992810    -0.2463060
  C       -2.4210880     1.0928180    -0.4382200
  C       -2.6039190    -1.1175230     0.3972460
  C       -3.2414650     0.0469210    -0.0276130
  H        3.9528590     0.5149220     0.0929350
  H        1.0131890     2.6387050    -0.4244530
  H        0.7544440     2.2203260     1.2670250
  H        2.3864280     2.6245280     0.7070350
  H        3.3561510    -2.1272050    -0.4162310
  H       -2.8304840     2.0415190    -0.7796900
  H       -3.1684390    -1.9801170     0.7461500
  H       -4.3226790     0.1358530    -0.0311710
units angstrom
no_reorient  #important for SAPT in psi4, default
symmetry c1  #important for SAPT in psi4, default
}

set PROPERTIES_ORIGIN ["COM"]
properties('MP2/aug-cc-pvtz', properties = ['dipole'])
--------------------------------------------------------------------------

    Molecular point group: c1
  Charge       = 0
  Multiplicity = 1
  Basis Set: AUG-CC-PVTZ
    Blend: AUG-CC-PVTZ
  Basis Set: (AUG-CC-PVTZ AUX)
    Blend: AUG-CC-PVTZ-JKFIT

    Orbital Energies [Eh]
    ---------------------

    Doubly Occupied:

       1A    -15.636286     2A    -15.583059     3A    -15.581067
       4A    -15.578196     5A    -11.368389     6A    -11.310558
       7A    -11.308945     8A    -11.277550     9A    -11.255373
      10A    -11.251769    11A    -11.235206    12A    -11.209956
      13A     -1.388291    14A     -1.313723    15A     -1.205089
      16A     -1.128842    17A     -1.086665    18A     -1.048908
      19A     -0.950128    20A     -0.908598    21A     -0.896870
      22A     -0.804508    23A     -0.795655    24A     -0.715371
      25A     -0.706607    26A     -0.682837    27A     -0.637767
      28A     -0.636937    29A     -0.606487    30A     -0.596227
      31A     -0.583989    32A     -0.572274    33A     -0.554702
      34A     -0.551121    35A     -0.523890    36A     -0.491731
      37A     -0.454590    38A     -0.429689    39A     -0.419373
      40A     -0.410455    41A     -0.349441    42A     -0.335533

  @DF-RHF Final Energy:  -525.53371543140952

   => Energetics <=

    Nuclear Repulsion Energy =            658.6085572578872416
    One-Electron Energy =               -2019.5192410893048418
    Two-Electron Energy =                 835.3769684000080815
    Total Energy =                       -525.5337154314095187
  Basis Set: (AUG-CC-PVTZ AUX)
    Blend: AUG-CC-PVTZ-RI
    Molecular point group: c1

    Geometry (in Angstrom), charge = 0, multiplicity = 1:

       Center              X                  Y                   Z               Mass
    ------------   -----------------  -----------------  -----------------  -----------------
         N            0.818072263529    -0.256324787257    -0.036297690881    14.003074004430
         N            1.360519263529    -1.483675787257    -0.265376690881    14.003074004430
         N           -1.079809736471     1.030258212743    -0.452042690881    14.003074004430
         N           -1.266656736471    -1.200492787257     0.430809309119    14.003074004430
         C            1.829762363529     0.670506512743     0.123780509119    12.000000000000
         C            2.980587263529     0.095914212743     0.009686309119    12.000000000000
         C           -0.588377736471    -0.136816787257    -0.016767690881    12.000000000000
         C            1.455914263529     2.167404212743     0.439741309119    12.000000000000
         C            2.681363263529    -1.256581787257    -0.238235690881    12.000000000000
         C           -2.419112736471     1.135517212743    -0.430149690881    12.000000000000
         C           -2.601943736471    -1.074823787257     0.405316309119    12.000000000000
         C           -3.239489736471     0.089620212743    -0.019542690881    12.000000000000
         H            3.954834263529     0.557621212743     0.101005309119     1.007825032230
         H            1.015164263529     2.681404212743    -0.416382690881     1.007825032230
         H            0.756419263529     2.263025212743     1.275095309119     1.007825032230
         H            2.388403263529     2.667227212743     0.715105309119     1.007825032230
         H            3.358126263529    -2.084505787257    -0.408160690881     1.007825032230
         H           -2.828508736471     2.084218212743    -0.771619690881     1.007825032230
         H           -3.166463736471    -1.937417787257     0.754220309119     1.007825032230
         H           -4.320703736471     0.178552212743    -0.023100690881     1.007825032230

  Basis Set: AUG-CC-PVTZ
    Blend: AUG-CC-PVTZ
  Basis Set: (AUG-CC-PVTZ AUX)
    Blend: AUG-CC-PVTZ-JKFIT
	 Reference Energy          =    -525.5337154314095187 [Eh]
	 Singles Energy            =      -0.0000000000000000 [Eh]
	 Same-Spin Energy          =      -0.5759251829862542 [Eh]
	 Opposite-Spin Energy      =      -1.7369336551712840 [Eh]
	 Correlation Energy        =      -2.3128588381575383 [Eh]
	 Total Energy              =    -527.8465742695670997 [Eh]

	 ================> DF-SCS-MP2 Energies <==================
	-----------------------------------------------------------
	 SCS Same-Spin Scale       =       0.3333333333333333 [-]
	 SCS Opposite-Spin Scale   =       1.2000000000000000 [-]
	 SCS Same-Spin Energy      =      -0.1919750609954181 [Eh]
	 SCS Opposite-Spin Energy  =      -2.0843203862055408 [Eh]
	 SCS Correlation Energy    =      -2.2762954472009591 [Eh]
	 SCS Total Energy          =    -527.8100108786104556 [Eh]
	-----------------------------------------------------------

  Dipole Moment: [D]
     X:    -2.4114      Y:     2.4856      Z:     0.4192     Total:     3.4883

*** Psi4 exiting successfully. Buy a developer a beer!
