                               Psi4 1.4a3.dev225

  ==> Input File <==

--------------------------------------------------------------------------
#psi4
#
memory 32 gb

molecule  {
0 1
  N        0.8160970    -0.2990240    -0.0443680
  N        1.3585440    -1.5263750    -0.2734470
  N       -1.0817850     0.9875590    -0.4601130
  N       -1.2686320    -1.2431920     0.4227390
  C        1.7597130     0.6951090     0.1272320
  C        2.9786120     0.0532150     0.0016160
  C       -0.5903530    -0.1795160    -0.0248380
  C        1.4539390     2.1247050     0.4316710
  C        2.6793880    -1.2992810    -0.2463060
  C       -2.4210880     1.0928180    -0.4382200
  C       -2.6039190    -1.1175230     0.3972460
  C       -3.2414650     0.0469210    -0.0276130
  H        3.9528590     0.5149220     0.0929350
  H        1.0131890     2.6387050    -0.4244530
  H        0.7544440     2.2203260     1.2670250
  H        2.3864280     2.6245280     0.7070350
  H        3.3561510    -2.1272050    -0.4162310
  H       -2.8304840     2.0415190    -0.7796900
  H       -3.1943739    -2.0197459     0.7621792
  H       -4.3226790     0.1358530    -0.0311710
units angstrom
no_reorient  #important for SAPT in psi4, default
symmetry c1  #important for SAPT in psi4, default
}

set PROPERTIES_ORIGIN ["COM"]
properties('MP2/aug-cc-pvtz', properties = ['dipole'])
--------------------------------------------------------------------------

    Molecular point group: c1
  Charge       = 0
  Multiplicity = 1
  Basis Set: AUG-CC-PVTZ
    Blend: AUG-CC-PVTZ
  Basis Set: (AUG-CC-PVTZ AUX)
    Blend: AUG-CC-PVTZ-JKFIT

    Orbital Energies [Eh]
    ---------------------

    Doubly Occupied:

       1A    -15.642279     2A    -15.582547     3A    -15.581570
       4A    -15.579130     5A    -11.367795     6A    -11.314936
       7A    -11.311813     8A    -11.286864     9A    -11.254646
      10A    -11.253118    11A    -11.234788    12A    -11.217418
      13A     -1.386495    14A     -1.312747    15A     -1.205997
      16A     -1.129403    17A     -1.084160    18A     -1.044970
      19A     -0.958890    20A     -0.906321    21A     -0.896207
      22A     -0.799825    23A     -0.792951    24A     -0.713240
      25A     -0.705916    26A     -0.682375    27A     -0.638106
      28A     -0.631953    29A     -0.604600    30A     -0.588316
      31A     -0.583849    32A     -0.575296    33A     -0.564041
      34A     -0.552820    35A     -0.536009    36A     -0.491906
      37A     -0.455150    38A     -0.430728    39A     -0.419808
      40A     -0.407906    41A     -0.338221    42A     -0.332482

  @DF-RHF Final Energy:  -525.54113111384618

   => Energetics <=

    Nuclear Repulsion Energy =            658.0117023098833897
    One-Electron Energy =               -2018.3104856217814813
    Two-Electron Energy =                 834.7576521980520283
    Total Energy =                       -525.5411311138461770
  Basis Set: (AUG-CC-PVTZ AUX)
    Blend: AUG-CC-PVTZ-RI
    Molecular point group: c1

    Geometry (in Angstrom), charge = 0, multiplicity = 1:

       Center              X                  Y                   Z               Mass
    ------------   -----------------  -----------------  -----------------  -----------------
         N            0.823338717302    -0.261120551118    -0.037262340758    14.003074004430
         N            1.365785717302    -1.488471551118    -0.266341340758    14.003074004430
         N           -1.074543282698     1.025462448882    -0.453007340758    14.003074004430
         N           -1.261390282698    -1.205288551118     0.429844659242    14.003074004430
         C            1.766954717302     0.733012448882     0.134337659242    12.000000000000
         C            2.985853717302     0.091118448882     0.008721659242    12.000000000000
         C           -0.583111282698    -0.141612551118    -0.017732340758    12.000000000000
         C            1.461180717302     2.162608448882     0.438776659242    12.000000000000
         C            2.686629717302    -1.261377551118    -0.239200340758    12.000000000000
         C           -2.413846282698     1.130721448882    -0.431114340758    12.000000000000
         C           -2.596677282698    -1.079619551118     0.404351659242    12.000000000000
         C           -3.234223282698     0.084824448882    -0.020507340758    12.000000000000
         H            3.960100717302     0.552825448882     0.100040659242     1.007825032230
         H            1.020430717302     2.676608448882    -0.417347340758     1.007825032230
         H            0.761685717302     2.258229448882     1.274130659242     1.007825032230
         H            2.393669717302     2.662431448882     0.714140659242     1.007825032230
         H            3.363392717302    -2.089301551118    -0.409125340758     1.007825032230
         H           -2.823242282698     2.079422448882    -0.772584340758     1.007825032230
         H           -3.187132182698    -1.981842451118     0.769284859242     1.007825032230
         H           -4.315437282698     0.173756448882    -0.024065340758     1.007825032230

  Basis Set: AUG-CC-PVTZ
    Blend: AUG-CC-PVTZ
  Basis Set: (AUG-CC-PVTZ AUX)
    Blend: AUG-CC-PVTZ-JKFIT
	 Reference Energy          =    -525.5411311138461770 [Eh]
	 Singles Energy            =      -0.0000000000000000 [Eh]
	 Same-Spin Energy          =      -0.5776875562876751 [Eh]
	 Opposite-Spin Energy      =      -1.7390678652450688 [Eh]
	 Correlation Energy        =      -2.3167554215327439 [Eh]
	 Total Energy              =    -527.8578865353789524 [Eh]

	 ================> DF-SCS-MP2 Energies <==================
	-----------------------------------------------------------
	 SCS Same-Spin Scale       =       0.3333333333333333 [-]
	 SCS Opposite-Spin Scale   =       1.2000000000000000 [-]
	 SCS Same-Spin Energy      =      -0.1925625187625584 [Eh]
	 SCS Opposite-Spin Energy  =      -2.0868814382940823 [Eh]
	 SCS Correlation Energy    =      -2.2794439570566407 [Eh]
	 SCS Total Energy          =    -527.8205750709028052 [Eh]
	-----------------------------------------------------------

  Dipole Moment: [D]
     X:    -2.5598      Y:     2.5632      Z:     0.4364     Total:     3.6487

*** Psi4 exiting successfully. Buy a developer a beer!
