                               Psi4 1.3.2 release

  ==> Input File <==

--------------------------------------------------------------------------
#psi4
#
memory 32 gb

molecule  {
0 1
  N        0.8160970    -0.2990240    -0.0443680
  N        1.3585440    -1.5263750    -0.2734470
  N       -1.0817850     0.9875590    -0.4601130
  N       -1.2686320    -1.2431920     0.4227390
  C        1.7170566     0.6101222     0.1104941
  C        2.9786120     0.0532150     0.0016160
  C       -0.5903530    -0.1795160    -0.0248380
  C        1.4539390     2.1247050     0.4316710
  C        2.6793880    -1.2992810    -0.2463060
  C       -2.4210880     1.0928180    -0.4382200
  C       -2.6039190    -1.1175230     0.3972460
  C       -3.2414650     0.0469210    -0.0276130
  H        3.9528590     0.5149220     0.0929350
  H        1.0131890     2.6387050    -0.4244530
  H        0.7544440     2.2203260     1.2670250
  H        2.3864280     2.6245280     0.7070350
  H        3.3561510    -2.1272050    -0.4162310
  H       -2.8304840     2.0415190    -0.7796900
  H       -3.1684390    -1.9801170     0.7461500
  H       -4.3226790     0.1358530    -0.0311710
units angstrom
no_reorient  #important for SAPT in psi4, default
symmetry c1  #important for SAPT in psi4, default
}

set PROPERTIES_ORIGIN ["COM"]
properties('MP2/aug-cc-pvtz', properties = ['dipole'])
--------------------------------------------------------------------------

    Molecular point group: c1
  Charge       = 0
  Multiplicity = 1
  Basis Set: AUG-CC-PVTZ
    Blend: AUG-CC-PVTZ
  Basis Set: (AUG-CC-PVTZ AUX)
    Blend: AUG-CC-PVTZ-JKFIT

    Orbital Energies [Eh]
    ---------------------

    Doubly Occupied:

       1A    -15.645126     2A    -15.586504     3A    -15.582951
       4A    -15.571967     5A    -11.372078     6A    -11.314251
       7A    -11.312303     8A    -11.280864     9A    -11.256347
      10A    -11.253187    11A    -11.236348    12A    -11.210653
      13A     -1.404478    14A     -1.318686    15A     -1.209706
      16A     -1.135884    17A     -1.083369    18A     -1.046464
      19A     -0.948429    20A     -0.912309    21A     -0.906682
      22A     -0.807880    23A     -0.801978    24A     -0.716546
      25A     -0.706042    26A     -0.680483    27A     -0.647037
      28A     -0.636525    29A     -0.608702    30A     -0.597548
      31A     -0.586189    32A     -0.574435    33A     -0.562816
      34A     -0.553676    35A     -0.512138    36A     -0.494662
      37A     -0.452593    38A     -0.432988    39A     -0.422518
      40A     -0.409702    41A     -0.347323    42A     -0.328240

  @DF-RHF Final Energy:  -525.53640838301578

   => Energetics <=

    Nuclear Repulsion Energy =            659.8971517134962141
    One-Electron Energy =               -2021.9299091654652329
    Two-Electron Energy =                 836.4963490689532364
    Total Energy =                       -525.5364083830157824
  Basis Set: (AUG-CC-PVTZ AUX)
    Blend: AUG-CC-PVTZ-RI
    Molecular point group: c1

    Geometry (in Angstrom), charge = 0, multiplicity = 1:

       Center              X                  Y                   Z               Mass
    ------------   -----------------  -----------------  -----------------  -----------------
         N            0.826373165362    -0.254999025348    -0.035906666420    14.003074004430
         N            1.368820165362    -1.482350025348    -0.264985666420    14.003074004430
         N           -1.071508834638     1.031583974652    -0.451651666420    14.003074004430
         N           -1.258355834638    -1.199167025348     0.431200333580    14.003074004430
         C            1.727332765362     0.654147174652     0.118955433580    12.000000000000
         C            2.988888165362     0.097239974652     0.010077333580    12.000000000000
         C           -0.580076834638    -0.135491025348    -0.016376666420    12.000000000000
         C            1.464215165362     2.168729974652     0.440132333580    12.000000000000
         C            2.689664165362    -1.255256025348    -0.237844666420    12.000000000000
         C           -2.410811834638     1.136842974652    -0.429758666420    12.000000000000
         C           -2.593642834638    -1.073498025348     0.405707333580    12.000000000000
         C           -3.231188834638     0.090945974652    -0.019151666420    12.000000000000
         H            3.963135165362     0.558946974652     0.101396333580     1.007825032230
         H            1.023465165362     2.682729974652    -0.415991666420     1.007825032230
         H            0.764720165362     2.264350974652     1.275486333580     1.007825032230
         H            2.396704165362     2.668552974652     0.715496333580     1.007825032230
         H            3.366427165362    -2.083180025348    -0.407769666420     1.007825032230
         H           -2.820207834638     2.085543974652    -0.771228666420     1.007825032230
         H           -3.158162834638    -1.936092025348     0.754611333580     1.007825032230
         H           -4.312402834638     0.179877974652    -0.022709666420     1.007825032230

  Basis Set: AUG-CC-PVTZ
    Blend: AUG-CC-PVTZ
  Basis Set: (AUG-CC-PVTZ AUX)
    Blend: AUG-CC-PVTZ-JKFIT
	 Reference Energy          =    -525.5364083830157824 [Eh]
	 Singles Energy            =      -0.0000000000000000 [Eh]
	 Same-Spin Energy          =      -0.5765429955021589 [Eh]
	 Opposite-Spin Energy      =      -1.7365444557673926 [Eh]
	 Correlation Energy        =      -2.3130874512695514 [Eh]
	 Total Energy              =    -527.8494958342853351 [Eh]

	 ================> DF-SCS-MP2 Energies <==================
	-----------------------------------------------------------
	 SCS Same-Spin Scale       =       0.3333333333333333 [-]
	 SCS Opposite-Spin Scale   =       1.2000000000000000 [-]
	 SCS Same-Spin Energy      =      -0.1921809985007196 [Eh]
	 SCS Opposite-Spin Energy  =      -2.0838533469208711 [Eh]
	 SCS Correlation Energy    =      -2.2760343454215906 [Eh]
	 SCS Total Energy          =    -527.8124427284374178 [Eh]
	-----------------------------------------------------------

  Dipole Moment: [D]
     X:    -2.8883      Y:     2.5052      Z:     0.4279     Total:     3.8473

*** Psi4 exiting successfully. Buy a developer a beer!
