                               Psi4 1.4a3.dev225

  ==> Input File <==

--------------------------------------------------------------------------
#psi4
#
memory 32 gb

molecule  {
0 1
  N        0.8160970    -0.2990240    -0.0443680
  N        1.3585440    -1.5263750    -0.2734470
  N       -1.0817850     0.9875590    -0.4601130
  N       -1.2686320    -1.2431920     0.4227390
  C        1.7597130     0.6951090     0.1272320
  C        2.9786120     0.0532150     0.0016160
  C       -0.6087031    -0.1359373    -0.0410912
  C        1.4539390     2.1247050     0.4316710
  C        2.6793880    -1.2992810    -0.2463060
  C       -2.4210880     1.0928180    -0.4382200
  C       -2.6039190    -1.1175230     0.3972460
  C       -3.2414650     0.0469210    -0.0276130
  H        3.9528590     0.5149220     0.0929350
  H        1.0131890     2.6387050    -0.4244530
  H        0.7544440     2.2203260     1.2670250
  H        2.3864280     2.6245280     0.7070350
  H        3.3561510    -2.1272050    -0.4162310
  H       -2.8304840     2.0415190    -0.7796900
  H       -3.1684390    -1.9801170     0.7461500
  H       -4.3226790     0.1358530    -0.0311710
units angstrom
no_reorient  #important for SAPT in psi4, default
symmetry c1  #important for SAPT in psi4, default
}

set PROPERTIES_ORIGIN ["COM"]
properties('MP2/aug-cc-pvtz', properties = ['dipole'])
--------------------------------------------------------------------------

    Molecular point group: c1
  Charge       = 0
  Multiplicity = 1
  Basis Set: AUG-CC-PVTZ
    Blend: AUG-CC-PVTZ
  Basis Set: (AUG-CC-PVTZ AUX)
    Blend: AUG-CC-PVTZ-JKFIT

    Orbital Energies [Eh]
    ---------------------

    Doubly Occupied:

       1A    -15.639819     2A    -15.582267     3A    -15.582204
       4A    -15.579956     5A    -11.366974     6A    -11.314152
       7A    -11.309824     8A    -11.283607     9A    -11.255001
      10A    -11.252242    11A    -11.234248    12A    -11.214856
      13A     -1.382953    14A     -1.318996    15A     -1.210490
      16A     -1.126100    17A     -1.082413    18A     -1.044492
      19A     -0.957596    20A     -0.914043    21A     -0.893889
      22A     -0.799236    23A     -0.791061    24A     -0.717375
      25A     -0.705838    26A     -0.680941    27A     -0.637361
      28A     -0.633580    29A     -0.608765    30A     -0.587755
      31A     -0.585961    32A     -0.576882    33A     -0.562689
      34A     -0.552771    35A     -0.534646    36A     -0.492501
      37A     -0.454213    38A     -0.434365    39A     -0.423103
      40A     -0.405891    41A     -0.338664    42A     -0.330260

  @DF-RHF Final Energy:  -525.54070672353907

   => Energetics <=

    Nuclear Repulsion Energy =            658.3210951051174789
    One-Electron Energy =               -2018.9236479342455368
    Two-Electron Energy =                 835.0618461055888702
    Total Energy =                       -525.5407067235390741
  Basis Set: (AUG-CC-PVTZ AUX)
    Blend: AUG-CC-PVTZ-RI
    Molecular point group: c1

    Geometry (in Angstrom), charge = 0, multiplicity = 1:

       Center              X                  Y                   Z               Mass
    ------------   -----------------  -----------------  -----------------  -----------------
         N            0.824551045800    -0.264636926330    -0.035943001912    14.003074004430
         N            1.366998045800    -1.491987926330    -0.265022001912    14.003074004430
         N           -1.073330954200     1.021946073670    -0.451688001912    14.003074004430
         N           -1.260177954200    -1.208804926330     0.431163998088    14.003074004430
         C            1.768167045800     0.729496073670     0.135656998088    12.000000000000
         C            2.987066045800     0.087602073670     0.010040998088    12.000000000000
         C           -0.600249054200    -0.101550226330    -0.032666201912    12.000000000000
         C            1.462393045800     2.159092073670     0.440095998088    12.000000000000
         C            2.687842045800    -1.264893926330    -0.237881001912    12.000000000000
         C           -2.412633954200     1.127205073670    -0.429795001912    12.000000000000
         C           -2.595464954200    -1.083135926330     0.405670998088    12.000000000000
         C           -3.233010954200     0.081308073670    -0.019188001912    12.000000000000
         H            3.961313045800     0.549309073670     0.101359998088     1.007825032230
         H            1.021643045800     2.673092073670    -0.416028001912     1.007825032230
         H            0.762898045800     2.254713073670     1.275449998088     1.007825032230
         H            2.394882045800     2.658915073670     0.715459998088     1.007825032230
         H            3.364605045800    -2.092817926330    -0.407806001912     1.007825032230
         H           -2.822029954200     2.075906073670    -0.771265001912     1.007825032230
         H           -3.159984954200    -1.945729926330     0.754574998088     1.007825032230
         H           -4.314224954200     0.170240073670    -0.022746001912     1.007825032230

  Basis Set: AUG-CC-PVTZ
    Blend: AUG-CC-PVTZ
  Basis Set: (AUG-CC-PVTZ AUX)
    Blend: AUG-CC-PVTZ-JKFIT
	 Reference Energy          =    -525.5407067235390741 [Eh]
	 Singles Energy            =      -0.0000000000000000 [Eh]
	 Same-Spin Energy          =      -0.5774192339686955 [Eh]
	 Opposite-Spin Energy      =      -1.7386141755986149 [Eh]
	 Correlation Energy        =      -2.3160334095673103 [Eh]
	 Total Energy              =    -527.8567401331064275 [Eh]

	 ================> DF-SCS-MP2 Energies <==================
	-----------------------------------------------------------
	 SCS Same-Spin Scale       =       0.3333333333333333 [-]
	 SCS Opposite-Spin Scale   =       1.2000000000000000 [-]
	 SCS Same-Spin Energy      =      -0.1924730779895652 [Eh]
	 SCS Opposite-Spin Energy  =      -2.0863370107183377 [Eh]
	 SCS Correlation Energy    =      -2.2788100887079028 [Eh]
	 SCS Total Energy          =    -527.8195168122470022 [Eh]
	-----------------------------------------------------------

  Dipole Moment: [D]
     X:    -2.8023      Y:     2.6125      Z:     0.4143     Total:     3.8535

*** Psi4 exiting successfully. Buy a developer a beer!
