                               Psi4 1.3.2 release

  ==> Input File <==

--------------------------------------------------------------------------
#psi4
#
memory 32 gb

molecule  {
0 1
  N        0.8160970    -0.2990240    -0.0443680
  N        1.3585440    -1.5263750    -0.2734470
  N       -1.0817850     0.9875590    -0.4601130
  N       -1.2686320    -1.2431920     0.4227390
  C        1.7029616     0.7219969    -0.0159038
  C        2.9786120     0.0532150     0.0016160
  C       -0.5903530    -0.1795160    -0.0248380
  C        1.4539390     2.1247050     0.4316710
  C        2.6793880    -1.2992810    -0.2463060
  C       -2.4210880     1.0928180    -0.4382200
  C       -2.6039190    -1.1175230     0.3972460
  C       -3.2414650     0.0469210    -0.0276130
  H        3.9528590     0.5149220     0.0929350
  H        1.0131890     2.6387050    -0.4244530
  H        0.7544440     2.2203260     1.2670250
  H        2.3864280     2.6245280     0.7070350
  H        3.3561510    -2.1272050    -0.4162310
  H       -2.8304840     2.0415190    -0.7796900
  H       -3.1684390    -1.9801170     0.7461500
  H       -4.3226790     0.1358530    -0.0311710
units angstrom
no_reorient  #important for SAPT in psi4, default
symmetry c1  #important for SAPT in psi4, default
}

set PROPERTIES_ORIGIN ["COM"]
properties('MP2/aug-cc-pvtz', properties = ['dipole'])
--------------------------------------------------------------------------

    Molecular point group: c1
  Charge       = 0
  Multiplicity = 1
  Basis Set: AUG-CC-PVTZ
    Blend: AUG-CC-PVTZ
  Basis Set: (AUG-CC-PVTZ AUX)
    Blend: AUG-CC-PVTZ-JKFIT

    Orbital Energies [Eh]
    ---------------------

    Doubly Occupied:

       1A    -15.648177     2A    -15.583996     3A    -15.579913
       4A    -15.578901     5A    -11.368448     6A    -11.312842
       7A    -11.310630     8A    -11.290607     9A    -11.254517
      10A    -11.253763    11A    -11.235213    12A    -11.220716
      13A     -1.391524    14A     -1.313933    15A     -1.207591
      16A     -1.133269    17A     -1.081973    18A     -1.043120
      19A     -0.956723    20A     -0.910135    21A     -0.899371
      22A     -0.798722    23A     -0.798619    24A     -0.712564
      25A     -0.706164    26A     -0.680960    27A     -0.643265
      28A     -0.632794    29A     -0.607724    30A     -0.588632
      31A     -0.586777    32A     -0.579995    33A     -0.571431
      34A     -0.551708    35A     -0.520973    36A     -0.491895
      37A     -0.454923    38A     -0.431774    39A     -0.421438
      40A     -0.408447    41A     -0.341448    42A     -0.322757

  @DF-RHF Final Energy:  -525.53169103013556

   => Energetics <=

    Nuclear Repulsion Energy =            658.5045319633392182
    One-Electron Energy =               -2019.2156981929585982
    Two-Electron Energy =                 835.1794751994837043
    Total Energy =                       -525.5316910301355620
  Basis Set: (AUG-CC-PVTZ AUX)
    Blend: AUG-CC-PVTZ-RI
    Molecular point group: c1

    Geometry (in Angstrom), charge = 0, multiplicity = 1:

       Center              X                  Y                   Z               Mass
    ------------   -----------------  -----------------  -----------------  -----------------
         N            0.827429795752    -0.263385702030    -0.026431259375    14.003074004430
         N            1.369876795752    -1.490736702030    -0.255510259375    14.003074004430
         N           -1.070452204248     1.023197297970    -0.442176259375    14.003074004430
         N           -1.257299204248    -1.207553702030     0.440675740625    14.003074004430
         C            1.714294395752     0.757635197970     0.002032940625    12.000000000000
         C            2.989944795752     0.088853297970     0.019552740625    12.000000000000
         C           -0.579020204248    -0.143877702030    -0.006901259375    12.000000000000
         C            1.465271795752     2.160343297970     0.449607740625    12.000000000000
         C            2.690720795752    -1.263642702030    -0.228369259375    12.000000000000
         C           -2.409755204248     1.128456297970    -0.420283259375    12.000000000000
         C           -2.592586204248    -1.081884702030     0.415182740625    12.000000000000
         C           -3.230132204248     0.082559297970    -0.009676259375    12.000000000000
         H            3.964191795752     0.550560297970     0.110871740625     1.007825032230
         H            1.024521795752     2.674343297970    -0.406516259375     1.007825032230
         H            0.765776795752     2.255964297970     1.284961740625     1.007825032230
         H            2.397760795752     2.660166297970     0.724971740625     1.007825032230
         H            3.367483795752    -2.091566702030    -0.398294259375     1.007825032230
         H           -2.819151204248     2.077157297970    -0.761753259375     1.007825032230
         H           -3.157106204248    -1.944478702030     0.764086740625     1.007825032230
         H           -4.311346204248     0.171491297970    -0.013234259375     1.007825032230

  Basis Set: AUG-CC-PVTZ
    Blend: AUG-CC-PVTZ
  Basis Set: (AUG-CC-PVTZ AUX)
    Blend: AUG-CC-PVTZ-JKFIT
	 Reference Energy          =    -525.5316910301355620 [Eh]
	 Singles Energy            =      -0.0000000000000000 [Eh]
	 Same-Spin Energy          =      -0.5786377364437132 [Eh]
	 Opposite-Spin Energy      =      -1.7403670958332322 [Eh]
	 Correlation Energy        =      -2.3190048322769456 [Eh]
	 Total Energy              =    -527.8506958624125218 [Eh]

	 ================> DF-SCS-MP2 Energies <==================
	-----------------------------------------------------------
	 SCS Same-Spin Scale       =       0.3333333333333333 [-]
	 SCS Opposite-Spin Scale   =       1.2000000000000000 [-]
	 SCS Same-Spin Energy      =      -0.1928792454812377 [Eh]
	 SCS Opposite-Spin Energy  =      -2.0884405149998786 [Eh]
	 SCS Correlation Energy    =      -2.2813197604811162 [Eh]
	 SCS Total Energy          =    -527.8130107906166586 [Eh]
	-----------------------------------------------------------

  Dipole Moment: [D]
     X:    -2.6756      Y:     2.4763      Z:     0.4932     Total:     3.6788

*** Psi4 exiting successfully. Buy a developer a beer!
