                               Psi4 1.3.2 release

  ==> Input File <==

--------------------------------------------------------------------------
#psi4
#
memory 32 gb

molecule  {
0 1
  N        0.8160970    -0.2990240    -0.0443680
  N        1.2701287    -1.5605437    -0.2800367
  N       -1.0817850     0.9875590    -0.4601130
  N       -1.2686320    -1.2431920     0.4227390
  C        1.7597130     0.6951090     0.1272320
  C        2.9786120     0.0532150     0.0016160
  C       -0.5903530    -0.1795160    -0.0248380
  C        1.4539390     2.1247050     0.4316710
  C        2.6793880    -1.2992810    -0.2463060
  C       -2.4210880     1.0928180    -0.4382200
  C       -2.6039190    -1.1175230     0.3972460
  C       -3.2414650     0.0469210    -0.0276130
  H        3.9528590     0.5149220     0.0929350
  H        1.0131890     2.6387050    -0.4244530
  H        0.7544440     2.2203260     1.2670250
  H        2.3864280     2.6245280     0.7070350
  H        3.3561510    -2.1272050    -0.4162310
  H       -2.8304840     2.0415190    -0.7796900
  H       -3.1684390    -1.9801170     0.7461500
  H       -4.3226790     0.1358530    -0.0311710
units angstrom
no_reorient  #important for SAPT in psi4, default
symmetry c1  #important for SAPT in psi4, default
}

set PROPERTIES_ORIGIN ["COM"]
properties('MP2/aug-cc-pvtz', properties = ['dipole'])
--------------------------------------------------------------------------

    Molecular point group: c1
  Charge       = 0
  Multiplicity = 1
  Basis Set: AUG-CC-PVTZ
    Blend: AUG-CC-PVTZ
  Basis Set: (AUG-CC-PVTZ AUX)
    Blend: AUG-CC-PVTZ-JKFIT

    Orbital Energies [Eh]
    ---------------------

    Doubly Occupied:

       1A    -15.646639     2A    -15.591080     3A    -15.581939
       4A    -15.578041     5A    -11.365381     6A    -11.310845
       7A    -11.308914     8A    -11.289482     9A    -11.264531
      10A    -11.252436    11A    -11.236641    12A    -11.223005
      13A     -1.382664    14A     -1.307997    15A     -1.205606
      16A     -1.114546    17A     -1.087258    18A     -1.041496
      19A     -0.960783    20A     -0.908079    21A     -0.894605
      22A     -0.800092    23A     -0.794177    24A     -0.712853
      25A     -0.704010    26A     -0.680270    27A     -0.636568
      28A     -0.631544    29A     -0.607061    30A     -0.589131
      31A     -0.583561    32A     -0.572840    33A     -0.562049
      34A     -0.549674    35A     -0.534119    36A     -0.491320
      37A     -0.464340    38A     -0.429823    39A     -0.419690
      40A     -0.403043    41A     -0.340078    42A     -0.323063

  @DF-RHF Final Energy:  -525.52459301368492

   => Energetics <=

    Nuclear Repulsion Energy =            657.2841666347678711
    One-Electron Energy =               -2016.8549729536314317
    Two-Electron Energy =                 834.0462133051786395
    Total Energy =                       -525.5245930136849211
  Basis Set: (AUG-CC-PVTZ AUX)
    Blend: AUG-CC-PVTZ-RI
    Molecular point group: c1

    Geometry (in Angstrom), charge = 0, multiplicity = 1:

       Center              X                  Y                   Z               Mass
    ------------   -----------------  -----------------  -----------------  -----------------
         N            0.830909849164    -0.258381034507    -0.036584966052    14.003074004430
         N            1.284941549164    -1.519900734507    -0.272253666052    14.003074004430
         N           -1.066972150836     1.028201965493    -0.452329966052    14.003074004430
         N           -1.253819150836    -1.202549034507     0.430522033948    14.003074004430
         C            1.774525849164     0.735751965493     0.135015033948    12.000000000000
         C            2.993424849164     0.093857965493     0.009399033948    12.000000000000
         C           -0.575540150836    -0.138873034507    -0.017054966052    12.000000000000
         C            1.468751849164     2.165347965493     0.439454033948    12.000000000000
         C            2.694200849164    -1.258638034507    -0.238522966052    12.000000000000
         C           -2.406275150836     1.133460965493    -0.430436966052    12.000000000000
         C           -2.589106150836    -1.076880034507     0.405029033948    12.000000000000
         C           -3.226652150836     0.087563965493    -0.019829966052    12.000000000000
         H            3.967671849164     0.555564965493     0.100718033948     1.007825032230
         H            1.028001849164     2.679347965493    -0.416669966052     1.007825032230
         H            0.769256849164     2.260968965493     1.274808033948     1.007825032230
         H            2.401240849164     2.665170965493     0.714818033948     1.007825032230
         H            3.370963849164    -2.086562034507    -0.408447966052     1.007825032230
         H           -2.815671150836     2.082161965493    -0.771906966052     1.007825032230
         H           -3.153626150836    -1.939474034507     0.753933033948     1.007825032230
         H           -4.307866150836     0.176495965493    -0.023387966052     1.007825032230

  Basis Set: AUG-CC-PVTZ
    Blend: AUG-CC-PVTZ
  Basis Set: (AUG-CC-PVTZ AUX)
    Blend: AUG-CC-PVTZ-JKFIT
	 Reference Energy          =    -525.5245930136849211 [Eh]
	 Singles Energy            =      -0.0000000000000000 [Eh]
	 Same-Spin Energy          =      -0.5809296849330665 [Eh]
	 Opposite-Spin Energy      =      -1.7452585615214544 [Eh]
	 Correlation Energy        =      -2.3261882464545209 [Eh]
	 Total Energy              =    -527.8507812601394562 [Eh]

	 ================> DF-SCS-MP2 Energies <==================
	-----------------------------------------------------------
	 SCS Same-Spin Scale       =       0.3333333333333333 [-]
	 SCS Opposite-Spin Scale   =       1.2000000000000000 [-]
	 SCS Same-Spin Energy      =      -0.1936432283110222 [Eh]
	 SCS Opposite-Spin Energy  =      -2.0943102738257453 [Eh]
	 SCS Correlation Energy    =      -2.2879535021367676 [Eh]
	 SCS Total Energy          =    -527.8125465158217366 [Eh]
	-----------------------------------------------------------

  Dipole Moment: [D]
     X:    -2.5542      Y:     2.6749      Z:     0.4734     Total:     3.7287

*** Psi4 exiting successfully. Buy a developer a beer!
