                               Psi4 1.3.2 release

  ==> Input File <==

--------------------------------------------------------------------------
#psi4
#
memory 32 gb

molecule  {
0 1
  N        0.8160970    -0.2990240    -0.0443680
  N        1.3585440    -1.5263750    -0.2734470
  N       -1.0817850     0.9875590    -0.4601130
  N       -1.2686320    -1.2431920     0.4227390
  C        1.8280236     0.7670766     0.1396545
  C        2.9786120     0.0532150     0.0016160
  C       -0.5903530    -0.1795160    -0.0248380
  C        1.4539390     2.1247050     0.4316710
  C        2.6793880    -1.2992810    -0.2463060
  C       -2.4210880     1.0928180    -0.4382200
  C       -2.6039190    -1.1175230     0.3972460
  C       -3.2414650     0.0469210    -0.0276130
  H        3.9528590     0.5149220     0.0929350
  H        1.0131890     2.6387050    -0.4244530
  H        0.7544440     2.2203260     1.2670250
  H        2.3864280     2.6245280     0.7070350
  H        3.3561510    -2.1272050    -0.4162310
  H       -2.8304840     2.0415190    -0.7796900
  H       -3.1684390    -1.9801170     0.7461500
  H       -4.3226790     0.1358530    -0.0311710
units angstrom
no_reorient  #important for SAPT in psi4, default
symmetry c1  #important for SAPT in psi4, default
}

set PROPERTIES_ORIGIN ["COM"]
properties('MP2/aug-cc-pvtz', properties = ['dipole'])
--------------------------------------------------------------------------

    Molecular point group: c1
  Charge       = 0
  Multiplicity = 1
  Basis Set: AUG-CC-PVTZ
    Blend: AUG-CC-PVTZ
  Basis Set: (AUG-CC-PVTZ AUX)
    Blend: AUG-CC-PVTZ-JKFIT

    Orbital Energies [Eh]
    ---------------------

    Doubly Occupied:

       1A    -15.634736     2A    -15.591135     3A    -15.577942
       4A    -15.574146     5A    -11.362567     6A    -11.308448
       7A    -11.306387     8A    -11.290994     9A    -11.255835
      10A    -11.248741    11A    -11.233764    12A    -11.223437
      13A     -1.372506    14A     -1.306839    15A     -1.202006
      16A     -1.123121    17A     -1.091296    18A     -1.041689
      19A     -0.968313    20A     -0.905636    21A     -0.887658
      22A     -0.798867    23A     -0.781909    24A     -0.714216
      25A     -0.706126    26A     -0.683142    27A     -0.633132
      28A     -0.629780    29A     -0.606054    30A     -0.589998
      31A     -0.587557    32A     -0.576427    33A     -0.564803
      34A     -0.549859    35A     -0.545920    36A     -0.486444
      37A     -0.455209    38A     -0.427663    39A     -0.417134
      40A     -0.406561    41A     -0.341922    42A     -0.326589

  @DF-RHF Final Energy:  -525.52971188506206

   => Energetics <=

    Nuclear Repulsion Energy =            656.7441649025954575
    One-Electron Energy =               -2015.8747310487458435
    Two-Electron Energy =                 833.6008542610883296
    Total Energy =                       -525.5297118850620564
  Basis Set: (AUG-CC-PVTZ AUX)
    Blend: AUG-CC-PVTZ-RI
    Molecular point group: c1

    Geometry (in Angstrom), charge = 0, multiplicity = 1:

       Center              X                  Y                   Z               Mass
    ------------   -----------------  -----------------  -----------------  -----------------
         N            0.818054534328    -0.266765097629    -0.038092673147    14.003074004430
         N            1.360501534328    -1.494116097629    -0.267171673147    14.003074004430
         N           -1.079827465672     1.019817902371    -0.453837673147    14.003074004430
         N           -1.266674465672    -1.210933097629     0.429014326853    14.003074004430
         C            1.829981134328     0.799335502371     0.145929826853    12.000000000000
         C            2.980569534328     0.085473902371     0.007891326853    12.000000000000
         C           -0.588395465672    -0.147257097629    -0.018562673147    12.000000000000
         C            1.455896534328     2.156963902371     0.437946326853    12.000000000000
         C            2.681345534328    -1.267022097629    -0.240030673147    12.000000000000
         C           -2.419130465672     1.125076902371    -0.431944673147    12.000000000000
         C           -2.601961465672    -1.085264097629     0.403521326853    12.000000000000
         C           -3.239507465672     0.079179902371    -0.021337673147    12.000000000000
         H            3.954816534328     0.547180902371     0.099210326853     1.007825032230
         H            1.015146534328     2.670963902371    -0.418177673147     1.007825032230
         H            0.756401534328     2.252584902371     1.273300326853     1.007825032230
         H            2.388385534328     2.656786902371     0.713310326853     1.007825032230
         H            3.358108534328    -2.094946097629    -0.409955673147     1.007825032230
         H           -2.828526465672     2.073777902371    -0.773414673147     1.007825032230
         H           -3.166481465672    -1.947858097629     0.752425326853     1.007825032230
         H           -4.320721465672     0.168111902371    -0.024895673147     1.007825032230

  Basis Set: AUG-CC-PVTZ
    Blend: AUG-CC-PVTZ
  Basis Set: (AUG-CC-PVTZ AUX)
    Blend: AUG-CC-PVTZ-JKFIT
	 Reference Energy          =    -525.5297118850620564 [Eh]
	 Singles Energy            =      -0.0000000000000000 [Eh]
	 Same-Spin Energy          =      -0.5786153311500265 [Eh]
	 Opposite-Spin Energy      =      -1.7411984749980385 [Eh]
	 Correlation Energy        =      -2.3198138061480651 [Eh]
	 Total Energy              =    -527.8495256912101468 [Eh]

	 ================> DF-SCS-MP2 Energies <==================
	-----------------------------------------------------------
	 SCS Same-Spin Scale       =       0.3333333333333333 [-]
	 SCS Opposite-Spin Scale   =       1.2000000000000000 [-]
	 SCS Same-Spin Energy      =      -0.1928717770500088 [Eh]
	 SCS Opposite-Spin Energy  =      -2.0894381699976461 [Eh]
	 SCS Correlation Energy    =      -2.2823099470476551 [Eh]
	 SCS Total Energy          =    -527.8120218321097354 [Eh]
	-----------------------------------------------------------

  Dipole Moment: [D]
     X:    -2.2128      Y:     2.6391      Z:     0.4605     Total:     3.4747

*** Psi4 exiting successfully. Buy a developer a beer!
