                               Psi4 1.3.2 release

  ==> Input File <==

--------------------------------------------------------------------------
#psi4
#
memory 32 gb

molecule  {
0 1
  N        0.8160970    -0.2990240    -0.0443680
  N        1.3585440    -1.5263750    -0.2734470
  N       -1.0817850     0.9875590    -0.4601130
  N       -1.2686320    -1.2431920     0.4227390
  C        1.8347541     0.8169587     0.1492869
  C        2.9786120     0.0532150     0.0016160
  C       -0.5903530    -0.1795160    -0.0248380
  C        1.4539390     2.1247050     0.4316710
  C        2.6793880    -1.2992810    -0.2463060
  C       -2.4210880     1.0928180    -0.4382200
  C       -2.6039190    -1.1175230     0.3972460
  C       -3.2414650     0.0469210    -0.0276130
  H        3.9528590     0.5149220     0.0929350
  H        1.0131890     2.6387050    -0.4244530
  H        0.7544440     2.2203260     1.2670250
  H        2.3864280     2.6245280     0.7070350
  H        3.3561510    -2.1272050    -0.4162310
  H       -2.8304840     2.0415190    -0.7796900
  H       -3.1684390    -1.9801170     0.7461500
  H       -4.3226790     0.1358530    -0.0311710
units angstrom
no_reorient  #important for SAPT in psi4, default
symmetry c1  #important for SAPT in psi4, default
}

set PROPERTIES_ORIGIN ["COM"]
properties('MP2/aug-cc-pvtz', properties = ['dipole'])
--------------------------------------------------------------------------

    Molecular point group: c1
  Charge       = 0
  Multiplicity = 1
  Basis Set: AUG-CC-PVTZ
    Blend: AUG-CC-PVTZ
  Basis Set: (AUG-CC-PVTZ AUX)
    Blend: AUG-CC-PVTZ-JKFIT

    Orbital Energies [Eh]
    ---------------------

    Doubly Occupied:

       1A    -15.632623     2A    -15.594197     3A    -15.576582
       4A    -15.572469     5A    -11.360271     6A    -11.307494
       7A    -11.305281     8A    -11.295933     9A    -11.256083
      10A    -11.247448    11A    -11.232911    12A    -11.228658
      13A     -1.367539    14A     -1.304330    15A     -1.200669
      16A     -1.121579    17A     -1.096833    18A     -1.039410
      19A     -0.973218    20A     -0.904368    21A     -0.884488
      22A     -0.797261    23A     -0.776457    24A     -0.715022
      25A     -0.705217    26A     -0.683087    27A     -0.632877
      28A     -0.628092    29A     -0.607442    30A     -0.594122
      31A     -0.590007    32A     -0.579087    33A     -0.571032
      34A     -0.548230    35A     -0.539675    36A     -0.483893
      37A     -0.453624    38A     -0.426742    39A     -0.416005
      40A     -0.405242    41A     -0.340040    42A     -0.322294

  @DF-RHF Final Energy:  -525.51415441726147

   => Energetics <=

    Nuclear Repulsion Energy =            656.1024051964673163
    One-Electron Energy =               -2014.5974529403638371
    Two-Electron Energy =                 832.9808933266350550
    Total Energy =                       -525.5141544172614658
  Basis Set: (AUG-CC-PVTZ AUX)
    Blend: AUG-CC-PVTZ-RI
    Molecular point group: c1

    Geometry (in Angstrom), charge = 0, multiplicity = 1:

       Center              X                  Y                   Z               Mass
    ------------   -----------------  -----------------  -----------------  -----------------
         N            0.817549983009    -0.270504504707    -0.038814765134    14.003074004430
         N            1.359996983009    -1.497855504707    -0.267893765134    14.003074004430
         N           -1.080332016991     1.016078495293    -0.454559765134    14.003074004430
         N           -1.267179016991    -1.214672504707     0.428292234866    14.003074004430
         C            1.836207083009     0.845478195293     0.154840134866    12.000000000000
         C            2.980064983009     0.081734495293     0.007169234866    12.000000000000
         C           -0.588900016991    -0.150996504707    -0.019284765134    12.000000000000
         C            1.455391983009     2.153224495293     0.437224234866    12.000000000000
         C            2.680840983009    -1.270761504707    -0.240752765134    12.000000000000
         C           -2.419635016991     1.121337495293    -0.432666765134    12.000000000000
         C           -2.602466016991    -1.089003504707     0.402799234866    12.000000000000
         C           -3.240012016991     0.075440495293    -0.022059765134    12.000000000000
         H            3.954311983009     0.543441495293     0.098488234866     1.007825032230
         H            1.014641983009     2.667224495293    -0.418899765134     1.007825032230
         H            0.755896983009     2.248845495293     1.272578234866     1.007825032230
         H            2.387880983009     2.653047495293     0.712588234866     1.007825032230
         H            3.357603983009    -2.098685504707    -0.410677765134     1.007825032230
         H           -2.829031016991     2.070038495293    -0.774136765134     1.007825032230
         H           -3.166986016991    -1.951597504707     0.751703234866     1.007825032230
         H           -4.321226016991     0.164372495293    -0.025617765134     1.007825032230

  Basis Set: AUG-CC-PVTZ
    Blend: AUG-CC-PVTZ
  Basis Set: (AUG-CC-PVTZ AUX)
    Blend: AUG-CC-PVTZ-JKFIT
	 Reference Energy          =    -525.5141544172614658 [Eh]
	 Singles Energy            =      -0.0000000000000000 [Eh]
	 Same-Spin Energy          =      -0.5800970595564980 [Eh]
	 Opposite-Spin Energy      =      -1.7436110313617386 [Eh]
	 Correlation Energy        =      -2.3237080909182364 [Eh]
	 Total Energy              =    -527.8378625081796827 [Eh]

	 ================> DF-SCS-MP2 Energies <==================
	-----------------------------------------------------------
	 SCS Same-Spin Scale       =       0.3333333333333333 [-]
	 SCS Opposite-Spin Scale   =       1.2000000000000000 [-]
	 SCS Same-Spin Energy      =      -0.1933656865188327 [Eh]
	 SCS Opposite-Spin Energy  =      -2.0923332376340862 [Eh]
	 SCS Correlation Energy    =      -2.2856989241529186 [Eh]
	 SCS Total Energy          =    -527.7998533414144049 [Eh]
	-----------------------------------------------------------

  Dipole Moment: [D]
     X:    -2.1183      Y:     2.7104      Z:     0.4793     Total:     3.4732

*** Psi4 exiting successfully. Buy a developer a beer!
