                               Psi4 1.3.2 release

  ==> Input File <==

--------------------------------------------------------------------------
#psi4
#
memory 32 gb

molecule  {
0 1
  N        0.8518416    -0.3304539    -0.0520678
  N        1.3585440    -1.5263750    -0.2734470
  N       -1.0817850     0.9875590    -0.4601130
  N       -1.2686320    -1.2431920     0.4227390
  C        1.7597130     0.6951090     0.1272320
  C        2.9786120     0.0532150     0.0016160
  C       -0.5903530    -0.1795160    -0.0248380
  C        1.4539390     2.1247050     0.4316710
  C        2.6793880    -1.2992810    -0.2463060
  C       -2.4210880     1.0928180    -0.4382200
  C       -2.6039190    -1.1175230     0.3972460
  C       -3.2414650     0.0469210    -0.0276130
  H        3.9528590     0.5149220     0.0929350
  H        1.0131890     2.6387050    -0.4244530
  H        0.7544440     2.2203260     1.2670250
  H        2.3864280     2.6245280     0.7070350
  H        3.3561510    -2.1272050    -0.4162310
  H       -2.8304840     2.0415190    -0.7796900
  H       -3.1684390    -1.9801170     0.7461500
  H       -4.3226790     0.1358530    -0.0311710
units angstrom
no_reorient  #important for SAPT in psi4, default
symmetry c1  #important for SAPT in psi4, default
}

set PROPERTIES_ORIGIN ["COM"]
properties('MP2/aug-cc-pvtz', properties = ['dipole'])
--------------------------------------------------------------------------

    Molecular point group: c1
  Charge       = 0
  Multiplicity = 1
  Basis Set: AUG-CC-PVTZ
    Blend: AUG-CC-PVTZ
  Basis Set: (AUG-CC-PVTZ AUX)
    Blend: AUG-CC-PVTZ-JKFIT

    Orbital Energies [Eh]
    ---------------------

    Doubly Occupied:

       1A    -15.645356     2A    -15.586022     3A    -15.581421
       4A    -15.579678     5A    -11.370613     6A    -11.313726
       7A    -11.311257     8A    -11.281313     9A    -11.255323
      10A    -11.248443    11A    -11.234935    12A    -11.215118
      13A     -1.396814    14A     -1.318070    15A     -1.207993
      16A     -1.123149    17A     -1.086281    18A     -1.045001
      19A     -0.959563    20A     -0.910237    21A     -0.894795
      22A     -0.801891    23A     -0.793187    24A     -0.713693
      25A     -0.709392    26A     -0.683592    27A     -0.640141
      28A     -0.633528    29A     -0.607571    30A     -0.587998
      31A     -0.583571    32A     -0.576592    33A     -0.565706
      34A     -0.556956    35A     -0.534046    36A     -0.491729
      37A     -0.457499    38A     -0.432246    39A     -0.422592
      40A     -0.404574    41A     -0.338747    42A     -0.330219

  @DF-RHF Final Energy:  -525.54042167168132

   => Energetics <=

    Nuclear Repulsion Energy =            658.2757619112401244
    One-Electron Energy =               -2018.7712117050766665
    Two-Electron Energy =                 834.9550281221552268
    Total Energy =                       -525.5404216716813153
  Basis Set: (AUG-CC-PVTZ AUX)
    Blend: AUG-CC-PVTZ-RI
    Molecular point group: c1

    Geometry (in Angstrom), charge = 0, multiplicity = 1:

       Center              X                  Y                   Z               Mass
    ------------   -----------------  -----------------  -----------------  -----------------
         N            0.855793156678    -0.290050519976    -0.044187656432    14.003074004430
         N            1.362495556678    -1.485971619976    -0.265566856432    14.003074004430
         N           -1.077833443322     1.027962380024    -0.452232856432    14.003074004430
         N           -1.264680443322    -1.202788619976     0.430619143568    14.003074004430
         C            1.763664556678     0.735512380024     0.135112143568    12.000000000000
         C            2.982563556678     0.093618380024     0.009496143568    12.000000000000
         C           -0.586401443322    -0.139112619976    -0.016957856432    12.000000000000
         C            1.457890556678     2.165108380024     0.439551143568    12.000000000000
         C            2.683339556678    -1.258877619976    -0.238425856432    12.000000000000
         C           -2.417136443322     1.133221380024    -0.430339856432    12.000000000000
         C           -2.599967443322    -1.077119619976     0.405126143568    12.000000000000
         C           -3.237513443322     0.087324380024    -0.019732856432    12.000000000000
         H            3.956810556678     0.555325380024     0.100815143568     1.007825032230
         H            1.017140556678     2.679108380024    -0.416572856432     1.007825032230
         H            0.758395556678     2.260729380024     1.274905143568     1.007825032230
         H            2.390379556678     2.664931380024     0.714915143568     1.007825032230
         H            3.360102556678    -2.086801619976    -0.408350856432     1.007825032230
         H           -2.826532443322     2.081922380024    -0.771809856432     1.007825032230
         H           -3.164487443322    -1.939713619976     0.754030143568     1.007825032230
         H           -4.318727443322     0.176256380024    -0.023290856432     1.007825032230

  Basis Set: AUG-CC-PVTZ
    Blend: AUG-CC-PVTZ
  Basis Set: (AUG-CC-PVTZ AUX)
    Blend: AUG-CC-PVTZ-JKFIT
	 Reference Energy          =    -525.5404216716813153 [Eh]
	 Singles Energy            =      -0.0000000000000000 [Eh]
	 Same-Spin Energy          =      -0.5781202834968512 [Eh]
	 Opposite-Spin Energy      =      -1.7386294107759392 [Eh]
	 Correlation Energy        =      -2.3167496942727905 [Eh]
	 Total Energy              =    -527.8571713659540592 [Eh]

	 ================> DF-SCS-MP2 Energies <==================
	-----------------------------------------------------------
	 SCS Same-Spin Scale       =       0.3333333333333333 [-]
	 SCS Opposite-Spin Scale   =       1.2000000000000000 [-]
	 SCS Same-Spin Energy      =      -0.1927067611656171 [Eh]
	 SCS Opposite-Spin Energy  =      -2.0863552929311271 [Eh]
	 SCS Correlation Energy    =      -2.2790620540967441 [Eh]
	 SCS Total Energy          =    -527.8194837257780136 [Eh]
	-----------------------------------------------------------

  Dipole Moment: [D]
     X:    -2.8515      Y:     2.6031      Z:     0.4445     Total:     3.8865

*** Psi4 exiting successfully. Buy a developer a beer!
