                               Psi4 1.3.2 release

  ==> Input File <==

--------------------------------------------------------------------------
#psi4
#
memory 32 gb

molecule  {
0 1
  N        0.8160970    -0.2990240    -0.0443680
  N        1.3585440    -1.5263750    -0.2734470
  N       -1.0817850     0.9875590    -0.4601130
  N       -1.2806930    -1.3295412     0.4568712
  C        1.7597130     0.6951090     0.1272320
  C        2.9786120     0.0532150     0.0016160
  C       -0.5903530    -0.1795160    -0.0248380
  C        1.4539390     2.1247050     0.4316710
  C        2.6793880    -1.2992810    -0.2463060
  C       -2.4210880     1.0928180    -0.4382200
  C       -2.6039190    -1.1175230     0.3972460
  C       -3.2414650     0.0469210    -0.0276130
  H        3.9528590     0.5149220     0.0929350
  H        1.0131890     2.6387050    -0.4244530
  H        0.7544440     2.2203260     1.2670250
  H        2.3864280     2.6245280     0.7070350
  H        3.3561510    -2.1272050    -0.4162310
  H       -2.8304840     2.0415190    -0.7796900
  H       -3.1684390    -1.9801170     0.7461500
  H       -4.3226790     0.1358530    -0.0311710
units angstrom
no_reorient  #important for SAPT in psi4, default
symmetry c1  #important for SAPT in psi4, default
}

set PROPERTIES_ORIGIN ["COM"]
properties('MP2/aug-cc-pvtz', properties = ['dipole'])
--------------------------------------------------------------------------

    Molecular point group: c1
  Charge       = 0
  Multiplicity = 1
  Basis Set: AUG-CC-PVTZ
    Blend: AUG-CC-PVTZ
  Basis Set: (AUG-CC-PVTZ AUX)
    Blend: AUG-CC-PVTZ-JKFIT

    Orbital Energies [Eh]
    ---------------------

    Doubly Occupied:

       1A    -15.645606     2A    -15.591071     3A    -15.585522
       4A    -15.583270     5A    -11.378117     6A    -11.312452
       7A    -11.306273     8A    -11.288788     9A    -11.256686
      10A    -11.251474    11A    -11.236066    12A    -11.219395
      13A     -1.385804    14A     -1.303893    15A     -1.202951
      16A     -1.129360    17A     -1.084732    18A     -1.043078
      19A     -0.960459    20A     -0.905750    21A     -0.891911
      22A     -0.801263    23A     -0.792494    24A     -0.713718
      25A     -0.700228    26A     -0.680863    27A     -0.637342
      28A     -0.633276    29A     -0.605887    30A     -0.586931
      31A     -0.580891    32A     -0.572692    33A     -0.565097
      34A     -0.552832    35A     -0.537500    36A     -0.498850
      37A     -0.456979    38A     -0.433059    39A     -0.424013
      40A     -0.405248    41A     -0.336418    42A     -0.334177

  @DF-RHF Final Energy:  -525.53179765678112

   => Energetics <=

    Nuclear Repulsion Energy =            655.8811943870199457
    One-Electron Energy =               -2014.0011547979599982
    Two-Electron Energy =                 832.5881627541590433
    Total Energy =                       -525.5317976567811229
  Basis Set: (AUG-CC-PVTZ AUX)
    Blend: AUG-CC-PVTZ-RI
    Molecular point group: c1

    Geometry (in Angstrom), charge = 0, multiplicity = 1:

       Center              X                  Y                   Z               Mass
    ------------   -----------------  -----------------  -----------------  -----------------
         N            0.824230507566    -0.253816374962    -0.040147247163    14.003074004430
         N            1.366677507566    -1.481167374962    -0.269226247163    14.003074004430
         N           -1.073651492434     1.032766625038    -0.455892247163    14.003074004430
         N           -1.272559492434    -1.284333574962     0.461091952837    14.003074004430
         C            1.767846507566     0.740316625038     0.131452752837    12.000000000000
         C            2.986745507566     0.098422625038     0.005836752837    12.000000000000
         C           -0.582219492434    -0.134308374962    -0.020617247163    12.000000000000
         C            1.462072507566     2.169912625038     0.435891752837    12.000000000000
         C            2.687521507566    -1.254073374962    -0.242085247163    12.000000000000
         C           -2.412954492434     1.138025625038    -0.433999247163    12.000000000000
         C           -2.595785492434    -1.072315374962     0.401466752837    12.000000000000
         C           -3.233331492434     0.092128625038    -0.023392247163    12.000000000000
         H            3.960992507566     0.560129625038     0.097155752837     1.007825032230
         H            1.021322507566     2.683912625038    -0.420232247163     1.007825032230
         H            0.762577507566     2.265533625038     1.271245752837     1.007825032230
         H            2.394561507566     2.669735625038     0.711255752837     1.007825032230
         H            3.364284507566    -2.081997374962    -0.412010247163     1.007825032230
         H           -2.822350492434     2.086726625038    -0.775469247163     1.007825032230
         H           -3.160305492434    -1.934909374962     0.750370752837     1.007825032230
         H           -4.314545492434     0.181060625038    -0.026950247163     1.007825032230

  Basis Set: AUG-CC-PVTZ
    Blend: AUG-CC-PVTZ
  Basis Set: (AUG-CC-PVTZ AUX)
    Blend: AUG-CC-PVTZ-JKFIT
	 Reference Energy          =    -525.5317976567811229 [Eh]
	 Singles Energy            =      -0.0000000000000000 [Eh]
	 Same-Spin Energy          =      -0.5782138816133776 [Eh]
	 Opposite-Spin Energy      =      -1.7416474399051309 [Eh]
	 Correlation Energy        =      -2.3198613215185087 [Eh]
	 Total Energy              =    -527.8516589782996107 [Eh]

	 ================> DF-SCS-MP2 Energies <==================
	-----------------------------------------------------------
	 SCS Same-Spin Scale       =       0.3333333333333333 [-]
	 SCS Opposite-Spin Scale   =       1.2000000000000000 [-]
	 SCS Same-Spin Energy      =      -0.1927379605377925 [Eh]
	 SCS Opposite-Spin Energy  =      -2.0899769278861569 [Eh]
	 SCS Correlation Energy    =      -2.2827148884239494 [Eh]
	 SCS Total Energy          =    -527.8145125452050479 [Eh]
	-----------------------------------------------------------

  Dipole Moment: [D]
     X:    -2.3876      Y:     2.6705      Z:     0.3888     Total:     3.6033

*** Psi4 exiting successfully. Buy a developer a beer!
