                               Psi4 1.4a3.dev225

  ==> Input File <==

--------------------------------------------------------------------------
#psi4
#
memory 32 gb

molecule  {
0 1
  N        0.8160970    -0.2990240    -0.0443680
  N        1.3585440    -1.5263750    -0.2734470
  N       -1.0817850     0.9875590    -0.4601130
  N       -1.2686320    -1.2431920     0.4227390
  C        1.7597130     0.6951090     0.1272320
  C        2.9786120     0.0532150     0.0016160
  C       -0.5903530    -0.1795160    -0.0248380
  C        1.4539390     2.1247050     0.4316710
  C        2.6793880    -1.2992810    -0.2463060
  C       -2.4210880     1.0928180    -0.4382200
  C       -2.6039190    -1.1175230     0.3972460
  C       -3.2414650     0.0469210    -0.0276130
  H        3.9528590     0.5149220     0.0929350
  H        1.0131890     2.6387050    -0.4244530
  H        0.7544440     2.2203260     1.2670250
  H        2.3864280     2.6245280     0.7070350
  H        3.3686519    -2.1424980    -0.4193698
  H       -2.8304840     2.0415190    -0.7796900
  H       -3.1684390    -1.9801170     0.7461500
  H       -4.3226790     0.1358530    -0.0311710
units angstrom
no_reorient  #important for SAPT in psi4, default
symmetry c1  #important for SAPT in psi4, default
}

set PROPERTIES_ORIGIN ["COM"]
properties('MP2/aug-cc-pvtz', properties = ['dipole'])
--------------------------------------------------------------------------

    Molecular point group: c1
  Charge       = 0
  Multiplicity = 1
  Basis Set: AUG-CC-PVTZ
    Blend: AUG-CC-PVTZ
  Basis Set: (AUG-CC-PVTZ AUX)
    Blend: AUG-CC-PVTZ-JKFIT

    Orbital Energies [Eh]
    ---------------------

    Doubly Occupied:

       1A    -15.642209     2A    -15.582459     3A    -15.581558
       4A    -15.578687     5A    -11.367443     6A    -11.311556
       7A    -11.309510     8A    -11.286860     9A    -11.256762
      10A    -11.252718    11A    -11.234769    12A    -11.217490
      13A     -1.386419    14A     -1.312597    15A     -1.206065
      16A     -1.129279    17A     -1.084293    18A     -1.044882
      19A     -0.958887    20A     -0.909078    21A     -0.896075
      22A     -0.798225    23A     -0.795189    24A     -0.713009
      25A     -0.707429    26A     -0.682155    27A     -0.638081
      28A     -0.632961    29A     -0.606738    30A     -0.589279
      31A     -0.586026    32A     -0.574468    33A     -0.564060
      34A     -0.552756    35A     -0.535059    36A     -0.491698
      37A     -0.455000    38A     -0.430538    39A     -0.420243
      40A     -0.407770    41A     -0.338099    42A     -0.332476

  @DF-RHF Final Energy:  -525.54298453413503

   => Energetics <=

    Nuclear Repulsion Energy =            658.1674175525639612
    One-Electron Energy =               -2018.6190922410655730
    Two-Electron Energy =                 834.9086901543664681
    Total Energy =                       -525.5429845341350301
  Basis Set: (AUG-CC-PVTZ AUX)
    Blend: AUG-CC-PVTZ-RI
    Molecular point group: c1

    Geometry (in Angstrom), charge = 0, multiplicity = 1:

       Center              X                  Y                   Z               Mass
    ------------   -----------------  -----------------  -----------------  -----------------
         N            0.823096727069    -0.261273768954    -0.037141659810    14.003074004430
         N            1.365543727069    -1.488624768954    -0.266220659810    14.003074004430
         N           -1.074785272931     1.025309231046    -0.452886659810    14.003074004430
         N           -1.261632272931    -1.205441768954     0.429965340190    14.003074004430
         C            1.766712727069     0.732859231046     0.134458340190    12.000000000000
         C            2.985611727069     0.090965231046     0.008842340190    12.000000000000
         C           -0.583353272931    -0.141765768954    -0.017611659810    12.000000000000
         C            1.460938727069     2.162455231046     0.438897340190    12.000000000000
         C            2.686387727069    -1.261530768954    -0.239079659810    12.000000000000
         C           -2.414088272931     1.130568231046    -0.430993659810    12.000000000000
         C           -2.596919272931    -1.079772768954     0.404472340190    12.000000000000
         C           -3.234465272931     0.084671231046    -0.020386659810    12.000000000000
         H            3.959858727069     0.552672231046     0.100161340190     1.007825032230
         H            1.020188727069     2.676455231046    -0.417226659810     1.007825032230
         H            0.761443727069     2.258076231046     1.274251340190     1.007825032230
         H            2.393427727069     2.662278231046     0.714261340190     1.007825032230
         H            3.375651627069    -2.104747768954    -0.412143459810     1.007825032230
         H           -2.823484272931     2.079269231046    -0.772463659810     1.007825032230
         H           -3.161439272931    -1.942366768954     0.753376340190     1.007825032230
         H           -4.315679272931     0.173603231046    -0.023944659810     1.007825032230

  Basis Set: AUG-CC-PVTZ
    Blend: AUG-CC-PVTZ
  Basis Set: (AUG-CC-PVTZ AUX)
    Blend: AUG-CC-PVTZ-JKFIT
	 Reference Energy          =    -525.5429845341350301 [Eh]
	 Singles Energy            =      -0.0000000000000000 [Eh]
	 Same-Spin Energy          =      -0.5775944016722484 [Eh]
	 Opposite-Spin Energy      =      -1.7387690426284106 [Eh]
	 Correlation Energy        =      -2.3163634443006589 [Eh]
	 Total Energy              =    -527.8593479784357214 [Eh]

	 ================> DF-SCS-MP2 Energies <==================
	-----------------------------------------------------------
	 SCS Same-Spin Scale       =       0.3333333333333333 [-]
	 SCS Opposite-Spin Scale   =       1.2000000000000000 [-]
	 SCS Same-Spin Energy      =      -0.1925314672240828 [Eh]
	 SCS Opposite-Spin Energy  =      -2.0865228511540925 [Eh]
	 SCS Correlation Energy    =      -2.2790543183781753 [Eh]
	 SCS Total Energy          =    -527.8220388525131739 [Eh]
	-----------------------------------------------------------

  Dipole Moment: [D]
     X:    -2.5828      Y:     2.5573      Z:     0.4404     Total:     3.6612

*** Psi4 exiting successfully. Buy a developer a beer!
