                               Psi4 1.3.2 release

  ==> Input File <==

--------------------------------------------------------------------------
#psi4
#
memory 32 gb

molecule  {
0 1
  N        0.8160970    -0.2990240    -0.0443680
  N        1.3366725    -1.5355410    -0.2748963
  N       -1.0817850     0.9875590    -0.4601130
  N       -1.2686320    -1.2431920     0.4227390
  C        1.7597130     0.6951090     0.1272320
  C        2.9786120     0.0532150     0.0016160
  C       -0.5903530    -0.1795160    -0.0248380
  C        1.4539390     2.1247050     0.4316710
  C        2.6793880    -1.2992810    -0.2463060
  C       -2.4210880     1.0928180    -0.4382200
  C       -2.6039190    -1.1175230     0.3972460
  C       -3.2414650     0.0469210    -0.0276130
  H        3.9528590     0.5149220     0.0929350
  H        1.0131890     2.6387050    -0.4244530
  H        0.7544440     2.2203260     1.2670250
  H        2.3864280     2.6245280     0.7070350
  H        3.3561510    -2.1272050    -0.4162310
  H       -2.8304840     2.0415190    -0.7796900
  H       -3.1684390    -1.9801170     0.7461500
  H       -4.3226790     0.1358530    -0.0311710
units angstrom
no_reorient  #important for SAPT in psi4, default
symmetry c1  #important for SAPT in psi4, default
}

set PROPERTIES_ORIGIN ["COM"]
properties('MP2/aug-cc-pvtz', properties = ['dipole'])
--------------------------------------------------------------------------

    Molecular point group: c1
  Charge       = 0
  Multiplicity = 1
  Basis Set: AUG-CC-PVTZ
    Blend: AUG-CC-PVTZ
  Basis Set: (AUG-CC-PVTZ AUX)
    Blend: AUG-CC-PVTZ-JKFIT

    Orbital Energies [Eh]
    ---------------------

    Doubly Occupied:

       1A    -15.643198     2A    -15.584064     3A    -15.582297
       4A    -15.578499     5A    -11.366862     6A    -11.311354
       7A    -11.309338     8A    -11.287454     9A    -11.257208
      10A    -11.252623    11A    -11.235204    12A    -11.218736
      13A     -1.385166    14A     -1.311329    15A     -1.205914
      16A     -1.125174    17A     -1.084958    18A     -1.044314
      19A     -0.959325    20A     -0.908814    21A     -0.895988
      22A     -0.800031    23A     -0.795008    24A     -0.713077
      25A     -0.706542    26A     -0.681955    27A     -0.637701
      28A     -0.632807    29A     -0.607092    30A     -0.588874
      31A     -0.585917    32A     -0.574485    33A     -0.564080
      34A     -0.551866    35A     -0.535492    36A     -0.491575
      37A     -0.457977    38A     -0.430343    39A     -0.420158
      40A     -0.406335    41A     -0.337553    42A     -0.331072

  @DF-RHF Final Energy:  -525.54036334479451

   => Energetics <=

    Nuclear Repulsion Energy =            658.0018300595079381
    One-Electron Energy =               -2018.2888648874447881
    Two-Electron Energy =                 834.7466714831423360
    Total Energy =                       -525.5403633447945140
  Basis Set: (AUG-CC-PVTZ AUX)
    Blend: AUG-CC-PVTZ-RI
    Molecular point group: c1

    Geometry (in Angstrom), charge = 0, multiplicity = 1:

       Center              X                  Y                   Z               Mass
    ------------   -----------------  -----------------  -----------------  -----------------
         N            0.825088713073    -0.260568227293    -0.037034639320    14.003074004430
         N            1.345664213073    -1.497085227293    -0.267562939320    14.003074004430
         N           -1.072793286927     1.026014772707    -0.452779639320    14.003074004430
         N           -1.259640286927    -1.204736227293     0.430072360680    14.003074004430
         C            1.768704713073     0.733564772707     0.134565360680    12.000000000000
         C            2.987603713073     0.091670772707     0.008949360680    12.000000000000
         C           -0.581361286927    -0.141060227293    -0.017504639320    12.000000000000
         C            1.462930713073     2.163160772707     0.439004360680    12.000000000000
         C            2.688379713073    -1.260825227293    -0.238972639320    12.000000000000
         C           -2.412096286927     1.131273772707    -0.430886639320    12.000000000000
         C           -2.594927286927    -1.079067227293     0.404579360680    12.000000000000
         C           -3.232473286927     0.085376772707    -0.020279639320    12.000000000000
         H            3.961850713073     0.553377772707     0.100268360680     1.007825032230
         H            1.022180713073     2.677160772707    -0.417119639320     1.007825032230
         H            0.763435713073     2.258781772707     1.274358360680     1.007825032230
         H            2.395419713073     2.662983772707     0.714368360680     1.007825032230
         H            3.365142713073    -2.088749227293    -0.408897639320     1.007825032230
         H           -2.821492286927     2.079974772707    -0.772356639320     1.007825032230
         H           -3.159447286927    -1.941661227293     0.753483360680     1.007825032230
         H           -4.313687286927     0.174308772707    -0.023837639320     1.007825032230

  Basis Set: AUG-CC-PVTZ
    Blend: AUG-CC-PVTZ
  Basis Set: (AUG-CC-PVTZ AUX)
    Blend: AUG-CC-PVTZ-JKFIT
	 Reference Energy          =    -525.5403633447945140 [Eh]
	 Singles Energy            =      -0.0000000000000000 [Eh]
	 Same-Spin Energy          =      -0.5783555548936155 [Eh]
	 Opposite-Spin Energy      =      -1.7401712977435380 [Eh]
	 Correlation Energy        =      -2.3185268526371532 [Eh]
	 Total Energy              =    -527.8588901974317196 [Eh]

	 ================> DF-SCS-MP2 Energies <==================
	-----------------------------------------------------------
	 SCS Same-Spin Scale       =       0.3333333333333333 [-]
	 SCS Opposite-Spin Scale   =       1.2000000000000000 [-]
	 SCS Same-Spin Energy      =      -0.1927851849645385 [Eh]
	 SCS Opposite-Spin Energy  =      -2.0882055572922456 [Eh]
	 SCS Correlation Energy    =      -2.2809907422567841 [Eh]
	 SCS Total Energy          =    -527.8213540870513043 [Eh]
	-----------------------------------------------------------

  Dipole Moment: [D]
     X:    -2.5718      Y:     2.5895      Z:     0.4488     Total:     3.6771

*** Psi4 exiting successfully. Buy a developer a beer!
