                               Psi4 1.3.2 release

  ==> Input File <==

--------------------------------------------------------------------------
#psi4
#
memory 32 gb

molecule  {
0 1
  N        0.8160970    -0.2990240    -0.0443680
  N        1.3585440    -1.5263750    -0.2734470
  N       -1.0817850     0.9875590    -0.4601130
  N       -1.2686320    -1.2431920     0.4227390
  C        1.7597130     0.6951090     0.1272320
  C        2.9786120     0.0532150     0.0016160
  C       -0.5903530    -0.1795160    -0.0248380
  C        1.4539390     2.1247050     0.4316710
  C        2.6793880    -1.2992810    -0.2463060
  C       -2.4607816     1.1193790    -0.4469986
  C       -2.6039190    -1.1175230     0.3972460
  C       -3.2414650     0.0469210    -0.0276130
  H        3.9528590     0.5149220     0.0929350
  H        1.0131890     2.6387050    -0.4244530
  H        0.7544440     2.2203260     1.2670250
  H        2.3864280     2.6245280     0.7070350
  H        3.3561510    -2.1272050    -0.4162310
  H       -2.8304840     2.0415190    -0.7796900
  H       -3.1684390    -1.9801170     0.7461500
  H       -4.3226790     0.1358530    -0.0311710
units angstrom
no_reorient  #important for SAPT in psi4, default
symmetry c1  #important for SAPT in psi4, default
}

set PROPERTIES_ORIGIN ["COM"]
properties('MP2/aug-cc-pvtz', properties = ['dipole'])
--------------------------------------------------------------------------

    Molecular point group: c1
  Charge       = 0
  Multiplicity = 1
  Basis Set: AUG-CC-PVTZ
    Blend: AUG-CC-PVTZ
  Basis Set: (AUG-CC-PVTZ AUX)
    Blend: AUG-CC-PVTZ-JKFIT

    Orbital Energies [Eh]
    ---------------------

    Doubly Occupied:

       1A    -15.641266     2A    -15.583320     3A    -15.580794
       4A    -15.579392     5A    -11.365942     6A    -11.313169
       7A    -11.311051     8A    -11.285906     9A    -11.254883
      10A    -11.253790    11A    -11.233783    12A    -11.216509
      13A     -1.384784    14A     -1.306633    15A     -1.198317
      16A     -1.128063    17A     -1.083548    18A     -1.045130
      19A     -0.957867    20A     -0.913839    21A     -0.893006
      22A     -0.801817    23A     -0.794154    24A     -0.712394
      25A     -0.705283    26A     -0.681720    27A     -0.637609
      28A     -0.635628    29A     -0.611800    30A     -0.591052
      31A     -0.587284    32A     -0.573033    33A     -0.562720
      34A     -0.550779    35A     -0.534765    36A     -0.487347
      37A     -0.454361    38A     -0.425058    39A     -0.420406
      40A     -0.408236    41A     -0.338242    42A     -0.331628

  @DF-RHF Final Energy:  -525.53864713986150

   => Energetics <=

    Nuclear Repulsion Energy =            657.2220879383764895
    One-Electron Energy =               -2016.7688597269479942
    Two-Electron Energy =                 834.0081246487100088
    Total Energy =                       -525.5386471398614958
  Basis Set: (AUG-CC-PVTZ AUX)
    Blend: AUG-CC-PVTZ-RI
    Molecular point group: c1

    Geometry (in Angstrom), charge = 0, multiplicity = 1:

       Center              X                  Y                   Z               Mass
    ------------   -----------------  -----------------  -----------------  -----------------
         N            0.826151059331    -0.263361196002    -0.036503334619    14.003074004430
         N            1.368598059331    -1.490712196002    -0.265582334619    14.003074004430
         N           -1.071730940669     1.023221803998    -0.452248334619    14.003074004430
         N           -1.258577940669    -1.207529196002     0.430603665381    14.003074004430
         C            1.769767059331     0.730771803998     0.135096665381    12.000000000000
         C            2.988666059331     0.088877803998     0.009480665381    12.000000000000
         C           -0.580298940669    -0.143853196002    -0.016973334619    12.000000000000
         C            1.463993059331     2.160367803998     0.439535665381    12.000000000000
         C            2.689442059331    -1.263618196002    -0.238441334619    12.000000000000
         C           -2.450727540669     1.155041803998    -0.439133934619    12.000000000000
         C           -2.593864940669    -1.081860196002     0.405110665381    12.000000000000
         C           -3.231410940669     0.082583803998    -0.019748334619    12.000000000000
         H            3.962913059331     0.550584803998     0.100799665381     1.007825032230
         H            1.023243059331     2.674367803998    -0.416588334619     1.007825032230
         H            0.764498059331     2.255988803998     1.274889665381     1.007825032230
         H            2.396482059331     2.660190803998     0.714899665381     1.007825032230
         H            3.366205059331    -2.091542196002    -0.408366334619     1.007825032230
         H           -2.820429940669     2.077181803998    -0.771825334619     1.007825032230
         H           -3.158384940669    -1.944454196002     0.754014665381     1.007825032230
         H           -4.312624940669     0.171515803998    -0.023306334619     1.007825032230

  Basis Set: AUG-CC-PVTZ
    Blend: AUG-CC-PVTZ
  Basis Set: (AUG-CC-PVTZ AUX)
    Blend: AUG-CC-PVTZ-JKFIT
	 Reference Energy          =    -525.5386471398614958 [Eh]
	 Singles Energy            =      -0.0000000000000000 [Eh]
	 Same-Spin Energy          =      -0.5779401820577855 [Eh]
	 Opposite-Spin Energy      =      -1.7398670179090985 [Eh]
	 Correlation Energy        =      -2.3178071999668841 [Eh]
	 Total Energy              =    -527.8564543398283604 [Eh]

	 ================> DF-SCS-MP2 Energies <==================
	-----------------------------------------------------------
	 SCS Same-Spin Scale       =       0.3333333333333333 [-]
	 SCS Opposite-Spin Scale   =       1.2000000000000000 [-]
	 SCS Same-Spin Energy      =      -0.1926467273525952 [Eh]
	 SCS Opposite-Spin Energy  =      -2.0878404214909181 [Eh]
	 SCS Correlation Energy    =      -2.2804871488435134 [Eh]
	 SCS Total Energy          =    -527.8191342887049586 [Eh]
	-----------------------------------------------------------

  Dipole Moment: [D]
     X:    -2.6676      Y:     2.5876      Z:     0.4305     Total:     3.7413

*** Psi4 exiting successfully. Buy a developer a beer!
