                               Psi4 1.3.2 release

  ==> Input File <==

--------------------------------------------------------------------------
#psi4
#
memory 32 gb

molecule  {
0 1
  N        0.8160970    -0.2990240    -0.0443680
  N        1.3585440    -1.5263750    -0.2734470
  N       -1.0817850     0.9875590    -0.4601130
  N       -1.2686320    -1.2431920     0.4227390
  C        1.6980264     0.5662265     0.1038008
  C        2.9786120     0.0532150     0.0016160
  C       -0.5903530    -0.1795160    -0.0248380
  C        1.4539390     2.1247050     0.4316710
  C        2.6793880    -1.2992810    -0.2463060
  C       -2.4210880     1.0928180    -0.4382200
  C       -2.6039190    -1.1175230     0.3972460
  C       -3.2414650     0.0469210    -0.0276130
  H        3.9528590     0.5149220     0.0929350
  H        1.0131890     2.6387050    -0.4244530
  H        0.7544440     2.2203260     1.2670250
  H        2.3864280     2.6245280     0.7070350
  H        3.3561510    -2.1272050    -0.4162310
  H       -2.8304840     2.0415190    -0.7796900
  H       -3.1684390    -1.9801170     0.7461500
  H       -4.3226790     0.1358530    -0.0311710
units angstrom
no_reorient  #important for SAPT in psi4, default
symmetry c1  #important for SAPT in psi4, default
}

set PROPERTIES_ORIGIN ["COM"]
properties('MP2/aug-cc-pvtz', properties = ['dipole'])
--------------------------------------------------------------------------

    Molecular point group: c1
  Charge       = 0
  Multiplicity = 1
  Basis Set: AUG-CC-PVTZ
    Blend: AUG-CC-PVTZ
  Basis Set: (AUG-CC-PVTZ AUX)
    Blend: AUG-CC-PVTZ-JKFIT

    Orbital Energies [Eh]
    ---------------------

    Doubly Occupied:

       1A    -15.645778     2A    -15.588622     3A    -15.585188
       4A    -15.567153     5A    -11.374457     6A    -11.315641
       7A    -11.313743     8A    -11.278076     9A    -11.258246
      10A    -11.252585    11A    -11.236904    12A    -11.207619
      13A     -1.415836    14A     -1.321887    15A     -1.211591
      16A     -1.139598    17A     -1.085151    18A     -1.046209
      19A     -0.943441    20A     -0.914251    21A     -0.911877
      22A     -0.813054    23A     -0.803756    24A     -0.718698
      25A     -0.705791    26A     -0.679045    27A     -0.652760
      28A     -0.638299    29A     -0.609797    30A     -0.602434
      31A     -0.586667    32A     -0.574647    33A     -0.561451
      34A     -0.553198    35A     -0.503449    36A     -0.490624
      37A     -0.450705    38A     -0.434230    39A     -0.423357
      40A     -0.410865    41A     -0.352461    42A     -0.325696

  @DF-RHF Final Energy:  -525.52229781615756

   => Energetics <=

    Nuclear Repulsion Energy =            660.7691139823818958
    One-Electron Energy =               -2023.5731443560332536
    Two-Electron Energy =                 837.2817325574937968
    Total Energy =                       -525.5222978161575611
  Basis Set: (AUG-CC-PVTZ AUX)
    Blend: AUG-CC-PVTZ-RI
    Molecular point group: c1

    Geometry (in Angstrom), charge = 0, multiplicity = 1:

       Center              X                  Y                   Z               Mass
    ------------   -----------------  -----------------  -----------------  -----------------
         N            0.827799762570    -0.251708388201    -0.035404903796    14.003074004430
         N            1.370246762570    -1.479059388201    -0.264483903796    14.003074004430
         N           -1.070082237430     1.034874611799    -0.451149903796    14.003074004430
         N           -1.256929237430    -1.195876388201     0.431702096204    14.003074004430
         C            1.709729162570     0.613542111799     0.112763896204    12.000000000000
         C            2.990314762570     0.100530611799     0.010579096204    12.000000000000
         C           -0.578650237430    -0.132200388201    -0.015874903796    12.000000000000
         C            1.465641762570     2.172020611799     0.440634096204    12.000000000000
         C            2.691090762570    -1.251965388201    -0.237342903796    12.000000000000
         C           -2.409385237430     1.140133611799    -0.429256903796    12.000000000000
         C           -2.592216237430    -1.070207388201     0.406209096204    12.000000000000
         C           -3.229762237430     0.094236611799    -0.018649903796    12.000000000000
         H            3.964561762570     0.562237611799     0.101898096204     1.007825032230
         H            1.024891762570     2.686020611799    -0.415489903796     1.007825032230
         H            0.766146762570     2.267641611799     1.275988096204     1.007825032230
         H            2.398130762570     2.671843611799     0.715998096204     1.007825032230
         H            3.367853762570    -2.079889388201    -0.407267903796     1.007825032230
         H           -2.818781237430     2.088834611799    -0.770726903796     1.007825032230
         H           -3.156736237430    -1.932801388201     0.755113096204     1.007825032230
         H           -4.310976237430     0.183168611799    -0.022207903796     1.007825032230

  Basis Set: AUG-CC-PVTZ
    Blend: AUG-CC-PVTZ
  Basis Set: (AUG-CC-PVTZ AUX)
    Blend: AUG-CC-PVTZ-JKFIT
	 Reference Energy          =    -525.5222978161575611 [Eh]
	 Singles Energy            =      -0.0000000000000000 [Eh]
	 Same-Spin Energy          =      -0.5762568296927622 [Eh]
	 Opposite-Spin Energy      =      -1.7359403193858229 [Eh]
	 Correlation Energy        =      -2.3121971490785853 [Eh]
	 Total Energy              =    -527.8344949652361038 [Eh]

	 ================> DF-SCS-MP2 Energies <==================
	-----------------------------------------------------------
	 SCS Same-Spin Scale       =       0.3333333333333333 [-]
	 SCS Opposite-Spin Scale   =       1.2000000000000000 [-]
	 SCS Same-Spin Energy      =      -0.1920856098975874 [Eh]
	 SCS Opposite-Spin Energy  =      -2.0831283832629874 [Eh]
	 SCS Correlation Energy    =      -2.2752139931605750 [Eh]
	 SCS Total Energy          =    -527.7975118093181663 [Eh]
	-----------------------------------------------------------

  Dipole Moment: [D]
     X:    -3.0473      Y:     2.4873      Z:     0.4233     Total:     3.9562

*** Psi4 exiting successfully. Buy a developer a beer!
