                               Psi4 1.4a3.dev225

  ==> Input File <==

--------------------------------------------------------------------------
#psi4
#
memory 32 gb

molecule  {
0 1
  N        0.8160970    -0.2990240    -0.0443680
  N        1.3585440    -1.5263750    -0.2734470
  N       -1.0817850     0.9875590    -0.4601130
  N       -1.2686320    -1.2431920     0.4227390
  C        1.7597130     0.6951090     0.1272320
  C        2.9786120     0.0532150     0.0016160
  C       -0.5903530    -0.1795160    -0.0248380
  C        1.4539390     2.1247050     0.4316710
  C        2.6793880    -1.2992810    -0.2463060
  C       -2.4210880     1.0928180    -0.4382200
  C       -2.6039190    -1.1175230     0.3972460
  C       -3.2414650     0.0469210    -0.0276130
  H        3.9528590     0.5149220     0.0929350
  H        1.0131890     2.6387050    -0.4244530
  H        0.7544440     2.2203260     1.2670250
  H        2.3864280     2.6245280     0.7070350
  H        3.3436501    -2.1119120    -0.4130922
  H       -2.8304840     2.0415190    -0.7796900
  H       -3.1684390    -1.9801170     0.7461500
  H       -4.3226790     0.1358530    -0.0311710
units angstrom
no_reorient  #important for SAPT in psi4, default
symmetry c1  #important for SAPT in psi4, default
}

set PROPERTIES_ORIGIN ["COM"]
properties('MP2/aug-cc-pvtz', properties = ['dipole'])
--------------------------------------------------------------------------

    Molecular point group: c1
  Charge       = 0
  Multiplicity = 1
  Basis Set: AUG-CC-PVTZ
    Blend: AUG-CC-PVTZ
  Basis Set: (AUG-CC-PVTZ AUX)
    Blend: AUG-CC-PVTZ-JKFIT

    Orbital Energies [Eh]
    ---------------------

    Doubly Occupied:

       1A    -15.642028     2A    -15.582384     3A    -15.581367
       4A    -15.578623     5A    -11.367341     6A    -11.311496
       7A    -11.309456     8A    -11.286620     9A    -11.252662
      10A    -11.252269    11A    -11.234634    12A    -11.217136
      13A     -1.386233    14A     -1.312500    15A     -1.205998
      16A     -1.129536    17A     -1.084126    18A     -1.045154
      19A     -0.958698    20A     -0.909058    21A     -0.897078
      22A     -0.802210    23A     -0.795212    24A     -0.713296
      25A     -0.707340    26A     -0.682901    27A     -0.638443
      28A     -0.633847    29A     -0.607616    30A     -0.590070
      31A     -0.587112    32A     -0.575687    33A     -0.563892
      34A     -0.552612    35A     -0.536651    36A     -0.491622
      37A     -0.455159    38A     -0.430479    39A     -0.420193
      40A     -0.407661    41A     -0.337998    42A     -0.332271

  @DF-RHF Final Energy:  -525.54373313622511

   => Energetics <=

    Nuclear Repulsion Energy =            658.3852601603730363
    One-Electron Energy =               -2019.0446486813614229
    Two-Electron Energy =                 835.1156553847632722
    Total Energy =                       -525.5437331362251143
  Basis Set: (AUG-CC-PVTZ AUX)
    Blend: AUG-CC-PVTZ-RI
    Molecular point group: c1

    Geometry (in Angstrom), charge = 0, multiplicity = 1:

       Center              X                  Y                   Z               Mass
    ------------   -----------------  -----------------  -----------------  -----------------
         N            0.823254137384    -0.261466337165    -0.037181183324    14.003074004430
         N            1.365701137384    -1.488817337165    -0.266260183324    14.003074004430
         N           -1.074627862616     1.025116662835    -0.452926183324    14.003074004430
         N           -1.261474862616    -1.205634337165     0.429925816676    14.003074004430
         C            1.766870137384     0.732666662835     0.134418816676    12.000000000000
         C            2.985769137384     0.090772662835     0.008802816676    12.000000000000
         C           -0.583195862616    -0.141958337165    -0.017651183324    12.000000000000
         C            1.461096137384     2.162262662835     0.438857816676    12.000000000000
         C            2.686545137384    -1.261723337165    -0.239119183324    12.000000000000
         C           -2.413930862616     1.130375662835    -0.431033183324    12.000000000000
         C           -2.596761862616    -1.079965337165     0.404432816676    12.000000000000
         C           -3.234307862616     0.084478662835    -0.020426183324    12.000000000000
         H            3.960016137384     0.552479662835     0.100121816676     1.007825032230
         H            1.020346137384     2.676262662835    -0.417266183324     1.007825032230
         H            0.761601137384     2.257883662835     1.274211816676     1.007825032230
         H            2.393585137384     2.662085662835     0.714221816676     1.007825032230
         H            3.350807237384    -2.074354337165    -0.405905383324     1.007825032230
         H           -2.823326862616     2.079076662835    -0.772503183324     1.007825032230
         H           -3.161281862616    -1.942559337165     0.753336816676     1.007825032230
         H           -4.315521862616     0.173410662835    -0.023984183324     1.007825032230

  Basis Set: AUG-CC-PVTZ
    Blend: AUG-CC-PVTZ
  Basis Set: (AUG-CC-PVTZ AUX)
    Blend: AUG-CC-PVTZ-JKFIT
	 Reference Energy          =    -525.5437331362251143 [Eh]
	 Singles Energy            =      -0.0000000000000000 [Eh]
	 Same-Spin Energy          =      -0.5775279324873926 [Eh]
	 Opposite-Spin Energy      =      -1.7385094023921037 [Eh]
	 Correlation Energy        =      -2.3160373348794963 [Eh]
	 Total Energy              =    -527.8597704711046390 [Eh]

	 ================> DF-SCS-MP2 Energies <==================
	-----------------------------------------------------------
	 SCS Same-Spin Scale       =       0.3333333333333333 [-]
	 SCS Opposite-Spin Scale   =       1.2000000000000000 [-]
	 SCS Same-Spin Energy      =      -0.1925093108291309 [Eh]
	 SCS Opposite-Spin Energy  =      -2.0862112828705244 [Eh]
	 SCS Correlation Energy    =      -2.2787205936996551 [Eh]
	 SCS Total Energy          =    -527.8224537299247459 [Eh]
	-----------------------------------------------------------

  Dipole Moment: [D]
     X:    -2.5766      Y:     2.5531      Z:     0.4395     Total:     3.6538

*** Psi4 exiting successfully. Buy a developer a beer!
