                               Psi4 1.3.2 release

  ==> Input File <==

--------------------------------------------------------------------------
#psi4
#
memory 32 gb

molecule  {
0 1
  N        0.8160970    -0.2990240    -0.0443680
  N        1.3585440    -1.5263750    -0.2734470
  N       -1.0817850     0.9875590    -0.4601130
  N       -1.2891831    -1.3731947     0.4716463
  C        1.7597130     0.6951090     0.1272320
  C        2.9786120     0.0532150     0.0016160
  C       -0.5903530    -0.1795160    -0.0248380
  C        1.4539390     2.1247050     0.4316710
  C        2.6793880    -1.2992810    -0.2463060
  C       -2.4210880     1.0928180    -0.4382200
  C       -2.6039190    -1.1175230     0.3972460
  C       -3.2414650     0.0469210    -0.0276130
  H        3.9528590     0.5149220     0.0929350
  H        1.0131890     2.6387050    -0.4244530
  H        0.7544440     2.2203260     1.2670250
  H        2.3864280     2.6245280     0.7070350
  H        3.3561510    -2.1272050    -0.4162310
  H       -2.8304840     2.0415190    -0.7796900
  H       -3.1684390    -1.9801170     0.7461500
  H       -4.3226790     0.1358530    -0.0311710
units angstrom
no_reorient  #important for SAPT in psi4, default
symmetry c1  #important for SAPT in psi4, default
}

set PROPERTIES_ORIGIN ["COM"]
properties('MP2/aug-cc-pvtz', properties = ['dipole'])
--------------------------------------------------------------------------

    Molecular point group: c1
  Charge       = 0
  Multiplicity = 1
  Basis Set: AUG-CC-PVTZ
    Blend: AUG-CC-PVTZ
  Basis Set: (AUG-CC-PVTZ AUX)
    Blend: AUG-CC-PVTZ-JKFIT

    Orbital Energies [Eh]
    ---------------------

    Doubly Occupied:

       1A    -15.647145     2A    -15.596909     3A    -15.586788
       4A    -15.584110     5A    -11.382500     6A    -11.312889
       7A    -11.304926     8A    -11.289711     9A    -11.257704
      10A    -11.250966    11A    -11.236686    12A    -11.220359
      13A     -1.385846    14A     -1.300526    15A     -1.201136
      16A     -1.129408    17A     -1.085027    18A     -1.042288
      19A     -0.961222    20A     -0.906778    21A     -0.887107
      22A     -0.802074    23A     -0.790790    24A     -0.714124
      25A     -0.697992    26A     -0.678876    27A     -0.637245
      28A     -0.633329    29A     -0.605444    30A     -0.586747
      31A     -0.576535    32A     -0.571554    33A     -0.565234
      34A     -0.552708    35A     -0.538210    36A     -0.502751
      37A     -0.457619    38A     -0.434738    39A     -0.424621
      40A     -0.403843    41A     -0.335907    42A     -0.334686

  @DF-RHF Final Energy:  -525.52176978691261

   => Energetics <=

    Nuclear Repulsion Energy =            654.7157852777784228
    One-Electron Energy =               -2011.6449974321262744
    Two-Electron Energy =                 831.4074423674352374
    Total Energy =                       -525.5217697869126141
  Basis Set: (AUG-CC-PVTZ AUX)
    Blend: AUG-CC-PVTZ-RI
    Molecular point group: c1

    Geometry (in Angstrom), charge = 0, multiplicity = 1:

       Center              X                  Y                   Z               Mass
    ------------   -----------------  -----------------  -----------------  -----------------
         N            0.824973206774    -0.249997642574    -0.041439747258    14.003074004430
         N            1.367420206774    -1.477348642574    -0.270518747258    14.003074004430
         N           -1.072908793226     1.036585357426    -0.457184747258    14.003074004430
         N           -1.280306893226    -1.324168342574     0.474574552742    14.003074004430
         C            1.768589206774     0.744135357426     0.130160252742    12.000000000000
         C            2.987488206774     0.102241357426     0.004544252742    12.000000000000
         C           -0.581476793226    -0.130489642574    -0.021909747258    12.000000000000
         C            1.462815206774     2.173731357426     0.434599252742    12.000000000000
         C            2.688264206774    -1.250254642574    -0.243377747258    12.000000000000
         C           -2.412211793226     1.141844357426    -0.435291747258    12.000000000000
         C           -2.595042793226    -1.068496642574     0.400174252742    12.000000000000
         C           -3.232588793226     0.095947357426    -0.024684747258    12.000000000000
         H            3.961735206774     0.563948357426     0.095863252742     1.007825032230
         H            1.022065206774     2.687731357426    -0.421524747258     1.007825032230
         H            0.763320206774     2.269352357426     1.269953252742     1.007825032230
         H            2.395304206774     2.673554357426     0.709963252742     1.007825032230
         H            3.365027206774    -2.078178642574    -0.413302747258     1.007825032230
         H           -2.821607793226     2.090545357426    -0.776761747258     1.007825032230
         H           -3.159562793226    -1.931090642574     0.749078252742     1.007825032230
         H           -4.313802793226     0.184879357426    -0.028242747258     1.007825032230

  Basis Set: AUG-CC-PVTZ
    Blend: AUG-CC-PVTZ
  Basis Set: (AUG-CC-PVTZ AUX)
    Blend: AUG-CC-PVTZ-JKFIT
	 Reference Energy          =    -525.5217697869126141 [Eh]
	 Singles Energy            =      -0.0000000000000000 [Eh]
	 Same-Spin Energy          =      -0.5786133806519771 [Eh]
	 Opposite-Spin Energy      =      -1.7434860448061524 [Eh]
	 Correlation Energy        =      -2.3220994254581298 [Eh]
	 Total Energy              =    -527.8438692123706915 [Eh]

	 ================> DF-SCS-MP2 Energies <==================
	-----------------------------------------------------------
	 SCS Same-Spin Scale       =       0.3333333333333333 [-]
	 SCS Opposite-Spin Scale   =       1.2000000000000000 [-]
	 SCS Same-Spin Energy      =      -0.1928711268839924 [Eh]
	 SCS Opposite-Spin Energy  =      -2.0921832537673830 [Eh]
	 SCS Correlation Energy    =      -2.2850543806513754 [Eh]
	 SCS Total Energy          =    -527.8068241675639456 [Eh]
	-----------------------------------------------------------

  Dipole Moment: [D]
     X:    -2.2890      Y:     2.7199      Z:     0.3696     Total:     3.5741

*** Psi4 exiting successfully. Buy a developer a beer!
