                               Psi4 1.3.2 release

  ==> Input File <==

--------------------------------------------------------------------------
#psi4
#
memory 32 gb

molecule  {
0 1
  N        0.7480271    -0.2319211    -0.0317173
  N        1.3585440    -1.5263750    -0.2734470
  N       -1.0817850     0.9875590    -0.4601130
  N       -1.2686320    -1.2431920     0.4227390
  C        1.7597130     0.6951090     0.1272320
  C        2.9786120     0.0532150     0.0016160
  C       -0.5903530    -0.1795160    -0.0248380
  C        1.4539390     2.1247050     0.4316710
  C        2.6793880    -1.2992810    -0.2463060
  C       -2.4210880     1.0928180    -0.4382200
  C       -2.6039190    -1.1175230     0.3972460
  C       -3.2414650     0.0469210    -0.0276130
  H        3.9528590     0.5149220     0.0929350
  H        1.0131890     2.6387050    -0.4244530
  H        0.7544440     2.2203260     1.2670250
  H        2.3864280     2.6245280     0.7070350
  H        3.3561510    -2.1272050    -0.4162310
  H       -2.8304840     2.0415190    -0.7796900
  H       -3.1684390    -1.9801170     0.7461500
  H       -4.3226790     0.1358530    -0.0311710
units angstrom
no_reorient  #important for SAPT in psi4, default
symmetry c1  #important for SAPT in psi4, default
}

set PROPERTIES_ORIGIN ["COM"]
properties('MP2/aug-cc-pvtz', properties = ['dipole'])
--------------------------------------------------------------------------

    Molecular point group: c1
  Charge       = 0
  Multiplicity = 1
  Basis Set: AUG-CC-PVTZ
    Blend: AUG-CC-PVTZ
  Basis Set: (AUG-CC-PVTZ AUX)
    Blend: AUG-CC-PVTZ-JKFIT

    Orbital Energies [Eh]
    ---------------------

    Doubly Occupied:

       1A    -15.636413     2A    -15.586502     3A    -15.574362
       4A    -15.572689     5A    -11.359804     6A    -11.306619
       7A    -11.305689     8A    -11.297906     9A    -11.266606
      10A    -11.246809    11A    -11.234259    12A    -11.222572
      13A     -1.376593    14A     -1.299387    15A     -1.201840
      16A     -1.143521    17A     -1.082511    18A     -1.042765
      19A     -0.958449    20A     -0.906628    21A     -0.901050
      22A     -0.804570    23A     -0.791051    24A     -0.712967
      25A     -0.702333    26A     -0.680592    27A     -0.638879
      28A     -0.634610    29A     -0.606572    30A     -0.598370
      31A     -0.584207    32A     -0.573165    33A     -0.556721
      34A     -0.543981    35A     -0.539450    36A     -0.490655
      37A     -0.449049    38A     -0.426713    39A     -0.416350
      40A     -0.414284    41A     -0.342567    42A     -0.328752

  @DF-RHF Final Energy:  -525.53140678384011

   => Energetics <=

    Nuclear Repulsion Energy =            658.4203628859143009
    One-Electron Energy =               -2019.1859156723426167
    Two-Electron Energy =                 835.2341460025882043
    Total Energy =                       -525.5314067838401115
  Basis Set: (AUG-CC-PVTZ AUX)
    Blend: AUG-CC-PVTZ-RI
    Molecular point group: c1

    Geometry (in Angstrom), charge = 0, multiplicity = 1:

       Center              X                  Y                   Z               Mass
    ------------   -----------------  -----------------  -----------------  -----------------
         N            0.761060168896    -0.200137198247    -0.025617382839    14.003074004430
         N            1.371577068896    -1.494591098247    -0.267347082839    14.003074004430
         N           -1.068751931104     1.019342901753    -0.454013082839    14.003074004430
         N           -1.255598931104    -1.211408098247     0.428838917161    14.003074004430
         C            1.772746068896     0.726892901753     0.133331917161    12.000000000000
         C            2.991645068896     0.084998901753     0.007715917161    12.000000000000
         C           -0.577319931104    -0.147732098247    -0.018738082839    12.000000000000
         C            1.466972068896     2.156488901753     0.437770917161    12.000000000000
         C            2.692421068896    -1.267497098247    -0.240206082839    12.000000000000
         C           -2.408054931104     1.124601901753    -0.432120082839    12.000000000000
         C           -2.590885931104    -1.085739098247     0.403345917161    12.000000000000
         C           -3.228431931104     0.078704901753    -0.021513082839    12.000000000000
         H            3.965892068896     0.546705901753     0.099034917161     1.007825032230
         H            1.026222068896     2.670488901753    -0.418353082839     1.007825032230
         H            0.767477068896     2.252109901753     1.273124917161     1.007825032230
         H            2.399461068896     2.656311901753     0.713134917161     1.007825032230
         H            3.369184068896    -2.095421098247    -0.410131082839     1.007825032230
         H           -2.817450931104     2.073302901753    -0.773590082839     1.007825032230
         H           -3.155405931104    -1.948333098247     0.752249917161     1.007825032230
         H           -4.309645931104     0.167636901753    -0.025071082839     1.007825032230

  Basis Set: AUG-CC-PVTZ
    Blend: AUG-CC-PVTZ
  Basis Set: (AUG-CC-PVTZ AUX)
    Blend: AUG-CC-PVTZ-JKFIT
	 Reference Energy          =    -525.5314067838401115 [Eh]
	 Singles Energy            =      -0.0000000000000000 [Eh]
	 Same-Spin Energy          =      -0.5771638654626076 [Eh]
	 Opposite-Spin Energy      =      -1.7400716722709526 [Eh]
	 Correlation Energy        =      -2.3172355377335601 [Eh]
	 Total Energy              =    -527.8486423215737204 [Eh]

	 ================> DF-SCS-MP2 Energies <==================
	-----------------------------------------------------------
	 SCS Same-Spin Scale       =       0.3333333333333333 [-]
	 SCS Opposite-Spin Scale   =       1.2000000000000000 [-]
	 SCS Same-Spin Energy      =      -0.1923879551542025 [Eh]
	 SCS Opposite-Spin Energy  =      -2.0880860067251432 [Eh]
	 SCS Correlation Energy    =      -2.2804739618793457 [Eh]
	 SCS Total Energy          =    -527.8118807457194634 [Eh]
	-----------------------------------------------------------

  Dipole Moment: [D]
     X:    -1.9854      Y:     2.4343      Z:     0.4257     Total:     3.1700

*** Psi4 exiting successfully. Buy a developer a beer!
