                               Psi4 1.4a3.dev225

  ==> Input File <==

--------------------------------------------------------------------------
#psi4
#
memory 32 gb

molecule  {
0 1
  N        0.8160970    -0.2990240    -0.0443680
  N        1.3585440    -1.5263750    -0.2734470
  N       -1.0817850     0.9875590    -0.4601130
  N       -1.2686320    -1.2431920     0.4227390
  C        1.7597130     0.6951090     0.1272320
  C        2.9786120     0.0532150     0.0016160
  C       -0.5903530    -0.1795160    -0.0248380
  C        1.4539390     2.1247050     0.4316710
  C        2.6793880    -1.2992810    -0.2463060
  C       -2.4210880     1.0928180    -0.4382200
  C       -2.6039190    -1.1175230     0.3972460
  C       -3.2414650     0.0469210    -0.0276130
  H        3.9528590     0.5149220     0.0929350
  H        1.0131890     2.6387050    -0.4244530
  H        0.7544440     2.2203260     1.2670250
  H        2.3864280     2.6245280     0.7070350
  H        3.3561510    -2.1272050    -0.4162310
  H       -2.8304840     2.0415190    -0.7796900
  H       -3.1788130    -1.9959685     0.7525617
  H       -4.3226790     0.1358530    -0.0311710
units angstrom
no_reorient  #important for SAPT in psi4, default
symmetry c1  #important for SAPT in psi4, default
}

set PROPERTIES_ORIGIN ["COM"]
properties('MP2/aug-cc-pvtz', properties = ['dipole'])
--------------------------------------------------------------------------

    Molecular point group: c1
  Charge       = 0
  Multiplicity = 1
  Basis Set: AUG-CC-PVTZ
    Blend: AUG-CC-PVTZ
  Basis Set: (AUG-CC-PVTZ AUX)
    Blend: AUG-CC-PVTZ-JKFIT

    Orbital Energies [Eh]
    ---------------------

    Doubly Occupied:

       1A    -15.642177     2A    -15.582465     3A    -15.581500
       4A    -15.578834     5A    -11.367546     6A    -11.311689
       7A    -11.311634     8A    -11.286786     9A    -11.254574
      10A    -11.252851    11A    -11.234733    12A    -11.217350
      13A     -1.386388    14A     -1.312619    15A     -1.206002
      16A     -1.129391    17A     -1.084180    18A     -1.044982
      19A     -0.958828    20A     -0.907857    21A     -0.896428
      22A     -0.799948    23A     -0.794319    24A     -0.713166
      25A     -0.706772    26A     -0.682455    27A     -0.638142
      28A     -0.632778    29A     -0.606049    30A     -0.588840
      31A     -0.585962    32A     -0.575201    33A     -0.564001
      34A     -0.552734    35A     -0.535944    36A     -0.491752
      37A     -0.455107    38A     -0.430589    39A     -0.420057
      40A     -0.407785    41A     -0.338112    42A     -0.332413

  @DF-RHF Final Energy:  -525.54296846573436

   => Energetics <=

    Nuclear Repulsion Energy =            658.1679413537847267
    One-Electron Energy =               -2018.6199499083409137
    Two-Electron Energy =                 834.9090400888218255
    Total Energy =                       -525.5429684657343614
  Basis Set: (AUG-CC-PVTZ AUX)
    Blend: AUG-CC-PVTZ-RI
    Molecular point group: c1

    Geometry (in Angstrom), charge = 0, multiplicity = 1:

       Center              X                  Y                   Z               Mass
    ------------   -----------------  -----------------  -----------------  -----------------
         N            0.823240746509    -0.261270252660    -0.037201789370    14.003074004430
         N            1.365687746509    -1.488621252660    -0.266280789370    14.003074004430
         N           -1.074641253491     1.025312747340    -0.452946789370    14.003074004430
         N           -1.261488253491    -1.205438252660     0.429905210630    14.003074004430
         C            1.766856746509     0.732862747340     0.134398210630    12.000000000000
         C            2.985755746509     0.090968747340     0.008782210630    12.000000000000
         C           -0.583209253491    -0.141762252660    -0.017671789370    12.000000000000
         C            1.461082746509     2.162458747340     0.438837210630    12.000000000000
         C            2.686531746509    -1.261527252660    -0.239139789370    12.000000000000
         C           -2.413944253491     1.130571747340    -0.431053789370    12.000000000000
         C           -2.596775253491    -1.079769252660     0.404412210630    12.000000000000
         C           -3.234321253491     0.084674747340    -0.020446789370    12.000000000000
         H            3.960002746509     0.552675747340     0.100101210630     1.007825032230
         H            1.020332746509     2.676458747340    -0.417286789370     1.007825032230
         H            0.761587746509     2.258079747340     1.274191210630     1.007825032230
         H            2.393571746509     2.662281747340     0.714201210630     1.007825032230
         H            3.363294746509    -2.089451252660    -0.409064789370     1.007825032230
         H           -2.823340253491     2.079272747340    -0.772523789370     1.007825032230
         H           -3.171669253491    -1.958214752660     0.759727910630     1.007825032230
         H           -4.315535253491     0.173606747340    -0.024004789370     1.007825032230

  Basis Set: AUG-CC-PVTZ
    Blend: AUG-CC-PVTZ
  Basis Set: (AUG-CC-PVTZ AUX)
    Blend: AUG-CC-PVTZ-JKFIT
	 Reference Energy          =    -525.5429684657343614 [Eh]
	 Singles Energy            =      -0.0000000000000000 [Eh]
	 Same-Spin Energy          =      -0.5776077940306318 [Eh]
	 Opposite-Spin Energy      =      -1.7387927688399134 [Eh]
	 Correlation Energy        =      -2.3164005628705451 [Eh]
	 Total Energy              =    -527.8593690286048741 [Eh]

	 ================> DF-SCS-MP2 Energies <==================
	-----------------------------------------------------------
	 SCS Same-Spin Scale       =       0.3333333333333333 [-]
	 SCS Opposite-Spin Scale   =       1.2000000000000000 [-]
	 SCS Same-Spin Energy      =      -0.1925359313435439 [Eh]
	 SCS Opposite-Spin Energy  =      -2.0865513226078960 [Eh]
	 SCS Correlation Energy    =      -2.2790872539514400 [Eh]
	 SCS Total Energy          =    -527.8220557196857499 [Eh]
	-----------------------------------------------------------

  Dipole Moment: [D]
     X:    -2.5720      Y:     2.5578      Z:     0.4387     Total:     3.6538

*** Psi4 exiting successfully. Buy a developer a beer!
