                               Psi4 1.4a3.dev225

  ==> Input File <==

--------------------------------------------------------------------------
#psi4
#
memory 32 gb

molecule  {
0 1
  N        0.8160970    -0.2990240    -0.0443680
  N        1.3585440    -1.5263750    -0.2734470
  N       -1.0817850     0.9875590    -0.4601130
  N       -1.2686320    -1.2431920     0.4227390
  C        1.7597130     0.6951090     0.1272320
  C        2.9609890     0.0624956     0.0034322
  C       -0.5903530    -0.1795160    -0.0248380
  C        1.4539390     2.1247050     0.4316710
  C        2.6793880    -1.2992810    -0.2463060
  C       -2.4210880     1.0928180    -0.4382200
  C       -2.6039190    -1.1175230     0.3972460
  C       -3.2414650     0.0469210    -0.0276130
  H        3.9528590     0.5149220     0.0929350
  H        1.0131890     2.6387050    -0.4244530
  H        0.7544440     2.2203260     1.2670250
  H        2.3864280     2.6245280     0.7070350
  H        3.3561510    -2.1272050    -0.4162310
  H       -2.8304840     2.0415190    -0.7796900
  H       -3.1684390    -1.9801170     0.7461500
  H       -4.3226790     0.1358530    -0.0311710
units angstrom
no_reorient  #important for SAPT in psi4, default
symmetry c1  #important for SAPT in psi4, default
}

set PROPERTIES_ORIGIN ["COM"]
properties('MP2/aug-cc-pvtz', properties = ['dipole'])
--------------------------------------------------------------------------

    Molecular point group: c1
  Charge       = 0
  Multiplicity = 1
  Basis Set: AUG-CC-PVTZ
    Blend: AUG-CC-PVTZ
  Basis Set: (AUG-CC-PVTZ AUX)
    Blend: AUG-CC-PVTZ-JKFIT

    Orbital Energies [Eh]
    ---------------------

    Doubly Occupied:

       1A    -15.640712     2A    -15.582799     3A    -15.581901
       4A    -15.578162     5A    -11.366922     6A    -11.311188
       7A    -11.309153     8A    -11.283796     9A    -11.255088
      10A    -11.252236    11A    -11.234287    12A    -11.216783
      13A     -1.386616    14A     -1.312485    15A     -1.205620
      16A     -1.129122    17A     -1.086373    18A     -1.044867
      19A     -0.958858    20A     -0.908780    21A     -0.895744
      22A     -0.801108    23A     -0.793780    24A     -0.713181
      25A     -0.707518    26A     -0.682449    27A     -0.638427
      28A     -0.632791    29A     -0.606352    30A     -0.588919
      31A     -0.586461    32A     -0.575122    33A     -0.561394
      34A     -0.552471    35A     -0.538990    36A     -0.491391
      37A     -0.454940    38A     -0.430191    39A     -0.419856
      40A     -0.407479    41A     -0.337147    42A     -0.335557

  @DF-RHF Final Energy:  -525.54377914097381

   => Energetics <=

    Nuclear Repulsion Energy =            658.6475849508918827
    One-Electron Energy =               -2019.5886902761644706
    Two-Electron Energy =                 835.3973261842986631
    Total Energy =                       -525.5437791409738111
  Basis Set: (AUG-CC-PVTZ AUX)
    Blend: AUG-CC-PVTZ-RI
    Molecular point group: c1

    Geometry (in Angstrom), charge = 0, multiplicity = 1:

       Center              X                  Y                   Z               Mass
    ------------   -----------------  -----------------  -----------------  -----------------
         N            0.824496538814    -0.262065772392    -0.037297572835    14.003074004430
         N            1.366943538814    -1.489416772392    -0.266376572835    14.003074004430
         N           -1.073385461186     1.024517227608    -0.453042572835    14.003074004430
         N           -1.260232461186    -1.206233772392     0.429809427165    14.003074004430
         C            1.768112538814     0.732067227608     0.134302427165    12.000000000000
         C            2.969388538814     0.099453827608     0.010502627165    12.000000000000
         C           -0.581953461186    -0.142557772392    -0.017767572835    12.000000000000
         C            1.462338538814     2.161663227608     0.438741427165    12.000000000000
         C            2.687787538814    -1.262322772392    -0.239235572835    12.000000000000
         C           -2.412688461186     1.129776227608    -0.431149572835    12.000000000000
         C           -2.595519461186    -1.080564772392     0.404316427165    12.000000000000
         C           -3.233065461186     0.083879227608    -0.020542572835    12.000000000000
         H            3.961258538814     0.551880227608     0.100005427165     1.007825032230
         H            1.021588538814     2.675663227608    -0.417382572835     1.007825032230
         H            0.762843538814     2.257284227608     1.274095427165     1.007825032230
         H            2.394827538814     2.661486227608     0.714105427165     1.007825032230
         H            3.364550538814    -2.090246772392    -0.409160572835     1.007825032230
         H           -2.822084461186     2.078477227608    -0.772619572835     1.007825032230
         H           -3.160039461186    -1.943158772392     0.753220427165     1.007825032230
         H           -4.314279461186     0.172811227608    -0.024100572835     1.007825032230

  Basis Set: AUG-CC-PVTZ
    Blend: AUG-CC-PVTZ
  Basis Set: (AUG-CC-PVTZ AUX)
    Blend: AUG-CC-PVTZ-JKFIT
	 Reference Energy          =    -525.5437791409738111 [Eh]
	 Singles Energy            =      -0.0000000000000000 [Eh]
	 Same-Spin Energy          =      -0.5773153948971286 [Eh]
	 Opposite-Spin Energy      =      -1.7383196092979247 [Eh]
	 Correlation Energy        =      -2.3156350041950535 [Eh]
	 Total Energy              =    -527.8594141451688984 [Eh]

	 ================> DF-SCS-MP2 Energies <==================
	-----------------------------------------------------------
	 SCS Same-Spin Scale       =       0.3333333333333333 [-]
	 SCS Opposite-Spin Scale   =       1.2000000000000000 [-]
	 SCS Same-Spin Energy      =      -0.1924384649657095 [Eh]
	 SCS Opposite-Spin Energy  =      -2.0859835311575097 [Eh]
	 SCS Correlation Energy    =      -2.2784219961232193 [Eh]
	 SCS Total Energy          =    -527.8222011370970677 [Eh]
	-----------------------------------------------------------

  Dipole Moment: [D]
     X:    -2.5332      Y:     2.5407      Z:     0.4367     Total:     3.6143

*** Psi4 exiting successfully. Buy a developer a beer!
