                               Psi4 1.4a3.dev225

  ==> Input File <==

--------------------------------------------------------------------------
#psi4
#
memory 32 gb

molecule  {
0 1
  N        0.8160970    -0.2990240    -0.0443680
  N        1.3585440    -1.5263750    -0.2734470
  N       -1.0817850     0.9875590    -0.4601130
  N       -1.2686320    -1.2431920     0.4227390
  C        1.7597130     0.6951090     0.1272320
  C        2.9786120     0.0532150     0.0016160
  C       -0.6156888    -0.2192475    -0.0081196
  C        1.4539390     2.1247050     0.4316710
  C        2.6793880    -1.2992810    -0.2463060
  C       -2.4210880     1.0928180    -0.4382200
  C       -2.6039190    -1.1175230     0.3972460
  C       -3.2414650     0.0469210    -0.0276130
  H        3.9528590     0.5149220     0.0929350
  H        1.0131890     2.6387050    -0.4244530
  H        0.7544440     2.2203260     1.2670250
  H        2.3864280     2.6245280     0.7070350
  H        3.3561510    -2.1272050    -0.4162310
  H       -2.8304840     2.0415190    -0.7796900
  H       -3.1684390    -1.9801170     0.7461500
  H       -4.3226790     0.1358530    -0.0311710
units angstrom
no_reorient  #important for SAPT in psi4, default
symmetry c1  #important for SAPT in psi4, default
}

set PROPERTIES_ORIGIN ["COM"]
properties('MP2/aug-cc-pvtz', properties = ['dipole'])
--------------------------------------------------------------------------

    Molecular point group: c1
  Charge       = 0
  Multiplicity = 1
  Basis Set: AUG-CC-PVTZ
    Blend: AUG-CC-PVTZ
  Basis Set: (AUG-CC-PVTZ AUX)
    Blend: AUG-CC-PVTZ-JKFIT

    Orbital Energies [Eh]
    ---------------------

    Doubly Occupied:

       1A    -15.639546     2A    -15.585567     3A    -15.578760
       4A    -15.578204     5A    -11.366870     6A    -11.312959
       7A    -11.312582     8A    -11.284838     9A    -11.254715
      10A    -11.251631    11A    -11.233117    12A    -11.215153
      13A     -1.383205    14A     -1.317716    15A     -1.211579
      16A     -1.124590    17A     -1.082773    18A     -1.044521
      19A     -0.956654    20A     -0.913929    21A     -0.894303
      22A     -0.796256    23A     -0.794196    24A     -0.714080
      25A     -0.709453    26A     -0.680847    27A     -0.636751
      28A     -0.633813    29A     -0.608071    30A     -0.587676
      31A     -0.585588    32A     -0.575862    33A     -0.561954
      34A     -0.551483    35A     -0.534122    36A     -0.492847
      37A     -0.453257    38A     -0.434588    39A     -0.424477
      40A     -0.406130    41A     -0.338599    42A     -0.330227

  @DF-RHF Final Energy:  -525.54066598145255

   => Energetics <=

    Nuclear Repulsion Energy =            658.2050524429733969
    One-Electron Energy =               -2018.7044542897438077
    Two-Electron Energy =                 834.9587358653179763
    Total Energy =                       -525.5406659814525483
  Basis Set: (AUG-CC-PVTZ AUX)
    Blend: AUG-CC-PVTZ-RI
    Molecular point group: c1

    Geometry (in Angstrom), charge = 0, multiplicity = 1:

       Center              X                  Y                   Z               Mass
    ------------   -----------------  -----------------  -----------------  -----------------
         N            0.825074728163    -0.258391584785    -0.038414714899    14.003074004430
         N            1.367521728163    -1.485742584785    -0.267493714899    14.003074004430
         N           -1.072807271837     1.028191415215    -0.454159714899    14.003074004430
         N           -1.259654271837    -1.202559584785     0.428692285101    14.003074004430
         C            1.768690728163     0.735741415215     0.133185285101    12.000000000000
         C            2.987589728163     0.093847415215     0.007569285101    12.000000000000
         C           -0.606711071837    -0.178615084785    -0.002166314899    12.000000000000
         C            1.462916728163     2.165337415215     0.437624285101    12.000000000000
         C            2.688365728163    -1.258648584785    -0.240352714899    12.000000000000
         C           -2.412110271837     1.133450415215    -0.432266714899    12.000000000000
         C           -2.594941271837    -1.076890584785     0.403199285101    12.000000000000
         C           -3.232487271837     0.087553415215    -0.021659714899    12.000000000000
         H            3.961836728163     0.555554415215     0.098888285101     1.007825032230
         H            1.022166728163     2.679337415215    -0.418499714899     1.007825032230
         H            0.763421728163     2.260958415215     1.272978285101     1.007825032230
         H            2.395405728163     2.665160415215     0.712988285101     1.007825032230
         H            3.365128728163    -2.086572584785    -0.410277714899     1.007825032230
         H           -2.821506271837     2.082151415215    -0.773736714899     1.007825032230
         H           -3.159461271837    -1.939484584785     0.752103285101     1.007825032230
         H           -4.313701271837     0.176485415215    -0.025217714899     1.007825032230

  Basis Set: AUG-CC-PVTZ
    Blend: AUG-CC-PVTZ
  Basis Set: (AUG-CC-PVTZ AUX)
    Blend: AUG-CC-PVTZ-JKFIT
	 Reference Energy          =    -525.5406659814525483 [Eh]
	 Singles Energy            =      -0.0000000000000000 [Eh]
	 Same-Spin Energy          =      -0.5774785098725345 [Eh]
	 Opposite-Spin Energy      =      -1.7386540790174854 [Eh]
	 Correlation Energy        =      -2.3161325888900199 [Eh]
	 Total Energy              =    -527.8567985703425620 [Eh]

	 ================> DF-SCS-MP2 Energies <==================
	-----------------------------------------------------------
	 SCS Same-Spin Scale       =       0.3333333333333333 [-]
	 SCS Opposite-Spin Scale   =       1.2000000000000000 [-]
	 SCS Same-Spin Energy      =      -0.1924928366241782 [Eh]
	 SCS Opposite-Spin Energy  =      -2.0863848948209824 [Eh]
	 SCS Correlation Energy    =      -2.2788777314451605 [Eh]
	 SCS Total Energy          =    -527.8195437128977119 [Eh]
	-----------------------------------------------------------

  Dipole Moment: [D]
     X:    -2.8307      Y:     2.5219      Z:     0.4706     Total:     3.8202

*** Psi4 exiting successfully. Buy a developer a beer!
