                               Psi4 1.3.2 release

  ==> Input File <==

--------------------------------------------------------------------------
#psi4
#
memory 32 gb

molecule  {
0 1
  N        0.8160970    -0.2990240    -0.0443680
  N        1.3673132    -1.5715441    -0.2819407
  N       -1.0817850     0.9875590    -0.4601130
  N       -1.2686320    -1.2431920     0.4227390
  C        1.7597130     0.6951090     0.1272320
  C        2.9786120     0.0532150     0.0016160
  C       -0.5903530    -0.1795160    -0.0248380
  C        1.4539390     2.1247050     0.4316710
  C        2.6793880    -1.2992810    -0.2463060
  C       -2.4210880     1.0928180    -0.4382200
  C       -2.6039190    -1.1175230     0.3972460
  C       -3.2414650     0.0469210    -0.0276130
  H        3.9528590     0.5149220     0.0929350
  H        1.0131890     2.6387050    -0.4244530
  H        0.7544440     2.2203260     1.2670250
  H        2.3864280     2.6245280     0.7070350
  H        3.3561510    -2.1272050    -0.4162310
  H       -2.8304840     2.0415190    -0.7796900
  H       -3.1684390    -1.9801170     0.7461500
  H       -4.3226790     0.1358530    -0.0311710
units angstrom
no_reorient  #important for SAPT in psi4, default
symmetry c1  #important for SAPT in psi4, default
}

set PROPERTIES_ORIGIN ["COM"]
properties('MP2/aug-cc-pvtz', properties = ['dipole'])
--------------------------------------------------------------------------

    Molecular point group: c1
  Charge       = 0
  Multiplicity = 1
  Basis Set: AUG-CC-PVTZ
    Blend: AUG-CC-PVTZ
  Basis Set: (AUG-CC-PVTZ AUX)
    Blend: AUG-CC-PVTZ-JKFIT

    Orbital Energies [Eh]
    ---------------------

    Doubly Occupied:

       1A    -15.638800     2A    -15.586197     3A    -15.580881
       4A    -15.577046     5A    -11.365975     6A    -11.310511
       7A    -11.308414     8A    -11.291977     9A    -11.258200
      10A    -11.251336    11A    -11.236745    12A    -11.217912
      13A     -1.373688    14A     -1.307636    15A     -1.204703
      16A     -1.129857    17A     -1.084666    18A     -1.042432
      19A     -0.961762    20A     -0.907853    21A     -0.893917
      22A     -0.797808    23A     -0.790347    24A     -0.713040
      25A     -0.705941    26A     -0.682319    27A     -0.634183
      28A     -0.631766    29A     -0.606443    30A     -0.588241
      31A     -0.584340    32A     -0.572700    33A     -0.563628
      34A     -0.549735    35A     -0.537127    36A     -0.490770
      37A     -0.459946    38A     -0.429605    39A     -0.419727
      40A     -0.408406    41A     -0.340886    42A     -0.331929

  @DF-RHF Final Energy:  -525.54007351525240

   => Energetics <=

    Nuclear Repulsion Energy =            656.9262985686975753
    One-Electron Energy =               -2016.1939510176596286
    Two-Electron Energy =                 833.7275789337096512
    Total Energy =                       -525.5400735152524021
  Basis Set: (AUG-CC-PVTZ AUX)
    Blend: AUG-CC-PVTZ-RI
    Molecular point group: c1

    Geometry (in Angstrom), charge = 0, multiplicity = 1:

       Center              X                  Y                   Z               Mass
    ------------   -----------------  -----------------  -----------------  -----------------
         N            0.822408317836    -0.257418738614    -0.036418407438    14.003074004430
         N            1.373624517836    -1.529938838614    -0.273991107438    14.003074004430
         N           -1.075473682164     1.029164261386    -0.452163407438    14.003074004430
         N           -1.262320682164    -1.201586738614     0.430688592562    14.003074004430
         C            1.766024317836     0.736714261386     0.135181592562    12.000000000000
         C            2.984923317836     0.094820261386     0.009565592562    12.000000000000
         C           -0.584041682164    -0.137910738614    -0.016888407438    12.000000000000
         C            1.460250317836     2.166310261386     0.439620592562    12.000000000000
         C            2.685699317836    -1.257675738614    -0.238356407438    12.000000000000
         C           -2.414776682164     1.134423261386    -0.430270407438    12.000000000000
         C           -2.597607682164    -1.075917738614     0.405195592562    12.000000000000
         C           -3.235153682164     0.088526261386    -0.019663407438    12.000000000000
         H            3.959170317836     0.556527261386     0.100884592562     1.007825032230
         H            1.019500317836     2.680310261386    -0.416503407438     1.007825032230
         H            0.760755317836     2.261931261386     1.274974592562     1.007825032230
         H            2.392739317836     2.666133261386     0.714984592562     1.007825032230
         H            3.362462317836    -2.085599738614    -0.408281407438     1.007825032230
         H           -2.824172682164     2.083124261386    -0.771740407438     1.007825032230
         H           -3.162127682164    -1.938511738614     0.754099592562     1.007825032230
         H           -4.316367682164     0.177458261386    -0.023221407438     1.007825032230

  Basis Set: AUG-CC-PVTZ
    Blend: AUG-CC-PVTZ
  Basis Set: (AUG-CC-PVTZ AUX)
    Blend: AUG-CC-PVTZ-JKFIT
	 Reference Energy          =    -525.5400735152524021 [Eh]
	 Singles Energy            =      -0.0000000000000000 [Eh]
	 Same-Spin Energy          =      -0.5774600836751151 [Eh]
	 Opposite-Spin Energy      =      -1.7396662753352641 [Eh]
	 Correlation Energy        =      -2.3171263590103792 [Eh]
	 Total Energy              =    -527.8571998742627329 [Eh]

	 ================> DF-SCS-MP2 Energies <==================
	-----------------------------------------------------------
	 SCS Same-Spin Scale       =       0.3333333333333333 [-]
	 SCS Opposite-Spin Scale   =       1.2000000000000000 [-]
	 SCS Same-Spin Energy      =      -0.1924866945583717 [Eh]
	 SCS Opposite-Spin Energy  =      -2.0875995304023167 [Eh]
	 SCS Correlation Energy    =      -2.2800862249606886 [Eh]
	 SCS Total Energy          =    -527.8201597402130574 [Eh]
	-----------------------------------------------------------

  Dipole Moment: [D]
     X:    -2.4700      Y:     2.6077      Z:     0.4511     Total:     3.6200

*** Psi4 exiting successfully. Buy a developer a beer!
