                               Psi4 1.3.2 release

  ==> Input File <==

--------------------------------------------------------------------------
#psi4
#
memory 32 gb

molecule  {
0 1
  N        0.8160970    -0.2990240    -0.0443680
  N        1.3585440    -1.5263750    -0.2734470
  N       -1.0817850     0.9875590    -0.4601130
  N       -1.2686320    -1.2431920     0.4227390
  C        1.7597130     0.6951090     0.1272320
  C        2.9786120     0.0532150     0.0016160
  C       -0.5903530    -0.1795160    -0.0248380
  C        1.4539390     2.1247050     0.4316710
  C        2.6793880    -1.2992810    -0.2463060
  C       -2.4210880     1.0928180    -0.4382200
  C       -2.6039190    -1.1175230     0.3972460
  C       -3.2843097     0.0258989    -0.0181511
  H        3.9528590     0.5149220     0.0929350
  H        1.0131890     2.6387050    -0.4244530
  H        0.7544440     2.2203260     1.2670250
  H        2.3864280     2.6245280     0.7070350
  H        3.3561510    -2.1272050    -0.4162310
  H       -2.8304840     2.0415190    -0.7796900
  H       -3.1684390    -1.9801170     0.7461500
  H       -4.3226790     0.1358530    -0.0311710
units angstrom
no_reorient  #important for SAPT in psi4, default
symmetry c1  #important for SAPT in psi4, default
}

set PROPERTIES_ORIGIN ["COM"]
properties('MP2/aug-cc-pvtz', properties = ['dipole'])
--------------------------------------------------------------------------

    Molecular point group: c1
  Charge       = 0
  Multiplicity = 1
  Basis Set: AUG-CC-PVTZ
    Blend: AUG-CC-PVTZ
  Basis Set: (AUG-CC-PVTZ AUX)
    Blend: AUG-CC-PVTZ-JKFIT

    Orbital Energies [Eh]
    ---------------------

    Doubly Occupied:

       1A    -15.642740     2A    -15.584199     3A    -15.581875
       4A    -15.577863     5A    -11.368533     6A    -11.318080
       7A    -11.307980     8A    -11.287260     9A    -11.255013
      10A    -11.253755    11A    -11.235187    12A    -11.217801
      13A     -1.386699    14A     -1.311330    15A     -1.205687
      16A     -1.128001    17A     -1.084196    18A     -1.043716
      19A     -0.959311    20A     -0.906754    21A     -0.897435
      22A     -0.800437    23A     -0.794870    24A     -0.713148
      25A     -0.705394    26A     -0.687587    27A     -0.641346
      28A     -0.637666    29A     -0.603454    30A     -0.589603
      31A     -0.583129    32A     -0.574314    33A     -0.564682
      34A     -0.552376    35A     -0.536581    36A     -0.495258
      37A     -0.455213    38A     -0.430859    39A     -0.419039
      40A     -0.405159    41A     -0.337423    42A     -0.332799

  @DF-RHF Final Energy:  -525.54019339515389

   => Energetics <=

    Nuclear Repulsion Energy =            657.3694051301309855
    One-Electron Energy =               -2016.9916948033353492
    Two-Electron Energy =                 834.0820962780503578
    Total Energy =                       -525.5401933951538922
  Basis Set: (AUG-CC-PVTZ AUX)
    Blend: AUG-CC-PVTZ-RI
    Molecular point group: c1

    Geometry (in Angstrom), charge = 0, multiplicity = 1:

       Center              X                  Y                   Z               Mass
    ------------   -----------------  -----------------  -----------------  -----------------
         N            0.826387281255    -0.259794133250    -0.037870732038    14.003074004430
         N            1.368834281255    -1.487145133250    -0.266949732038    14.003074004430
         N           -1.071494718745     1.026788866750    -0.453615732038    14.003074004430
         N           -1.258341718745    -1.203962133250     0.429236267962    14.003074004430
         C            1.770003281255     0.734338866750     0.133729267962    12.000000000000
         C            2.988902281255     0.092444866750     0.008113267962    12.000000000000
         C           -0.580062718745    -0.140286133250    -0.018340732038    12.000000000000
         C            1.464229281255     2.163934866750     0.438168267962    12.000000000000
         C            2.689678281255    -1.260051133250    -0.239808732038    12.000000000000
         C           -2.410797718745     1.132047866750    -0.431722732038    12.000000000000
         C           -2.593628718745    -1.078293133250     0.403743267962    12.000000000000
         C           -3.274019418745     0.065128766750    -0.011653832038    12.000000000000
         H            3.963149281255     0.554151866750     0.099432267962     1.007825032230
         H            1.023479281255     2.677934866750    -0.417955732038     1.007825032230
         H            0.764734281255     2.259555866750     1.273522267962     1.007825032230
         H            2.396718281255     2.663757866750     0.713532267962     1.007825032230
         H            3.366441281255    -2.087975133250    -0.409733732038     1.007825032230
         H           -2.820193718745     2.080748866750    -0.773192732038     1.007825032230
         H           -3.158148718745    -1.940887133250     0.752647267962     1.007825032230
         H           -4.312388718745     0.175082866750    -0.024673732038     1.007825032230

  Basis Set: AUG-CC-PVTZ
    Blend: AUG-CC-PVTZ
  Basis Set: (AUG-CC-PVTZ AUX)
    Blend: AUG-CC-PVTZ-JKFIT
	 Reference Energy          =    -525.5401933951538922 [Eh]
	 Singles Energy            =      -0.0000000000000000 [Eh]
	 Same-Spin Energy          =      -0.5774185000942952 [Eh]
	 Opposite-Spin Energy      =      -1.7388115913238744 [Eh]
	 Correlation Energy        =      -2.3162300914181695 [Eh]
	 Total Energy              =    -527.8564234865721119 [Eh]

	 ================> DF-SCS-MP2 Energies <==================
	-----------------------------------------------------------
	 SCS Same-Spin Scale       =       0.3333333333333333 [-]
	 SCS Opposite-Spin Scale   =       1.2000000000000000 [-]
	 SCS Same-Spin Energy      =      -0.1924728333647651 [Eh]
	 SCS Opposite-Spin Energy  =      -2.0865739095886493 [Eh]
	 SCS Correlation Energy    =      -2.2790467429534145 [Eh]
	 SCS Total Energy          =    -527.8192401381072614 [Eh]
	-----------------------------------------------------------

  Dipole Moment: [D]
     X:    -2.5515      Y:     2.5986      Z:     0.4226     Total:     3.6662

*** Psi4 exiting successfully. Buy a developer a beer!
