                               Psi4 1.3.2 release

  ==> Input File <==

--------------------------------------------------------------------------
#psi4
#
memory 32 gb

molecule  {
0 1
  N        0.8160970    -0.2990240    -0.0443680
  N        1.3585440    -1.5263750    -0.2734470
  N       -1.0817850     0.9875590    -0.4601130
  N       -1.2686320    -1.2431920     0.4227390
  C        1.7597130     0.6951090     0.1272320
  C        2.9786120     0.0532150     0.0016160
  C       -0.5903530    -0.1795160    -0.0248380
  C        1.4539390     2.1247050     0.4316710
  C        2.8764555    -1.2653990    -0.2422566
  C       -2.4210880     1.0928180    -0.4382200
  C       -2.6039190    -1.1175230     0.3972460
  C       -3.2414650     0.0469210    -0.0276130
  H        3.9528590     0.5149220     0.0929350
  H        1.0131890     2.6387050    -0.4244530
  H        0.7544440     2.2203260     1.2670250
  H        2.3864280     2.6245280     0.7070350
  H        3.3561510    -2.1272050    -0.4162310
  H       -2.8304840     2.0415190    -0.7796900
  H       -3.1684390    -1.9801170     0.7461500
  H       -4.3226790     0.1358530    -0.0311710
units angstrom
no_reorient  #important for SAPT in psi4, default
symmetry c1  #important for SAPT in psi4, default
}

set PROPERTIES_ORIGIN ["COM"]
properties('MP2/aug-cc-pvtz', properties = ['dipole'])
--------------------------------------------------------------------------

    Molecular point group: c1
  Charge       = 0
  Multiplicity = 1
  Basis Set: AUG-CC-PVTZ
    Blend: AUG-CC-PVTZ
  Basis Set: (AUG-CC-PVTZ AUX)
    Blend: AUG-CC-PVTZ-JKFIT

    Orbital Energies [Eh]
    ---------------------

    Doubly Occupied:

       1A    -15.656657     2A    -15.586888     3A    -15.585441
       4A    -15.582681     5A    -11.371010     6A    -11.314011
       7A    -11.311797     8A    -11.283104     9A    -11.257785
      10A    -11.256570    11A    -11.234456    12A    -11.220923
      13A     -1.377415    14A     -1.307213    15A     -1.209236
      16A     -1.115099    17A     -1.073617    18A     -1.048827
      19A     -0.954255    20A     -0.910679    21A     -0.905883
      22A     -0.815154    23A     -0.793036    24A     -0.715463
      25A     -0.707146    26A     -0.686248    27A     -0.637276
      28A     -0.633705    29A     -0.608524    30A     -0.595828
      31A     -0.589252    32A     -0.580240    33A     -0.552629
      34A     -0.545772    35A     -0.543455    36A     -0.494553
      37A     -0.439073    38A     -0.431903    39A     -0.417295
      40A     -0.407508    41A     -0.349526    42A     -0.302783

  @DF-RHF Final Energy:  -525.48830879401612

   => Energetics <=

    Nuclear Repulsion Energy =            655.0129928868655043
    One-Electron Energy =               -2012.1827647712673297
    Two-Electron Energy =                 831.6814630903857051
    Total Energy =                       -525.4883087940161204
  Basis Set: (AUG-CC-PVTZ AUX)
    Blend: AUG-CC-PVTZ-RI
    Molecular point group: c1

    Geometry (in Angstrom), charge = 0, multiplicity = 1:

       Center              X                  Y                   Z               Mass
    ------------   -----------------  -----------------  -----------------  -----------------
         N            0.808402285062    -0.263910014099    -0.037464984469    14.003074004430
         N            1.350849285062    -1.491261014099    -0.266543984469    14.003074004430
         N           -1.089479714938     1.022672985901    -0.453209984469    14.003074004430
         N           -1.276326714938    -1.208078014099     0.429642015531    14.003074004430
         C            1.752018285062     0.730222985901     0.134135015531    12.000000000000
         C            2.970917285062     0.088328985901     0.008519015531    12.000000000000
         C           -0.598047714938    -0.144402014099    -0.017934984469    12.000000000000
         C            1.446244285062     2.159818985901     0.438574015531    12.000000000000
         C            2.868760785062    -1.230285014099    -0.235353584469    12.000000000000
         C           -2.428782714938     1.127931985901    -0.431316984469    12.000000000000
         C           -2.611613714938    -1.082409014099     0.404149015531    12.000000000000
         C           -3.249159714938     0.082034985901    -0.020709984469    12.000000000000
         H            3.945164285062     0.550035985901     0.099838015531     1.007825032230
         H            1.005494285062     2.673818985901    -0.417549984469     1.007825032230
         H            0.746749285062     2.255439985901     1.273928015531     1.007825032230
         H            2.378733285062     2.659641985901     0.713938015531     1.007825032230
         H            3.348456285062    -2.092091014099    -0.409327984469     1.007825032230
         H           -2.838178714938     2.076632985901    -0.772786984469     1.007825032230
         H           -3.176133714938    -1.945003014099     0.753053015531     1.007825032230
         H           -4.330373714938     0.170966985901    -0.024267984469     1.007825032230

  Basis Set: AUG-CC-PVTZ
    Blend: AUG-CC-PVTZ
  Basis Set: (AUG-CC-PVTZ AUX)
    Blend: AUG-CC-PVTZ-JKFIT
	 Reference Energy          =    -525.4883087940161204 [Eh]
	 Singles Energy            =      -0.0000000000000000 [Eh]
	 Same-Spin Energy          =      -0.5845246724093870 [Eh]
	 Opposite-Spin Energy      =      -1.7518536991729685 [Eh]
	 Correlation Energy        =      -2.3363783715823554 [Eh]
	 Total Energy              =    -527.8246871655984478 [Eh]

	 ================> DF-SCS-MP2 Energies <==================
	-----------------------------------------------------------
	 SCS Same-Spin Scale       =       0.3333333333333333 [-]
	 SCS Opposite-Spin Scale   =       1.2000000000000000 [-]
	 SCS Same-Spin Energy      =      -0.1948415574697956 [Eh]
	 SCS Opposite-Spin Energy  =      -2.1022244390075620 [Eh]
	 SCS Correlation Energy    =      -2.2970659964773574 [Eh]
	 SCS Total Energy          =    -527.7853747904935062 [Eh]
	-----------------------------------------------------------

  Dipole Moment: [D]
     X:    -2.9043      Y:     2.6180      Z:     0.4573     Total:     3.9367

*** Psi4 exiting successfully. Buy a developer a beer!
