                               Psi4 1.3.2 release

  ==> Input File <==

--------------------------------------------------------------------------
#psi4
#
memory 32 gb

molecule  {
0 1
  N        0.8160970    -0.2990240    -0.0443680
  N        1.3585440    -1.5263750    -0.2734470
  N       -1.0817850     0.9875590    -0.4601130
  N       -1.2627478    -1.1126526     0.3713600
  C        1.7597130     0.6951090     0.1272320
  C        2.9786120     0.0532150     0.0016160
  C       -0.5903530    -0.1795160    -0.0248380
  C        1.4539390     2.1247050     0.4316710
  C        2.6793880    -1.2992810    -0.2463060
  C       -2.4210880     1.0928180    -0.4382200
  C       -2.6039190    -1.1175230     0.3972460
  C       -3.2414650     0.0469210    -0.0276130
  H        3.9528590     0.5149220     0.0929350
  H        1.0131890     2.6387050    -0.4244530
  H        0.7544440     2.2203260     1.2670250
  H        2.3864280     2.6245280     0.7070350
  H        3.3561510    -2.1272050    -0.4162310
  H       -2.8304840     2.0415190    -0.7796900
  H       -3.1684390    -1.9801170     0.7461500
  H       -4.3226790     0.1358530    -0.0311710
units angstrom
no_reorient  #important for SAPT in psi4, default
symmetry c1  #important for SAPT in psi4, default
}

set PROPERTIES_ORIGIN ["COM"]
properties('MP2/aug-cc-pvtz', properties = ['dipole'])
--------------------------------------------------------------------------

    Molecular point group: c1
  Charge       = 0
  Multiplicity = 1
  Basis Set: AUG-CC-PVTZ
    Blend: AUG-CC-PVTZ
  Basis Set: (AUG-CC-PVTZ AUX)
    Blend: AUG-CC-PVTZ-JKFIT

    Orbital Energies [Eh]
    ---------------------

    Doubly Occupied:

       1A    -15.635905     2A    -15.578698     3A    -15.576532
       4A    -15.558780     5A    -11.347736     6A    -11.314911
       7A    -11.309467     8A    -11.283309     9A    -11.255101
      10A    -11.251260    11A    -11.232442    12A    -11.213982
      13A     -1.390817    14A     -1.329072    15A     -1.207745
      16A     -1.130155    17A     -1.083893    18A     -1.048574
      19A     -0.956082    20A     -0.924584    21A     -0.891877
      22A     -0.803369    23A     -0.794466    24A     -0.724560
      25A     -0.709493    26A     -0.681597    27A     -0.642194
      28A     -0.634996    29A     -0.608944    30A     -0.597264
      31A     -0.588598    32A     -0.578999    33A     -0.561505
      34A     -0.551595    35A     -0.533251    36A     -0.483559
      37A     -0.451143    38A     -0.430869    39A     -0.409188
      40A     -0.407057    41A     -0.340197    42A     -0.329416

  @DF-RHF Final Energy:  -525.53143680550932

   => Energetics <=

    Nuclear Repulsion Energy =            661.9875138146885547
    One-Electron Energy =               -2026.2715350880337155
    Two-Electron Energy =                 838.7525844678358453
    Total Energy =                       -525.5314368055093155
  Basis Set: (AUG-CC-PVTZ AUX)
    Blend: AUG-CC-PVTZ-RI
    Molecular point group: c1

    Geometry (in Angstrom), charge = 0, multiplicity = 1:

       Center              X                  Y                   Z               Mass
    ------------   -----------------  -----------------  -----------------  -----------------
         N            0.822660692627    -0.272789413129    -0.032666875851    14.003074004430
         N            1.365107692627    -1.500140413129    -0.261745875851    14.003074004430
         N           -1.075221307373     1.013793586871    -0.448411875851    14.003074004430
         N           -1.256184107373    -1.086418013129     0.383061124149    14.003074004430
         C            1.766276692627     0.721343586871     0.138933124149    12.000000000000
         C            2.985175692627     0.079449586871     0.013317124149    12.000000000000
         C           -0.583789307373    -0.153281413129    -0.013136875851    12.000000000000
         C            1.460502692627     2.150939586871     0.443372124149    12.000000000000
         C            2.685951692627    -1.273046413129    -0.234604875851    12.000000000000
         C           -2.414524307373     1.119052586871    -0.426518875851    12.000000000000
         C           -2.597355307373    -1.091288413129     0.408947124149    12.000000000000
         C           -3.234901307373     0.073155586871    -0.015911875851    12.000000000000
         H            3.959422692627     0.541156586871     0.104636124149     1.007825032230
         H            1.019752692627     2.664939586871    -0.412751875851     1.007825032230
         H            0.761007692627     2.246560586871     1.278726124149     1.007825032230
         H            2.392991692627     2.650762586871     0.718736124149     1.007825032230
         H            3.362714692627    -2.100970413129    -0.404529875851     1.007825032230
         H           -2.823920307373     2.067753586871    -0.767988875851     1.007825032230
         H           -3.161875307373    -1.953882413129     0.757851124149     1.007825032230
         H           -4.316115307373     0.162087586871    -0.019469875851     1.007825032230

  Basis Set: AUG-CC-PVTZ
    Blend: AUG-CC-PVTZ
  Basis Set: (AUG-CC-PVTZ AUX)
    Blend: AUG-CC-PVTZ-JKFIT
	 Reference Energy          =    -525.5314368055093155 [Eh]
	 Singles Energy            =      -0.0000000000000000 [Eh]
	 Same-Spin Energy          =      -0.5770289220787002 [Eh]
	 Opposite-Spin Energy      =      -1.7360932868196999 [Eh]
	 Correlation Energy        =      -2.3131222088983998 [Eh]
	 Total Energy              =    -527.8445590144077642 [Eh]

	 ================> DF-SCS-MP2 Energies <==================
	-----------------------------------------------------------
	 SCS Same-Spin Scale       =       0.3333333333333333 [-]
	 SCS Opposite-Spin Scale   =       1.2000000000000000 [-]
	 SCS Same-Spin Energy      =      -0.1923429740262334 [Eh]
	 SCS Opposite-Spin Energy  =      -2.0833119441836399 [Eh]
	 SCS Correlation Energy    =      -2.2756549182098733 [Eh]
	 SCS Total Energy          =    -527.8070917237191679 [Eh]
	-----------------------------------------------------------

  Dipole Moment: [D]
     X:    -2.8614      Y:     2.3207      Z:     0.5463     Total:     3.7245

*** Psi4 exiting successfully. Buy a developer a beer!
