                               Psi4 1.3.2 release

  ==> Input File <==

--------------------------------------------------------------------------
#psi4
#
memory 32 gb

molecule  {
0 1
  N        0.8160970    -0.2990240    -0.0443680
  N        1.3547623    -1.5036832    -0.2691871
  N       -1.0817850     0.9875590    -0.4601130
  N       -1.2686320    -1.2431920     0.4227390
  C        1.7597130     0.6951090     0.1272320
  C        2.9786120     0.0532150     0.0016160
  C       -0.5903530    -0.1795160    -0.0248380
  C        1.4539390     2.1247050     0.4316710
  C        2.6793880    -1.2992810    -0.2463060
  C       -2.4210880     1.0928180    -0.4382200
  C       -2.6039190    -1.1175230     0.3972460
  C       -3.2414650     0.0469210    -0.0276130
  H        3.9528590     0.5149220     0.0929350
  H        1.0131890     2.6387050    -0.4244530
  H        0.7544440     2.2203260     1.2670250
  H        2.3864280     2.6245280     0.7070350
  H        3.3561510    -2.1272050    -0.4162310
  H       -2.8304840     2.0415190    -0.7796900
  H       -3.1684390    -1.9801170     0.7461500
  H       -4.3226790     0.1358530    -0.0311710
units angstrom
no_reorient  #important for SAPT in psi4, default
symmetry c1  #important for SAPT in psi4, default
}

set PROPERTIES_ORIGIN ["COM"]
properties('MP2/aug-cc-pvtz', properties = ['dipole'])
--------------------------------------------------------------------------

    Molecular point group: c1
  Charge       = 0
  Multiplicity = 1
  Basis Set: AUG-CC-PVTZ
    Blend: AUG-CC-PVTZ
  Basis Set: (AUG-CC-PVTZ AUX)
    Blend: AUG-CC-PVTZ-JKFIT

    Orbital Energies [Eh]
    ---------------------

    Doubly Occupied:

       1A    -15.643692     2A    -15.583210     3A    -15.579494
       4A    -15.579173     5A    -11.368080     6A    -11.312044
       7A    -11.310036     8A    -11.283939     9A    -11.253390
      10A    -11.252699    11A    -11.233595    12A    -11.216999
      13A     -1.393670    14A     -1.314804    15A     -1.206711
      16A     -1.129319    17A     -1.083962    18A     -1.046343
      19A     -0.957302    20A     -0.909672    21A     -0.897973
      22A     -0.802018    23A     -0.797123    24A     -0.713338
      25A     -0.708048    26A     -0.682609    27A     -0.640557
      28A     -0.634333    29A     -0.607563    30A     -0.591536
      31A     -0.587169    32A     -0.575975    33A     -0.563632
      34A     -0.554046    35A     -0.535132    36A     -0.492206
      37A     -0.452477    38A     -0.430964    39A     -0.420366
      40A     -0.407430    41A     -0.338312    42A     -0.330815

  @DF-RHF Final Energy:  -525.54416507896792

   => Energetics <=

    Nuclear Repulsion Energy =            658.9638065200142591
    One-Electron Energy =               -2020.1724341173310222
    Two-Electron Energy =                 835.6644625183488415
    Total Energy =                       -525.5441650789679215
  Basis Set: (AUG-CC-PVTZ AUX)
    Blend: AUG-CC-PVTZ-RI
    Molecular point group: c1

    Geometry (in Angstrom), charge = 0, multiplicity = 1:

       Center              X                  Y                   Z               Mass
    ------------   -----------------  -----------------  -----------------  -----------------
         N            0.823506248777    -0.263355092326    -0.037534070223    14.003074004430
         N            1.362171548777    -1.468014292326    -0.262353170223    14.003074004430
         N           -1.074375751223     1.023227907674    -0.453279070223    14.003074004430
         N           -1.261222751223    -1.207523092326     0.429572929777    14.003074004430
         C            1.767122248777     0.730777907674     0.134065929777    12.000000000000
         C            2.986021248777     0.088883907674     0.008449929777    12.000000000000
         C           -0.582943751223    -0.143847092326    -0.018004070223    12.000000000000
         C            1.461348248777     2.160373907674     0.438504929777    12.000000000000
         C            2.686797248777    -1.263612092326    -0.239472070223    12.000000000000
         C           -2.413678751223     1.128486907674    -0.431386070223    12.000000000000
         C           -2.596509751223    -1.081854092326     0.404079929777    12.000000000000
         C           -3.234055751223     0.082589907674    -0.020779070223    12.000000000000
         H            3.960268248777     0.550590907674     0.099768929777     1.007825032230
         H            1.020598248777     2.674373907674    -0.417619070223     1.007825032230
         H            0.761853248777     2.255994907674     1.273858929777     1.007825032230
         H            2.393837248777     2.660196907674     0.713868929777     1.007825032230
         H            3.363560248777    -2.091536092326    -0.409397070223     1.007825032230
         H           -2.823074751223     2.077187907674    -0.772856070223     1.007825032230
         H           -3.161029751223    -1.944448092326     0.752983929777     1.007825032230
         H           -4.315269751223     0.171521907674    -0.024337070223     1.007825032230

  Basis Set: AUG-CC-PVTZ
    Blend: AUG-CC-PVTZ
  Basis Set: (AUG-CC-PVTZ AUX)
    Blend: AUG-CC-PVTZ-JKFIT
	 Reference Energy          =    -525.5441650789679215 [Eh]
	 Singles Energy            =      -0.0000000000000000 [Eh]
	 Same-Spin Energy          =      -0.5776304653169166 [Eh]
	 Opposite-Spin Energy      =      -1.7381462737569469 [Eh]
	 Correlation Energy        =      -2.3157767390738635 [Eh]
	 Total Energy              =    -527.8599418180417615 [Eh]

	 ================> DF-SCS-MP2 Energies <==================
	-----------------------------------------------------------
	 SCS Same-Spin Scale       =       0.3333333333333333 [-]
	 SCS Opposite-Spin Scale   =       1.2000000000000000 [-]
	 SCS Same-Spin Energy      =      -0.1925434884389722 [Eh]
	 SCS Opposite-Spin Energy  =      -2.0857755285083361 [Eh]
	 SCS Correlation Energy    =      -2.2783190169473082 [Eh]
	 SCS Total Energy          =    -527.8224840959152289 [Eh]
	-----------------------------------------------------------

  Dipole Moment: [D]
     X:    -2.6361      Y:     2.5243      Z:     0.4333     Total:     3.6755

*** Psi4 exiting successfully. Buy a developer a beer!
