                               Psi4 1.4a3.dev225

  ==> Input File <==

--------------------------------------------------------------------------
#psi4
#
memory 32 gb

molecule  {
0 1
  N        0.8160970    -0.2990240    -0.0443680
  N        1.3585440    -1.5263750    -0.2734470
  N       -1.0817850     0.9875590    -0.4601130
  N       -1.2686320    -1.2431920     0.4227390
  C        1.7597130     0.6951090     0.1272320
  C        2.9962350     0.0439344    -0.0002002
  C       -0.5903530    -0.1795160    -0.0248380
  C        1.4539390     2.1247050     0.4316710
  C        2.6793880    -1.2992810    -0.2463060
  C       -2.4210880     1.0928180    -0.4382200
  C       -2.6039190    -1.1175230     0.3972460
  C       -3.2414650     0.0469210    -0.0276130
  H        3.9528590     0.5149220     0.0929350
  H        1.0131890     2.6387050    -0.4244530
  H        0.7544440     2.2203260     1.2670250
  H        2.3864280     2.6245280     0.7070350
  H        3.3561510    -2.1272050    -0.4162310
  H       -2.8304840     2.0415190    -0.7796900
  H       -3.1684390    -1.9801170     0.7461500
  H       -4.3226790     0.1358530    -0.0311710
units angstrom
no_reorient  #important for SAPT in psi4, default
symmetry c1  #important for SAPT in psi4, default
}

set PROPERTIES_ORIGIN ["COM"]
properties('MP2/aug-cc-pvtz', properties = ['dipole'])
--------------------------------------------------------------------------

    Molecular point group: c1
  Charge       = 0
  Multiplicity = 1
  Basis Set: AUG-CC-PVTZ
    Blend: AUG-CC-PVTZ
  Basis Set: (AUG-CC-PVTZ AUX)
    Blend: AUG-CC-PVTZ-JKFIT

    Orbital Energies [Eh]
    ---------------------

    Doubly Occupied:

       1A    -15.643515     2A    -15.582937     3A    -15.580117
       4A    -15.579142     5A    -11.367856     6A    -11.311860
       7A    -11.309809     8A    -11.289572     9A    -11.254022
      10A    -11.253140    11A    -11.235113    12A    -11.217837
      13A     -1.386065    14A     -1.312610    15A     -1.206439
      16A     -1.129657    17A     -1.082259    18A     -1.045111
      19A     -0.958769    20A     -0.909357    21A     -0.897321
      22A     -0.799238    23A     -0.796613    24A     -0.713247
      25A     -0.707179    26A     -0.682647    27A     -0.638064
      28A     -0.634063    29A     -0.608058    30A     -0.590411
      31A     -0.586796    32A     -0.575271    33A     -0.566208
      34A     -0.552858    35A     -0.532450    36A     -0.491880
      37A     -0.455181    38A     -0.430822    39A     -0.420574
      40A     -0.407969    41A     -0.338952    42A     -0.329318

  @DF-RHF Final Energy:  -525.54243915016366

   => Energetics <=

    Nuclear Repulsion Energy =            657.9077570130293680
    One-Electron Energy =               -2018.0797717649363676
    Two-Electron Energy =                 834.6295756017433405
    Total Energy =                       -525.5424391501636592
  Basis Set: (AUG-CC-PVTZ AUX)
    Blend: AUG-CC-PVTZ-RI
    Molecular point group: c1

    Geometry (in Angstrom), charge = 0, multiplicity = 1:

       Center              X                  Y                   Z               Mass
    ------------   -----------------  -----------------  -----------------  -----------------
         N            0.821854325639    -0.260674333727    -0.037025270300    14.003074004430
         N            1.364301325639    -1.488025333727    -0.266104270300    14.003074004430
         N           -1.076027674361     1.025908666273    -0.452770270300    14.003074004430
         N           -1.262874674361    -1.204842333727     0.430081729700    14.003074004430
         C            1.765470325639     0.733458666273     0.134574729700    12.000000000000
         C            3.001992325639     0.082284066273     0.007142529700    12.000000000000
         C           -0.584595674361    -0.141166333727    -0.017495270300    12.000000000000
         C            1.459696325639     2.163054666273     0.439013729700    12.000000000000
         C            2.685145325639    -1.260931333727    -0.238963270300    12.000000000000
         C           -2.415330674361     1.131167666273    -0.430877270300    12.000000000000
         C           -2.598161674361    -1.079173333727     0.404588729700    12.000000000000
         C           -3.235707674361     0.085270666273    -0.020270270300    12.000000000000
         H            3.958616325639     0.553271666273     0.100277729700     1.007825032230
         H            1.018946325639     2.677054666273    -0.417110270300     1.007825032230
         H            0.760201325639     2.258675666273     1.274367729700     1.007825032230
         H            2.392185325639     2.662877666273     0.714377729700     1.007825032230
         H            3.361908325639    -2.088855333727    -0.408888270300     1.007825032230
         H           -2.824726674361     2.079868666273    -0.772347270300     1.007825032230
         H           -3.162681674361    -1.941767333727     0.753492729700     1.007825032230
         H           -4.316921674361     0.174202666273    -0.023828270300     1.007825032230

  Basis Set: AUG-CC-PVTZ
    Blend: AUG-CC-PVTZ
  Basis Set: (AUG-CC-PVTZ AUX)
    Blend: AUG-CC-PVTZ-JKFIT
	 Reference Energy          =    -525.5424391501636592 [Eh]
	 Singles Energy            =      -0.0000000000000000 [Eh]
	 Same-Spin Energy          =      -0.5778075930445914 [Eh]
	 Opposite-Spin Energy      =      -1.7389733960815108 [Eh]
	 Correlation Energy        =      -2.3167809891261024 [Eh]
	 Total Energy              =    -527.8592201392897323 [Eh]

	 ================> DF-SCS-MP2 Energies <==================
	-----------------------------------------------------------
	 SCS Same-Spin Scale       =       0.3333333333333333 [-]
	 SCS Opposite-Spin Scale   =       1.2000000000000000 [-]
	 SCS Same-Spin Energy      =      -0.1926025310148638 [Eh]
	 SCS Opposite-Spin Energy  =      -2.0867680752978131 [Eh]
	 SCS Correlation Energy    =      -2.2793706063126766 [Eh]
	 SCS Total Energy          =    -527.8218097564763411 [Eh]
	-----------------------------------------------------------

  Dipole Moment: [D]
     X:    -2.6250      Y:     2.5681      Z:     0.4429     Total:     3.6989

*** Psi4 exiting successfully. Buy a developer a beer!
