                               Psi4 1.3.2 release

  ==> Input File <==

--------------------------------------------------------------------------
#psi4
#
memory 32 gb

molecule  {
0 1
  N        0.8160970    -0.2990240    -0.0443680
  N        1.3513888    -1.4810050    -0.2645220
  N       -1.0817850     0.9875590    -0.4601130
  N       -1.2686320    -1.2431920     0.4227390
  C        1.7597130     0.6951090     0.1272320
  C        2.9786120     0.0532150     0.0016160
  C       -0.5903530    -0.1795160    -0.0248380
  C        1.4539390     2.1247050     0.4316710
  C        2.6793880    -1.2992810    -0.2463060
  C       -2.4210880     1.0928180    -0.4382200
  C       -2.6039190    -1.1175230     0.3972460
  C       -3.2414650     0.0469210    -0.0276130
  H        3.9528590     0.5149220     0.0929350
  H        1.0131890     2.6387050    -0.4244530
  H        0.7544440     2.2203260     1.2670250
  H        2.3864280     2.6245280     0.7070350
  H        3.3561510    -2.1272050    -0.4162310
  H       -2.8304840     2.0415190    -0.7796900
  H       -3.1684390    -1.9801170     0.7461500
  H       -4.3226790     0.1358530    -0.0311710
units angstrom
no_reorient  #important for SAPT in psi4, default
symmetry c1  #important for SAPT in psi4, default
}

set PROPERTIES_ORIGIN ["COM"]
properties('MP2/aug-cc-pvtz', properties = ['dipole'])
--------------------------------------------------------------------------

    Molecular point group: c1
  Charge       = 0
  Multiplicity = 1
  Basis Set: AUG-CC-PVTZ
    Blend: AUG-CC-PVTZ
  Basis Set: (AUG-CC-PVTZ AUX)
    Blend: AUG-CC-PVTZ-JKFIT

    Orbital Energies [Eh]
    ---------------------

    Doubly Occupied:

       1A    -15.645224     2A    -15.584014     3A    -15.580358
       4A    -15.576948     5A    -11.368757     6A    -11.312572
       7A    -11.310605     8A    -11.281024     9A    -11.254108
      10A    -11.250870    11A    -11.232436    12A    -11.216687
      13A     -1.401728    14A     -1.316930    15A     -1.207404
      16A     -1.129346    17A     -1.083722    18A     -1.047697
      19A     -0.955824    20A     -0.910278    21A     -0.899473
      22A     -0.804433    23A     -0.798610    24A     -0.713664
      25A     -0.708645    26A     -0.682709    27A     -0.643135
      28A     -0.635324    29A     -0.608029    30A     -0.594005
      31A     -0.587389    32A     -0.576556    33A     -0.563159
      34A     -0.555277    35A     -0.534265    36A     -0.492814
      37A     -0.449822    38A     -0.431423    39A     -0.420407
      40A     -0.407192    41A     -0.339283    42A     -0.328502

  @DF-RHF Final Energy:  -525.54373804046497

   => Energetics <=

    Nuclear Repulsion Energy =            659.6622583151761319
    One-Electron Energy =               -2021.5306909197909135
    Two-Electron Energy =                 836.3246945641498087
    Total Energy =                       -525.5437380404649730
  Basis Set: (AUG-CC-PVTZ AUX)
    Blend: AUG-CC-PVTZ-RI
    Molecular point group: c1

    Geometry (in Angstrom), charge = 0, multiplicity = 1:

       Center              X                  Y                   Z               Mass
    ------------   -----------------  -----------------  -----------------  -----------------
         N            0.823801356700    -0.265338941888    -0.037942165072    14.003074004430
         N            1.359093156700    -1.447319941888    -0.258096165072    14.003074004430
         N           -1.074080643300     1.021244058112    -0.453687165072    14.003074004430
         N           -1.260927643300    -1.209506941888     0.429164834928    14.003074004430
         C            1.767417356700     0.728794058112     0.133657834928    12.000000000000
         C            2.986316356700     0.086900058112     0.008041834928    12.000000000000
         C           -0.582648643300    -0.145830941888    -0.018412165072    12.000000000000
         C            1.461643356700     2.158390058112     0.438096834928    12.000000000000
         C            2.687092356700    -1.265595941888    -0.239880165072    12.000000000000
         C           -2.413383643300     1.126503058112    -0.431794165072    12.000000000000
         C           -2.596214643300    -1.083837941888     0.403671834928    12.000000000000
         C           -3.233760643300     0.080606058112    -0.021187165072    12.000000000000
         H            3.960563356700     0.548607058112     0.099360834928     1.007825032230
         H            1.020893356700     2.672390058112    -0.418027165072     1.007825032230
         H            0.762148356700     2.254011058112     1.273450834928     1.007825032230
         H            2.394132356700     2.658213058112     0.713460834928     1.007825032230
         H            3.363855356700    -2.093519941888    -0.409805165072     1.007825032230
         H           -2.822779643300     2.075204058112    -0.773264165072     1.007825032230
         H           -3.160734643300    -1.946431941888     0.752575834928     1.007825032230
         H           -4.314974643300     0.169538058112    -0.024745165072     1.007825032230

  Basis Set: AUG-CC-PVTZ
    Blend: AUG-CC-PVTZ
  Basis Set: (AUG-CC-PVTZ AUX)
    Blend: AUG-CC-PVTZ-JKFIT
	 Reference Energy          =    -525.5437380404649730 [Eh]
	 Singles Energy            =      -0.0000000000000000 [Eh]
	 Same-Spin Energy          =      -0.5777145517078863 [Eh]
	 Opposite-Spin Energy      =      -1.7376870267398590 [Eh]
	 Correlation Energy        =      -2.3154015784477453 [Eh]
	 Total Energy              =    -527.8591396189127636 [Eh]

	 ================> DF-SCS-MP2 Energies <==================
	-----------------------------------------------------------
	 SCS Same-Spin Scale       =       0.3333333333333333 [-]
	 SCS Opposite-Spin Scale   =       1.2000000000000000 [-]
	 SCS Same-Spin Energy      =      -0.1925715172359621 [Eh]
	 SCS Opposite-Spin Energy  =      -2.0852244320878306 [Eh]
	 SCS Correlation Energy    =      -2.2777959493237927 [Eh]
	 SCS Total Energy          =    -527.8215339897888043 [Eh]
	-----------------------------------------------------------

  Dipole Moment: [D]
     X:    -2.6935      Y:     2.4905      Z:     0.4255     Total:     3.6930

*** Psi4 exiting successfully. Buy a developer a beer!
