                               Psi4 1.3.2 release

  ==> Input File <==

--------------------------------------------------------------------------
#psi4
#
memory 32 gb

molecule  {
0 1
  N        0.8160970    -0.2990240    -0.0443680
  N        1.3585440    -1.5263750    -0.2734470
  N       -1.0817850     0.9875590    -0.4601130
  N       -1.2686320    -1.2431920     0.4227390
  C        1.6490919     0.7868843     0.1429307
  C        2.9786120     0.0532150     0.0016160
  C       -0.5903530    -0.1795160    -0.0248380
  C        1.4539390     2.1247050     0.4316710
  C        2.6793880    -1.2992810    -0.2463060
  C       -2.4210880     1.0928180    -0.4382200
  C       -2.6039190    -1.1175230     0.3972460
  C       -3.2414650     0.0469210    -0.0276130
  H        3.9528590     0.5149220     0.0929350
  H        1.0131890     2.6387050    -0.4244530
  H        0.7544440     2.2203260     1.2670250
  H        2.3864280     2.6245280     0.7070350
  H        3.3561510    -2.1272050    -0.4162310
  H       -2.8304840     2.0415190    -0.7796900
  H       -3.1684390    -1.9801170     0.7461500
  H       -4.3226790     0.1358530    -0.0311710
units angstrom
no_reorient  #important for SAPT in psi4, default
symmetry c1  #important for SAPT in psi4, default
}

set PROPERTIES_ORIGIN ["COM"]
properties('MP2/aug-cc-pvtz', properties = ['dipole'])
--------------------------------------------------------------------------

    Molecular point group: c1
  Charge       = 0
  Multiplicity = 1
  Basis Set: AUG-CC-PVTZ
    Blend: AUG-CC-PVTZ
  Basis Set: (AUG-CC-PVTZ AUX)
    Blend: AUG-CC-PVTZ-JKFIT

    Orbital Energies [Eh]
    ---------------------

    Doubly Occupied:

       1A    -15.651792     2A    -15.584608     3A    -15.579295
       4A    -15.577446     5A    -11.366103     6A    -11.313142
       7A    -11.310366     8A    -11.300476     9A    -11.254090
      10A    -11.253557    11A    -11.233840    12A    -11.224167
      13A     -1.384930    14A     -1.311186    15A     -1.207655
      16A     -1.135381    17A     -1.090901    18A     -1.043053
      19A     -0.964993    20A     -0.909582    21A     -0.895765
      22A     -0.795244    23A     -0.794192    24A     -0.712289
      25A     -0.707611    26A     -0.683463    27A     -0.641663
      28A     -0.631717    29A     -0.609898    30A     -0.597530
      31A     -0.592963    32A     -0.583852    33A     -0.580746
      34A     -0.553848    35A     -0.515227    36A     -0.485257
      37A     -0.453574    38A     -0.431872    39A     -0.421432
      40A     -0.406311    41A     -0.340952    42A     -0.308665

  @DF-RHF Final Energy:  -525.50880679320971

   => Energetics <=

    Nuclear Repulsion Energy =            658.2041959479796560
    One-Electron Energy =               -2018.5447415424764586
    Two-Electron Energy =                 834.8317388012869742
    Total Energy =                       -525.5088067932097147
  Basis Set: (AUG-CC-PVTZ AUX)
    Blend: AUG-CC-PVTZ-RI
    Molecular point group: c1

    Geometry (in Angstrom), charge = 0, multiplicity = 1:

       Center              X                  Y                   Z               Mass
    ------------   -----------------  -----------------  -----------------  -----------------
         N            0.831468132899    -0.268249980053    -0.038338273181    14.003074004430
         N            1.373915132899    -1.495600980053    -0.267417273181    14.003074004430
         N           -1.066413867101     1.018333019947    -0.454083273181    14.003074004430
         N           -1.253260867101    -1.212417980053     0.428768726819    14.003074004430
         C            1.664463032899     0.817658319947     0.148960426819    12.000000000000
         C            2.993983132899     0.083989019947     0.007645726819    12.000000000000
         C           -0.574981867101    -0.148741980053    -0.018808273181    12.000000000000
         C            1.469310132899     2.155479019947     0.437700726819    12.000000000000
         C            2.694759132899    -1.268506980053    -0.240276273181    12.000000000000
         C           -2.405716867101     1.123592019947    -0.432190273181    12.000000000000
         C           -2.588547867101    -1.086748980053     0.403275726819    12.000000000000
         C           -3.226093867101     0.077695019947    -0.021583273181    12.000000000000
         H            3.968230132899     0.545696019947     0.098964726819     1.007825032230
         H            1.028560132899     2.669479019947    -0.418423273181     1.007825032230
         H            0.769815132899     2.251100019947     1.273054726819     1.007825032230
         H            2.401799132899     2.655302019947     0.713064726819     1.007825032230
         H            3.371522132899    -2.096430980053    -0.410201273181     1.007825032230
         H           -2.815112867101     2.072293019947    -0.773660273181     1.007825032230
         H           -3.153067867101    -1.949342980053     0.752179726819     1.007825032230
         H           -4.307307867101     0.166627019947    -0.025141273181     1.007825032230

  Basis Set: AUG-CC-PVTZ
    Blend: AUG-CC-PVTZ
  Basis Set: (AUG-CC-PVTZ AUX)
    Blend: AUG-CC-PVTZ-JKFIT
	 Reference Energy          =    -525.5088067932097147 [Eh]
	 Singles Energy            =      -0.0000000000000000 [Eh]
	 Same-Spin Energy          =      -0.5811885278866403 [Eh]
	 Opposite-Spin Energy      =      -1.7435534363425784 [Eh]
	 Correlation Energy        =      -2.3247419642292186 [Eh]
	 Total Energy              =    -527.8335487574389617 [Eh]

	 ================> DF-SCS-MP2 Energies <==================
	-----------------------------------------------------------
	 SCS Same-Spin Scale       =       0.3333333333333333 [-]
	 SCS Opposite-Spin Scale   =       1.2000000000000000 [-]
	 SCS Same-Spin Energy      =      -0.1937295092955468 [Eh]
	 SCS Opposite-Spin Energy  =      -2.0922641236110939 [Eh]
	 SCS Correlation Energy    =      -2.2859936329066408 [Eh]
	 SCS Total Energy          =    -527.7948004261163533 [Eh]
	-----------------------------------------------------------

  Dipole Moment: [D]
     X:    -2.7886      Y:     2.6240      Z:     0.4644     Total:     3.8572

*** Psi4 exiting successfully. Buy a developer a beer!
