                               Psi4 1.4a3.dev225

  ==> Input File <==

--------------------------------------------------------------------------
#psi4
#
memory 32 gb

molecule  {
0 1
  N        0.8160970    -0.2990240    -0.0443680
  N        1.3784680    -1.5714554    -0.2818610
  N       -1.0817850     0.9875590    -0.4601130
  N       -1.2686320    -1.2431920     0.4227390
  C        1.7597130     0.6951090     0.1272320
  C        2.9786120     0.0532150     0.0016160
  C       -0.5903530    -0.1795160    -0.0248380
  C        1.4539390     2.1247050     0.4316710
  C        2.6793880    -1.2992810    -0.2463060
  C       -2.4210880     1.0928180    -0.4382200
  C       -2.6039190    -1.1175230     0.3972460
  C       -3.2414650     0.0469210    -0.0276130
  H        3.9528590     0.5149220     0.0929350
  H        1.0131890     2.6387050    -0.4244530
  H        0.7544440     2.2203260     1.2670250
  H        2.3864280     2.6245280     0.7070350
  H        3.3561510    -2.1272050    -0.4162310
  H       -2.8304840     2.0415190    -0.7796900
  H       -3.1684390    -1.9801170     0.7461500
  H       -4.3226790     0.1358530    -0.0311710
units angstrom
no_reorient  #important for SAPT in psi4, default
symmetry c1  #important for SAPT in psi4, default
}

set PROPERTIES_ORIGIN ["COM"]
properties('MP2/aug-cc-pvtz', properties = ['dipole'])
--------------------------------------------------------------------------

    Molecular point group: c1
  Charge       = 0
  Multiplicity = 1
  Basis Set: AUG-CC-PVTZ
    Blend: AUG-CC-PVTZ
  Basis Set: (AUG-CC-PVTZ AUX)
    Blend: AUG-CC-PVTZ-JKFIT

    Orbital Energies [Eh]
    ---------------------

    Doubly Occupied:

       1A    -15.638030     2A    -15.585462     3A    -15.580800
       4A    -15.576977     5A    -11.366089     6A    -11.310500
       7A    -11.308388     8A    -11.292054     9A    -11.257165
      10A    -11.251246    11A    -11.236679    12A    -11.217313
      13A     -1.373212    14A     -1.307880    15A     -1.204644
      16A     -1.132188    17A     -1.084485    18A     -1.042337
      19A     -0.961830    20A     -0.907849    21A     -0.893867
      22A     -0.797604    23A     -0.789890    24A     -0.713125
      25A     -0.706158    26A     -0.682531    27A     -0.634115
      28A     -0.631822    29A     -0.606385    30A     -0.588198
      31A     -0.584552    32A     -0.572865    33A     -0.563756
      34A     -0.549945    35A     -0.537468    36A     -0.490711
      37A     -0.459009    38A     -0.429604    39A     -0.419728
      40A     -0.409279    41A     -0.342578    42A     -0.331241

  @DF-RHF Final Energy:  -525.54097241464865

   => Energetics <=

    Nuclear Repulsion Energy =            656.9358535242618018
    One-Electron Energy =               -2016.2145289430395678
    Two-Electron Energy =                 833.7377030041291164
    Total Energy =                       -525.5409724146486496
  Basis Set: (AUG-CC-PVTZ AUX)
    Blend: AUG-CC-PVTZ-RI
    Molecular point group: c1

    Geometry (in Angstrom), charge = 0, multiplicity = 1:

       Center              X                  Y                   Z               Mass
    ------------   -----------------  -----------------  -----------------  -----------------
         N            0.821432515299    -0.257426497936    -0.036425379456    14.003074004430
         N            1.383803515299    -1.529857897936    -0.273918379456    14.003074004430
         N           -1.076449484701     1.029156502064    -0.452170379456    14.003074004430
         N           -1.263296484701    -1.201594497936     0.430681620544    14.003074004430
         C            1.765048515299     0.736706502064     0.135174620544    12.000000000000
         C            2.983947515299     0.094812502064     0.009558620544    12.000000000000
         C           -0.585017484701    -0.137918497936    -0.016895379456    12.000000000000
         C            1.459274515299     2.166302502064     0.439613620544    12.000000000000
         C            2.684723515299    -1.257683497936    -0.238363379456    12.000000000000
         C           -2.415752484701     1.134415502064    -0.430277379456    12.000000000000
         C           -2.598583484701    -1.075925497936     0.405188620544    12.000000000000
         C           -3.236129484701     0.088518502064    -0.019670379456    12.000000000000
         H            3.958194515299     0.556519502064     0.100877620544     1.007825032230
         H            1.018524515299     2.680302502064    -0.416510379456     1.007825032230
         H            0.759779515299     2.261923502064     1.274967620544     1.007825032230
         H            2.391763515299     2.666125502064     0.714977620544     1.007825032230
         H            3.361486515299    -2.085607497936    -0.408288379456     1.007825032230
         H           -2.825148484701     2.083116502064    -0.771747379456     1.007825032230
         H           -3.163103484701    -1.938519497936     0.754092620544     1.007825032230
         H           -4.317343484701     0.177450502064    -0.023228379456     1.007825032230

  Basis Set: AUG-CC-PVTZ
    Blend: AUG-CC-PVTZ
  Basis Set: (AUG-CC-PVTZ AUX)
    Blend: AUG-CC-PVTZ-JKFIT
	 Reference Energy          =    -525.5409724146486496 [Eh]
	 Singles Energy            =      -0.0000000000000000 [Eh]
	 Same-Spin Energy          =      -0.5770774212089532 [Eh]
	 Opposite-Spin Energy      =      -1.7390449139784052 [Eh]
	 Correlation Energy        =      -2.3161223351873583 [Eh]
	 Total Energy              =    -527.8570947498360511 [Eh]

	 ================> DF-SCS-MP2 Energies <==================
	-----------------------------------------------------------
	 SCS Same-Spin Scale       =       0.3333333333333333 [-]
	 SCS Opposite-Spin Scale   =       1.2000000000000000 [-]
	 SCS Same-Spin Energy      =      -0.1923591404029844 [Eh]
	 SCS Opposite-Spin Energy  =      -2.0868538967740862 [Eh]
	 SCS Correlation Energy    =      -2.2792130371770707 [Eh]
	 SCS Total Energy          =    -527.8201854518257505 [Eh]
	-----------------------------------------------------------

  Dipole Moment: [D]
     X:    -2.4603      Y:     2.5961      Z:     0.4478     Total:     3.6046

*** Psi4 exiting successfully. Buy a developer a beer!
