                               Psi4 1.3.2 release

  ==> Input File <==

--------------------------------------------------------------------------
#psi4
#
memory 32 gb

molecule  {
0 1
  N        0.8160970    -0.2990240    -0.0443680
  N        1.3146400    -1.5442179    -0.2768835
  N       -1.0817850     0.9875590    -0.4601130
  N       -1.2686320    -1.2431920     0.4227390
  C        1.7597130     0.6951090     0.1272320
  C        2.9786120     0.0532150     0.0016160
  C       -0.5903530    -0.1795160    -0.0248380
  C        1.4539390     2.1247050     0.4316710
  C        2.6793880    -1.2992810    -0.2463060
  C       -2.4210880     1.0928180    -0.4382200
  C       -2.6039190    -1.1175230     0.3972460
  C       -3.2414650     0.0469210    -0.0276130
  H        3.9528590     0.5149220     0.0929350
  H        1.0131890     2.6387050    -0.4244530
  H        0.7544440     2.2203260     1.2670250
  H        2.3864280     2.6245280     0.7070350
  H        3.3561510    -2.1272050    -0.4162310
  H       -2.8304840     2.0415190    -0.7796900
  H       -3.1684390    -1.9801170     0.7461500
  H       -4.3226790     0.1358530    -0.0311710
units angstrom
no_reorient  #important for SAPT in psi4, default
symmetry c1  #important for SAPT in psi4, default
}

set PROPERTIES_ORIGIN ["COM"]
properties('MP2/aug-cc-pvtz', properties = ['dipole'])
--------------------------------------------------------------------------

    Molecular point group: c1
  Charge       = 0
  Multiplicity = 1
  Basis Set: AUG-CC-PVTZ
    Blend: AUG-CC-PVTZ
  Basis Set: (AUG-CC-PVTZ AUX)
    Blend: AUG-CC-PVTZ-JKFIT

    Orbital Energies [Eh]
    ---------------------

    Doubly Occupied:

       1A    -15.644314     2A    -15.586536     3A    -15.582179
       4A    -15.578350     5A    -11.366352     6A    -11.311184
       7A    -11.309198     8A    -11.288149     9A    -11.259768
      10A    -11.252563    11A    -11.235696    12A    -11.220162
      13A     -1.384180    14A     -1.310166    15A     -1.205807
      16A     -1.121273    17A     -1.085738    18A     -1.043490
      19A     -0.959836    20A     -0.908569    21A     -0.895478
      22A     -0.799998    23A     -0.794756    24A     -0.713010
      25A     -0.705695    26A     -0.681396    27A     -0.637253
      28A     -0.632304    29A     -0.607063    30A     -0.588786
      31A     -0.584952    32A     -0.573770    33A     -0.563864
      34A     -0.551092    35A     -0.535052    36A     -0.491497
      37A     -0.460508    38A     -0.430175    39A     -0.420050
      40A     -0.405104    41A     -0.338115    42A     -0.328693

  @DF-RHF Final Energy:  -525.53602608366714

   => Energetics <=

    Nuclear Repulsion Energy =            657.7456003725727669
    One-Electron Energy =               -2017.7790168728465687
    Two-Electron Energy =                 834.4973904166065495
    Total Energy =                       -525.5360260836671387
  Basis Set: (AUG-CC-PVTZ AUX)
    Blend: AUG-CC-PVTZ-RI
    Molecular point group: c1

    Geometry (in Angstrom), charge = 0, multiplicity = 1:

       Center              X                  Y                   Z               Mass
    ------------   -----------------  -----------------  -----------------  -----------------
         N            0.827016077921    -0.259809187146    -0.036860802514    14.003074004430
         N            1.325559077921    -1.505003087146    -0.269376302514    14.003074004430
         N           -1.070865922079     1.026773812854    -0.452605802514    14.003074004430
         N           -1.257712922079    -1.203977187146     0.430246197486    14.003074004430
         C            1.770632077921     0.734323812854     0.134739197486    12.000000000000
         C            2.989531077921     0.092429812854     0.009123197486    12.000000000000
         C           -0.579433922079    -0.140301187146    -0.017330802514    12.000000000000
         C            1.464858077921     2.163919812854     0.439178197486    12.000000000000
         C            2.690307077921    -1.260066187146    -0.238798802514    12.000000000000
         C           -2.410168922079     1.132032812854    -0.430712802514    12.000000000000
         C           -2.592999922079    -1.078308187146     0.404753197486    12.000000000000
         C           -3.230545922079     0.086135812854    -0.020105802514    12.000000000000
         H            3.963778077921     0.554136812854     0.100442197486     1.007825032230
         H            1.024108077921     2.677919812854    -0.416945802514     1.007825032230
         H            0.765363077921     2.259540812854     1.274532197486     1.007825032230
         H            2.397347077921     2.663742812854     0.714542197486     1.007825032230
         H            3.367070077921    -2.087990187146    -0.408723802514     1.007825032230
         H           -2.819564922079     2.080733812854    -0.772182802514     1.007825032230
         H           -3.157519922079    -1.940902187146     0.753657197486     1.007825032230
         H           -4.311759922079     0.175067812854    -0.023663802514     1.007825032230

  Basis Set: AUG-CC-PVTZ
    Blend: AUG-CC-PVTZ
  Basis Set: (AUG-CC-PVTZ AUX)
    Blend: AUG-CC-PVTZ-JKFIT
	 Reference Energy          =    -525.5360260836671387 [Eh]
	 Singles Energy            =      -0.0000000000000000 [Eh]
	 Same-Spin Energy          =      -0.5791847260972067 [Eh]
	 Opposite-Spin Energy      =      -1.7417927416817920 [Eh]
	 Correlation Energy        =      -2.3209774677789987 [Eh]
	 Total Energy              =    -527.8570035514461551 [Eh]

	 ================> DF-SCS-MP2 Energies <==================
	-----------------------------------------------------------
	 SCS Same-Spin Scale       =       0.3333333333333333 [-]
	 SCS Opposite-Spin Scale   =       1.2000000000000000 [-]
	 SCS Same-Spin Energy      =      -0.1930615753657356 [Eh]
	 SCS Opposite-Spin Energy  =      -2.0901512900181505 [Eh]
	 SCS Correlation Energy    =      -2.2832128653838861 [Eh]
	 SCS Total Energy          =    -527.8192389490510550 [Eh]
	-----------------------------------------------------------

  Dipole Moment: [D]
     X:    -2.5654      Y:     2.6211      Z:     0.4577     Total:     3.6960

*** Psi4 exiting successfully. Buy a developer a beer!
