                               Psi4 1.3.2 release

  ==> Input File <==

--------------------------------------------------------------------------
#psi4
#
memory 32 gb

molecule  {
0 1
  N        0.8054091    -0.3900851    -0.0082821
  N        1.3585440    -1.5263750    -0.2734470
  N       -1.0817850     0.9875590    -0.4601130
  N       -1.2686320    -1.2431920     0.4227390
  C        1.7597130     0.6951090     0.1272320
  C        2.9786120     0.0532150     0.0016160
  C       -0.5903530    -0.1795160    -0.0248380
  C        1.4539390     2.1247050     0.4316710
  C        2.6793880    -1.2992810    -0.2463060
  C       -2.4210880     1.0928180    -0.4382200
  C       -2.6039190    -1.1175230     0.3972460
  C       -3.2414650     0.0469210    -0.0276130
  H        3.9528590     0.5149220     0.0929350
  H        1.0131890     2.6387050    -0.4244530
  H        0.7544440     2.2203260     1.2670250
  H        2.3864280     2.6245280     0.7070350
  H        3.3561510    -2.1272050    -0.4162310
  H       -2.8304840     2.0415190    -0.7796900
  H       -3.1684390    -1.9801170     0.7461500
  H       -4.3226790     0.1358530    -0.0311710
units angstrom
no_reorient  #important for SAPT in psi4, default
symmetry c1  #important for SAPT in psi4, default
}

set PROPERTIES_ORIGIN ["COM"]
properties('MP2/aug-cc-pvtz', properties = ['dipole'])
--------------------------------------------------------------------------

    Molecular point group: c1
  Charge       = 0
  Multiplicity = 1
  Basis Set: AUG-CC-PVTZ
    Blend: AUG-CC-PVTZ
  Basis Set: (AUG-CC-PVTZ AUX)
    Blend: AUG-CC-PVTZ-JKFIT

    Orbital Energies [Eh]
    ---------------------

    Doubly Occupied:

       1A    -15.645790     2A    -15.584906     3A    -15.583619
       4A    -15.577212     5A    -11.367083     6A    -11.312937
       7A    -11.308870     8A    -11.284799     9A    -11.253115
      10A    -11.249350    11A    -11.234458    12A    -11.221451
      13A     -1.401816    14A     -1.317065    15A     -1.206313
      16A     -1.126784    17A     -1.080965    18A     -1.046336
      19A     -0.958765    20A     -0.909742    21A     -0.894286
      22A     -0.803672    23A     -0.792056    24A     -0.712411
      25A     -0.710303    26A     -0.683078    27A     -0.640178
      28A     -0.634332    29A     -0.607367    30A     -0.595898
      31A     -0.584305    32A     -0.575856    33A     -0.563430
      34A     -0.557621    35A     -0.534363    36A     -0.491088
      37A     -0.451977    38A     -0.431055    39A     -0.420461
      40A     -0.406617    41A     -0.344462    42A     -0.320965

  @DF-RHF Final Energy:  -525.53387230466069

   => Energetics <=

    Nuclear Repulsion Energy =            658.2182889104801689
    One-Electron Energy =               -2018.6500038686369862
    Two-Electron Energy =                 834.8978426534961272
    Total Energy =                       -525.5338723046606901
  Basis Set: (AUG-CC-PVTZ AUX)
    Blend: AUG-CC-PVTZ-RI
    Molecular point group: c1

    Geometry (in Angstrom), charge = 0, multiplicity = 1:

       Center              X                  Y                   Z               Mass
    ------------   -----------------  -----------------  -----------------  -----------------
         N            0.813422491162    -0.344465286131    -0.004232253447    14.003074004430
         N            1.366557391162    -1.480755186131    -0.269397153447    14.003074004430
         N           -1.073771608838     1.033178813869    -0.456063153447    14.003074004430
         N           -1.260618608838    -1.197572186131     0.426788846553    14.003074004430
         C            1.767726391162     0.740728813869     0.131281846553    12.000000000000
         C            2.986625391162     0.098834813869     0.005665846553    12.000000000000
         C           -0.582339608838    -0.133896186131    -0.020788153447    12.000000000000
         C            1.461952391162     2.170324813869     0.435720846553    12.000000000000
         C            2.687401391162    -1.253661186131    -0.242256153447    12.000000000000
         C           -2.413074608838     1.138437813869    -0.434170153447    12.000000000000
         C           -2.595905608838    -1.071903186131     0.401295846553    12.000000000000
         C           -3.233451608838     0.092540813869    -0.023563153447    12.000000000000
         H            3.960872391162     0.560541813869     0.096984846553     1.007825032230
         H            1.021202391162     2.684324813869    -0.420403153447     1.007825032230
         H            0.762457391162     2.265945813869     1.271074846553     1.007825032230
         H            2.394441391162     2.670147813869     0.711084846553     1.007825032230
         H            3.364164391162    -2.081585186131    -0.412181153447     1.007825032230
         H           -2.822470608838     2.087138813869    -0.775640153447     1.007825032230
         H           -3.160425608838    -1.934497186131     0.750199846553     1.007825032230
         H           -4.314665608838     0.181472813869    -0.027121153447     1.007825032230

  Basis Set: AUG-CC-PVTZ
    Blend: AUG-CC-PVTZ
  Basis Set: (AUG-CC-PVTZ AUX)
    Blend: AUG-CC-PVTZ-JKFIT
	 Reference Energy          =    -525.5338723046606901 [Eh]
	 Singles Energy            =      -0.0000000000000000 [Eh]
	 Same-Spin Energy          =      -0.5784110415176937 [Eh]
	 Opposite-Spin Energy      =      -1.7393166071450952 [Eh]
	 Correlation Energy        =      -2.3177276486627889 [Eh]
	 Total Energy              =    -527.8515999533234435 [Eh]

	 ================> DF-SCS-MP2 Energies <==================
	-----------------------------------------------------------
	 SCS Same-Spin Scale       =       0.3333333333333333 [-]
	 SCS Opposite-Spin Scale   =       1.2000000000000000 [-]
	 SCS Same-Spin Energy      =      -0.1928036805058979 [Eh]
	 SCS Opposite-Spin Energy  =      -2.0871799285741139 [Eh]
	 SCS Correlation Energy    =      -2.2799836090800119 [Eh]
	 SCS Total Energy          =    -527.8138559137406673 [Eh]
	-----------------------------------------------------------

  Dipole Moment: [D]
     X:    -2.5935      Y:     2.5973      Z:     0.4332     Total:     3.6959

*** Psi4 exiting successfully. Buy a developer a beer!
