                               Psi4 1.3.2 release

  ==> Input File <==

--------------------------------------------------------------------------
#psi4
#
memory 32 gb

molecule  {
0 1
  N        0.8160970    -0.2990240    -0.0443680
  N        1.3585440    -1.5263750    -0.2734470
  N       -1.0817850     0.9875590    -0.4601130
  N       -1.2686320    -1.2431920     0.4227390
  C        1.7597130     0.6951090     0.1272320
  C        2.9786120     0.0532150     0.0016160
  C       -0.5903530    -0.1795160    -0.0248380
  C        1.4539390     2.1247050     0.4316710
  C        2.6793880    -1.2992810    -0.2463060
  C       -2.4210880     1.0928180    -0.4382200
  C       -2.6039190    -1.1175230     0.3972460
  C       -3.1235294     0.1972769    -0.0866410
  H        3.9528590     0.5149220     0.0929350
  H        1.0131890     2.6387050    -0.4244530
  H        0.7544440     2.2203260     1.2670250
  H        2.3864280     2.6245280     0.7070350
  H        3.3561510    -2.1272050    -0.4162310
  H       -2.8304840     2.0415190    -0.7796900
  H       -3.1684390    -1.9801170     0.7461500
  H       -4.3226790     0.1358530    -0.0311710
units angstrom
no_reorient  #important for SAPT in psi4, default
symmetry c1  #important for SAPT in psi4, default
}

set PROPERTIES_ORIGIN ["COM"]
properties('MP2/aug-cc-pvtz', properties = ['dipole'])
--------------------------------------------------------------------------

    Molecular point group: c1
  Charge       = 0
  Multiplicity = 1
  Basis Set: AUG-CC-PVTZ
    Blend: AUG-CC-PVTZ
  Basis Set: (AUG-CC-PVTZ AUX)
    Blend: AUG-CC-PVTZ-JKFIT

    Orbital Energies [Eh]
    ---------------------

    Doubly Occupied:

       1A    -15.641201     2A    -15.585754     3A    -15.580992
       4A    -15.572247     5A    -11.365858     6A    -11.329635
       7A    -11.285779     8A    -11.270210     9A    -11.253986
      10A    -11.247586    11A    -11.232858    12A    -11.216434
      13A     -1.386162    14A     -1.317205    15A     -1.209797
      16A     -1.137174    17A     -1.084329    18A     -1.054265
      19A     -0.957249    20A     -0.924245    21A     -0.881730
      22A     -0.798118    23A     -0.797014    24A     -0.718847
      25A     -0.709159    26A     -0.676533    27A     -0.643449
      28A     -0.630613    29A     -0.597804    30A     -0.591412
      31A     -0.583523    32A     -0.578662    33A     -0.560623
      34A     -0.553318    35A     -0.533326    36A     -0.470129
      37A     -0.455423    38A     -0.443431    39A     -0.419658
      40A     -0.410299    41A     -0.340742    42A     -0.331667

  @DF-RHF Final Energy:  -525.47956529887779

   => Energetics <=

    Nuclear Repulsion Energy =            660.9838775937415676
    One-Electron Energy =               -2024.1699923262433458
    Two-Electron Energy =                 837.7065494336238771
    Total Energy =                       -525.4795652988777874
  Basis Set: (AUG-CC-PVTZ AUX)
    Blend: AUG-CC-PVTZ-RI
    Molecular point group: c1

    Geometry (in Angstrom), charge = 0, multiplicity = 1:

       Center              X                  Y                   Z               Mass
    ------------   -----------------  -----------------  -----------------  -----------------
         N            0.814334400729    -0.272641469390    -0.032736392931    14.003074004430
         N            1.356781400729    -1.499992469390    -0.261815392931    14.003074004430
         N           -1.083547599271     1.013941530610    -0.448481392931    14.003074004430
         N           -1.270394599271    -1.216809469390     0.434370607069    14.003074004430
         C            1.757950400729     0.721491530610     0.138863607069    12.000000000000
         C            2.976849400729     0.079597530610     0.013247607069    12.000000000000
         C           -0.592115599271    -0.153133469390    -0.013206392931    12.000000000000
         C            1.452176400729     2.151087530610     0.443302607069    12.000000000000
         C            2.677625400729    -1.272898469390    -0.234674392931    12.000000000000
         C           -2.422850599271     1.119200530610    -0.426588392931    12.000000000000
         C           -2.605681599271    -1.091140469390     0.408877607069    12.000000000000
         C           -3.125291999271     0.223659430610    -0.075009392931    12.000000000000
         H            3.951096400729     0.541304530610     0.104566607069     1.007825032230
         H            1.011426400729     2.665087530610    -0.412821392931     1.007825032230
         H            0.752681400729     2.246708530610     1.278656607069     1.007825032230
         H            2.384665400729     2.650910530610     0.718666607069     1.007825032230
         H            3.354388400729    -2.100822469390    -0.404599392931     1.007825032230
         H           -2.832246599271     2.067901530610    -0.768058392931     1.007825032230
         H           -3.170201599271    -1.953734469390     0.757781607069     1.007825032230
         H           -4.324441599271     0.162235530610    -0.019539392931     1.007825032230

  Basis Set: AUG-CC-PVTZ
    Blend: AUG-CC-PVTZ
  Basis Set: (AUG-CC-PVTZ AUX)
    Blend: AUG-CC-PVTZ-JKFIT
	 Reference Energy          =    -525.4795652988777874 [Eh]
	 Singles Energy            =      -0.0000000000000000 [Eh]
	 Same-Spin Energy          =      -0.5774499867247638 [Eh]
	 Opposite-Spin Energy      =      -1.7401447052310375 [Eh]
	 Correlation Energy        =      -2.3175946919558013 [Eh]
	 Total Energy              =    -527.7971599908336202 [Eh]

	 ================> DF-SCS-MP2 Energies <==================
	-----------------------------------------------------------
	 SCS Same-Spin Scale       =       0.3333333333333333 [-]
	 SCS Opposite-Spin Scale   =       1.2000000000000000 [-]
	 SCS Same-Spin Energy      =      -0.1924833289082546 [Eh]
	 SCS Opposite-Spin Energy  =      -2.0881736462772449 [Eh]
	 SCS Correlation Energy    =      -2.2806569751854995 [Eh]
	 SCS Total Energy          =    -527.7602222740632669 [Eh]
	-----------------------------------------------------------

  Dipole Moment: [D]
     X:    -2.5436      Y:     2.2491      Z:     0.5584     Total:     3.4410

*** Psi4 exiting successfully. Buy a developer a beer!
