                               Psi4 1.3.2 release

  ==> Input File <==

--------------------------------------------------------------------------
#psi4
#
memory 32 gb

molecule  {
0 1
  N        0.8160970    -0.2990240    -0.0443680
  N        1.3585440    -1.5263750    -0.2734470
  N       -1.0795413     1.1199315    -0.5075644
  N       -1.2686320    -1.2431920     0.4227390
  C        1.7597130     0.6951090     0.1272320
  C        2.9786120     0.0532150     0.0016160
  C       -0.5903530    -0.1795160    -0.0248380
  C        1.4539390     2.1247050     0.4316710
  C        2.6793880    -1.2992810    -0.2463060
  C       -2.4210880     1.0928180    -0.4382200
  C       -2.6039190    -1.1175230     0.3972460
  C       -3.2414650     0.0469210    -0.0276130
  H        3.9528590     0.5149220     0.0929350
  H        1.0131890     2.6387050    -0.4244530
  H        0.7544440     2.2203260     1.2670250
  H        2.3864280     2.6245280     0.7070350
  H        3.3561510    -2.1272050    -0.4162310
  H       -2.8304840     2.0415190    -0.7796900
  H       -3.1684390    -1.9801170     0.7461500
  H       -4.3226790     0.1358530    -0.0311710
units angstrom
no_reorient  #important for SAPT in psi4, default
symmetry c1  #important for SAPT in psi4, default
}

set PROPERTIES_ORIGIN ["COM"]
properties('MP2/aug-cc-pvtz', properties = ['dipole'])
--------------------------------------------------------------------------

    Molecular point group: c1
  Charge       = 0
  Multiplicity = 1
  Basis Set: AUG-CC-PVTZ
    Blend: AUG-CC-PVTZ
  Basis Set: (AUG-CC-PVTZ AUX)
    Blend: AUG-CC-PVTZ-JKFIT

    Orbital Energies [Eh]
    ---------------------

    Doubly Occupied:

       1A    -15.646912     2A    -15.599467     3A    -15.583851
       4A    -15.583185     5A    -11.382568     6A    -11.311974
       7A    -11.308488     8A    -11.289448     9A    -11.257742
      10A    -11.250629    11A    -11.234980    12A    -11.219944
      13A     -1.385781    14A     -1.299036    15A     -1.202586
      16A     -1.129310    17A     -1.085034    18A     -1.042022
      19A     -0.960236    20A     -0.906539    21A     -0.888013
      22A     -0.800095    23A     -0.792554    24A     -0.709300
      25A     -0.702009    26A     -0.680264    27A     -0.636319
      28A     -0.633812    29A     -0.604720    30A     -0.588467
      31A     -0.576775    32A     -0.568349    33A     -0.566405
      34A     -0.551860    35A     -0.538609    36A     -0.500615
      37A     -0.457604    38A     -0.435497    39A     -0.424301
      40A     -0.404426    41A     -0.335799    42A     -0.334433

  @DF-RHF Final Energy:  -525.52160991283756

   => Energetics <=

    Nuclear Repulsion Energy =            655.0174424680143375
    One-Electron Energy =               -2012.2581919348012889
    Two-Electron Energy =                 831.7191395539492760
    Total Energy =                       -525.5216099128375618
  Basis Set: (AUG-CC-PVTZ AUX)
    Blend: AUG-CC-PVTZ-RI
    Molecular point group: c1

    Geometry (in Angstrom), charge = 0, multiplicity = 1:

       Center              X                  Y                   Z               Mass
    ------------   -----------------  -----------------  -----------------  -----------------
         N            0.822979157246    -0.272949769534    -0.033010455480    14.003074004430
         N            1.365426157246    -1.500300769534    -0.262089455480    14.003074004430
         N           -1.072659142754     1.146005730466    -0.496206855480    14.003074004430
         N           -1.261749842754    -1.217117769534     0.434096544520    14.003074004430
         C            1.766595157246     0.721183230466     0.138589544520    12.000000000000
         C            2.985494157246     0.079289230466     0.012973544520    12.000000000000
         C           -0.583470842754    -0.153441769534    -0.013480455480    12.000000000000
         C            1.460821157246     2.150779230466     0.443028544520    12.000000000000
         C            2.686270157246    -1.273206769534    -0.234948455480    12.000000000000
         C           -2.414205842754     1.118892230466    -0.426862455480    12.000000000000
         C           -2.597036842754    -1.091448769534     0.408603544520    12.000000000000
         C           -3.234582842754     0.072995230466    -0.016255455480    12.000000000000
         H            3.959741157246     0.540996230466     0.104292544520     1.007825032230
         H            1.020071157246     2.664779230466    -0.413095455480     1.007825032230
         H            0.761326157246     2.246400230466     1.278382544520     1.007825032230
         H            2.393310157246     2.650602230466     0.718392544520     1.007825032230
         H            3.363033157246    -2.101130769534    -0.404873455480     1.007825032230
         H           -2.823601842754     2.067593230466    -0.768332455480     1.007825032230
         H           -3.161556842754    -1.954042769534     0.757507544520     1.007825032230
         H           -4.315796842754     0.161927230466    -0.019813455480     1.007825032230

  Basis Set: AUG-CC-PVTZ
    Blend: AUG-CC-PVTZ
  Basis Set: (AUG-CC-PVTZ AUX)
    Blend: AUG-CC-PVTZ-JKFIT
	 Reference Energy          =    -525.5216099128375618 [Eh]
	 Singles Energy            =      -0.0000000000000000 [Eh]
	 Same-Spin Energy          =      -0.5787823265040644 [Eh]
	 Opposite-Spin Energy      =      -1.7435279909869763 [Eh]
	 Correlation Energy        =      -2.3223103174910404 [Eh]
	 Total Energy              =    -527.8439202303286493 [Eh]

	 ================> DF-SCS-MP2 Energies <==================
	-----------------------------------------------------------
	 SCS Same-Spin Scale       =       0.3333333333333333 [-]
	 SCS Opposite-Spin Scale   =       1.2000000000000000 [-]
	 SCS Same-Spin Energy      =      -0.1929274421680214 [Eh]
	 SCS Opposite-Spin Energy  =      -2.0922335891843713 [Eh]
	 SCS Correlation Energy    =      -2.2851610313523927 [Eh]
	 SCS Total Energy          =    -527.8067709441899069 [Eh]
	-----------------------------------------------------------

  Dipole Moment: [D]
     X:    -2.3528      Y:     2.3316      Z:     0.5128     Total:     3.3519

*** Psi4 exiting successfully. Buy a developer a beer!
