                               Psi4 1.3.2 release

  ==> Input File <==

--------------------------------------------------------------------------
#psi4
#
memory 32 gb

molecule  {
0 1
  N        0.8160970    -0.2990240    -0.0443680
  N        1.3585440    -1.5263750    -0.2734470
  N       -1.0786540     1.0757686    -0.4918061
  N       -1.2686320    -1.2431920     0.4227390
  C        1.7597130     0.6951090     0.1272320
  C        2.9786120     0.0532150     0.0016160
  C       -0.5903530    -0.1795160    -0.0248380
  C        1.4539390     2.1247050     0.4316710
  C        2.6793880    -1.2992810    -0.2463060
  C       -2.4210880     1.0928180    -0.4382200
  C       -2.6039190    -1.1175230     0.3972460
  C       -3.2414650     0.0469210    -0.0276130
  H        3.9528590     0.5149220     0.0929350
  H        1.0131890     2.6387050    -0.4244530
  H        0.7544440     2.2203260     1.2670250
  H        2.3864280     2.6245280     0.7070350
  H        3.3561510    -2.1272050    -0.4162310
  H       -2.8304840     2.0415190    -0.7796900
  H       -3.1684390    -1.9801170     0.7461500
  H       -4.3226790     0.1358530    -0.0311710
units angstrom
no_reorient  #important for SAPT in psi4, default
symmetry c1  #important for SAPT in psi4, default
}

set PROPERTIES_ORIGIN ["COM"]
properties('MP2/aug-cc-pvtz', properties = ['dipole'])
--------------------------------------------------------------------------

    Molecular point group: c1
  Charge       = 0
  Multiplicity = 1
  Basis Set: AUG-CC-PVTZ
    Blend: AUG-CC-PVTZ
  Basis Set: (AUG-CC-PVTZ AUX)
    Blend: AUG-CC-PVTZ-JKFIT

    Orbital Energies [Eh]
    ---------------------

    Doubly Occupied:

       1A    -15.645428     2A    -15.594042     3A    -15.583098
       4A    -15.581839     5A    -11.378121     6A    -11.311194
       7A    -11.309368     8A    -11.288582     9A    -11.256717
      10A    -11.251247    11A    -11.234839    12A    -11.219087
      13A     -1.385743    14A     -1.302864    15A     -1.203965
      16A     -1.129291    17A     -1.084713    18A     -1.042870
      19A     -0.959734    20A     -0.905532    21A     -0.892601
      22A     -0.799533    23A     -0.794077    24A     -0.708833
      25A     -0.704791    26A     -0.681519    27A     -0.636797
      28A     -0.633514    29A     -0.605570    30A     -0.588330
      31A     -0.580228    32A     -0.571061    33A     -0.565613
      34A     -0.552190    35A     -0.537676    36A     -0.497581
      37A     -0.456931    38A     -0.433572    39A     -0.423773
      40A     -0.405716    41A     -0.336419    42A     -0.333901

  @DF-RHF Final Energy:  -525.53174015246748

   => Energetics <=

    Nuclear Repulsion Energy =            656.0882067201272321
    One-Electron Energy =               -2014.4228936736833475
    Two-Electron Energy =                 832.8029468010887513
    Total Energy =                       -525.5317401524674779
  Basis Set: (AUG-CC-PVTZ AUX)
    Blend: AUG-CC-PVTZ-RI
    Molecular point group: c1

    Geometry (in Angstrom), charge = 0, multiplicity = 1:

       Center              X                  Y                   Z               Mass
    ------------   -----------------  -----------------  -----------------  -----------------
         N            0.822901537783    -0.269086475718    -0.034388964205    14.003074004430
         N            1.365348537783    -1.496437475718    -0.263467964205    14.003074004430
         N           -1.071849462217     1.105706124282    -0.481827064205    14.003074004430
         N           -1.261827462217    -1.213254475718     0.432718035795    14.003074004430
         C            1.766517537783     0.725046524282     0.137211035795    12.000000000000
         C            2.985416537783     0.083152524282     0.011595035795    12.000000000000
         C           -0.583548462217    -0.149578475718    -0.014858964205    12.000000000000
         C            1.460743537783     2.154642524282     0.441650035795    12.000000000000
         C            2.686192537783    -1.269343475718    -0.236326964205    12.000000000000
         C           -2.414283462217     1.122755524282    -0.428240964205    12.000000000000
         C           -2.597114462217    -1.087585475718     0.407225035795    12.000000000000
         C           -3.234660462217     0.076858524282    -0.017633964205    12.000000000000
         H            3.959663537783     0.544859524282     0.102914035795     1.007825032230
         H            1.019993537783     2.668642524282    -0.414473964205     1.007825032230
         H            0.761248537783     2.250263524282     1.277004035795     1.007825032230
         H            2.393232537783     2.654465524282     0.717014035795     1.007825032230
         H            3.362955537783    -2.097267475718    -0.406251964205     1.007825032230
         H           -2.823679462217     2.071456524282    -0.769710964205     1.007825032230
         H           -3.161634462217    -1.950179475718     0.756129035795     1.007825032230
         H           -4.315874462217     0.165790524282    -0.021191964205     1.007825032230

  Basis Set: AUG-CC-PVTZ
    Blend: AUG-CC-PVTZ
  Basis Set: (AUG-CC-PVTZ AUX)
    Blend: AUG-CC-PVTZ-JKFIT
	 Reference Energy          =    -525.5317401524674779 [Eh]
	 Singles Energy            =      -0.0000000000000000 [Eh]
	 Same-Spin Energy          =      -0.5783256438246540 [Eh]
	 Opposite-Spin Energy      =      -1.7416733653972576 [Eh]
	 Correlation Energy        =      -2.3199990092219114 [Eh]
	 Total Energy              =    -527.8517391616893519 [Eh]

	 ================> DF-SCS-MP2 Energies <==================
	-----------------------------------------------------------
	 SCS Same-Spin Scale       =       0.3333333333333333 [-]
	 SCS Opposite-Spin Scale   =       1.2000000000000000 [-]
	 SCS Same-Spin Energy      =      -0.1927752146082180 [Eh]
	 SCS Opposite-Spin Energy  =      -2.0900080384767090 [Eh]
	 SCS Correlation Energy    =      -2.2827832530849270 [Eh]
	 SCS Total Energy          =    -527.8145234055524497 [Eh]
	-----------------------------------------------------------

  Dipole Moment: [D]
     X:    -2.4334      Y:     2.4007      Z:     0.4907     Total:     3.4533

*** Psi4 exiting successfully. Buy a developer a beer!
