                               Psi4 1.3.2 release

  ==> Input File <==

--------------------------------------------------------------------------
#psi4
#
memory 32 gb

molecule  {
0 1
  N        0.8379683    -0.2898551    -0.0429347
  N        1.3585440    -1.5263750    -0.2734470
  N       -1.0817850     0.9875590    -0.4601130
  N       -1.2686320    -1.2431920     0.4227390
  C        1.7597130     0.6951090     0.1272320
  C        2.9786120     0.0532150     0.0016160
  C       -0.5903530    -0.1795160    -0.0248380
  C        1.4539390     2.1247050     0.4316710
  C        2.6793880    -1.2992810    -0.2463060
  C       -2.4210880     1.0928180    -0.4382200
  C       -2.6039190    -1.1175230     0.3972460
  C       -3.2414650     0.0469210    -0.0276130
  H        3.9528590     0.5149220     0.0929350
  H        1.0131890     2.6387050    -0.4244530
  H        0.7544440     2.2203260     1.2670250
  H        2.3864280     2.6245280     0.7070350
  H        3.3561510    -2.1272050    -0.4162310
  H       -2.8304840     2.0415190    -0.7796900
  H       -3.1684390    -1.9801170     0.7461500
  H       -4.3226790     0.1358530    -0.0311710
units angstrom
no_reorient  #important for SAPT in psi4, default
symmetry c1  #important for SAPT in psi4, default
}

set PROPERTIES_ORIGIN ["COM"]
properties('MP2/aug-cc-pvtz', properties = ['dipole'])
--------------------------------------------------------------------------

    Molecular point group: c1
  Charge       = 0
  Multiplicity = 1
  Basis Set: AUG-CC-PVTZ
    Blend: AUG-CC-PVTZ
  Basis Set: (AUG-CC-PVTZ AUX)
    Blend: AUG-CC-PVTZ-JKFIT

    Orbital Energies [Eh]
    ---------------------

    Doubly Occupied:

       1A    -15.642478     2A    -15.583918     3A    -15.580617
       4A    -15.579797     5A    -11.369571     6A    -11.312428
       7A    -11.310642     8A    -11.284039     9A    -11.254145
      10A    -11.252891    11A    -11.234749    12A    -11.214601
      13A     -1.387086    14A     -1.314418    15A     -1.207154
      16A     -1.127159    17A     -1.086370    18A     -1.044225
      19A     -0.959235    20A     -0.909641    21A     -0.896381
      22A     -0.799513    23A     -0.795449    24A     -0.713748
      25A     -0.707589    26A     -0.682816    27A     -0.638753
      28A     -0.633130    29A     -0.607375    30A     -0.587731
      31A     -0.585661    32A     -0.575048    33A     -0.564230
      34A     -0.553527    35A     -0.535285    36A     -0.491966
      37A     -0.456668    38A     -0.431378    39A     -0.421475
      40A     -0.406360    41A     -0.340024    42A     -0.331272

  @DF-RHF Final Energy:  -525.54287565880441

   => Energetics <=

    Nuclear Repulsion Energy =            658.2794660918845011
    One-Electron Energy =               -2018.8235870985752172
    Two-Electron Energy =                 835.0012453478861971
    Total Energy =                       -525.5428756588044052
  Basis Set: (AUG-CC-PVTZ AUX)
    Blend: AUG-CC-PVTZ-RI
    Molecular point group: c1

    Geometry (in Angstrom), charge = 0, multiplicity = 1:

       Center              X                  Y                   Z               Mass
    ------------   -----------------  -----------------  -----------------  -----------------
         N            0.843133468876    -0.253003232512    -0.035853504163    14.003074004430
         N            1.363709168876    -1.489523132512    -0.266365804163    14.003074004430
         N           -1.076619831124     1.024410867488    -0.453031804163    14.003074004430
         N           -1.263466831124    -1.206340132512     0.429820195837    14.003074004430
         C            1.764878168876     0.731960867488     0.134313195837    12.000000000000
         C            2.983777168876     0.090066867488     0.008697195837    12.000000000000
         C           -0.585187831124    -0.142664132512    -0.017756804163    12.000000000000
         C            1.459104168876     2.161556867488     0.438752195837    12.000000000000
         C            2.684553168876    -1.262429132512    -0.239224804163    12.000000000000
         C           -2.415922831124     1.129669867488    -0.431138804163    12.000000000000
         C           -2.598753831124    -1.080671132512     0.404327195837    12.000000000000
         C           -3.236299831124     0.083772867488    -0.020531804163    12.000000000000
         H            3.958024168876     0.551773867488     0.100016195837     1.007825032230
         H            1.018354168876     2.675556867488    -0.417371804163     1.007825032230
         H            0.759609168876     2.257177867488     1.274106195837     1.007825032230
         H            2.391593168876     2.661379867488     0.714116195837     1.007825032230
         H            3.361316168876    -2.090353132512    -0.409149804163     1.007825032230
         H           -2.825318831124     2.078370867488    -0.772608804163     1.007825032230
         H           -3.163273831124    -1.943265132512     0.753231195837     1.007825032230
         H           -4.317513831124     0.172704867488    -0.024089804163     1.007825032230

  Basis Set: AUG-CC-PVTZ
    Blend: AUG-CC-PVTZ
  Basis Set: (AUG-CC-PVTZ AUX)
    Blend: AUG-CC-PVTZ-JKFIT
	 Reference Energy          =    -525.5428756588044052 [Eh]
	 Singles Energy            =      -0.0000000000000000 [Eh]
	 Same-Spin Energy          =      -0.5776452788220763 [Eh]
	 Opposite-Spin Energy      =      -1.7385641545757688 [Eh]
	 Correlation Energy        =      -2.3162094333978454 [Eh]
	 Total Energy              =    -527.8590850922022355 [Eh]

	 ================> DF-SCS-MP2 Energies <==================
	-----------------------------------------------------------
	 SCS Same-Spin Scale       =       0.3333333333333333 [-]
	 SCS Opposite-Spin Scale   =       1.2000000000000000 [-]
	 SCS Same-Spin Energy      =      -0.1925484262740254 [Eh]
	 SCS Opposite-Spin Energy  =      -2.0862769854909224 [Eh]
	 SCS Correlation Energy    =      -2.2788254117649478 [Eh]
	 SCS Total Energy          =    -527.8217010705693610 [Eh]
	-----------------------------------------------------------

  Dipole Moment: [D]
     X:    -2.7329      Y:     2.5657      Z:     0.4440     Total:     3.7747

*** Psi4 exiting successfully. Buy a developer a beer!
