                               Psi4 1.3.2 release

  ==> Input File <==

--------------------------------------------------------------------------
#psi4
#
memory 32 gb

molecule  {
0 1
  N        0.8160970    -0.2990240    -0.0443680
  N        1.3585440    -1.5263750    -0.2734470
  N       -1.0817850     0.9875590    -0.4601130
  N       -1.2686320    -1.2431920     0.4227390
  C        1.7597130     0.6951090     0.1272320
  C        2.9786120     0.0532150     0.0016160
  C       -0.3910902    -0.1964476    -0.0276050
  C        1.4539390     2.1247050     0.4316710
  C        2.6793880    -1.2992810    -0.2463060
  C       -2.4210880     1.0928180    -0.4382200
  C       -2.6039190    -1.1175230     0.3972460
  C       -3.2414650     0.0469210    -0.0276130
  H        3.9528590     0.5149220     0.0929350
  H        1.0131890     2.6387050    -0.4244530
  H        0.7544440     2.2203260     1.2670250
  H        2.3864280     2.6245280     0.7070350
  H        3.3561510    -2.1272050    -0.4162310
  H       -2.8304840     2.0415190    -0.7796900
  H       -3.1684390    -1.9801170     0.7461500
  H       -4.3226790     0.1358530    -0.0311710
units angstrom
no_reorient  #important for SAPT in psi4, default
symmetry c1  #important for SAPT in psi4, default
}

set PROPERTIES_ORIGIN ["COM"]
properties('MP2/aug-cc-pvtz', properties = ['dipole'])
--------------------------------------------------------------------------

    Molecular point group: c1
  Charge       = 0
  Multiplicity = 1
  Basis Set: AUG-CC-PVTZ
    Blend: AUG-CC-PVTZ
  Basis Set: (AUG-CC-PVTZ AUX)
    Blend: AUG-CC-PVTZ-JKFIT

    Orbital Energies [Eh]
    ---------------------

    Doubly Occupied:

       1A    -15.659340     2A    -15.601805     3A    -15.565375
       4A    -15.561506     5A    -11.369066     6A    -11.311029
       7A    -11.293633     8A    -11.290958     9A    -11.281359
      10A    -11.244905    11A    -11.240946    12A    -11.230647
      13A     -1.440286    14A     -1.269885    15A     -1.180341
      16A     -1.159216    17A     -1.105676    18A     -1.032908
      19A     -0.975757    20A     -0.917376    21A     -0.881364
      22A     -0.820780    23A     -0.806229    24A     -0.720784
      25A     -0.699663    26A     -0.680559    27A     -0.654407
      28A     -0.643817    29A     -0.606957    30A     -0.598366
      31A     -0.580678    32A     -0.579146    33A     -0.573624
      34A     -0.551208    35A     -0.536810    36A     -0.479861
      37A     -0.462709    38A     -0.428246    39A     -0.406980
      40A     -0.375177    41A     -0.353814    42A     -0.317240

  @DF-RHF Final Energy:  -525.47639657970785

   => Energetics <=

    Nuclear Repulsion Energy =            659.0673435068041499
    One-Electron Energy =               -2020.1066134414516000
    Two-Electron Energy =                 835.5628733549397111
    Total Energy =                       -525.4763965797078527
  Basis Set: (AUG-CC-PVTZ AUX)
    Blend: AUG-CC-PVTZ-RI
    Molecular point group: c1

    Geometry (in Angstrom), charge = 0, multiplicity = 1:

       Center              X                  Y                   Z               Mass
    ------------   -----------------  -----------------  -----------------  -----------------
         N            0.808237714598    -0.260100777209    -0.036953993665    14.003074004430
         N            1.350684714598    -1.487451777209    -0.266032993665    14.003074004430
         N           -1.089644285402     1.026482222791    -0.452698993665    14.003074004430
         N           -1.276491285402    -1.204268777209     0.430153006335    14.003074004430
         C            1.751853714598     0.734032222791     0.134646006335    12.000000000000
         C            2.970752714598     0.092138222791     0.009030006335    12.000000000000
         C           -0.398949485402    -0.157524377209    -0.020190993665    12.000000000000
         C            1.446079714598     2.163628222791     0.439085006335    12.000000000000
         C            2.671528714598    -1.260357777209    -0.238891993665    12.000000000000
         C           -2.428947285402     1.131741222791    -0.430805993665    12.000000000000
         C           -2.611778285402    -1.078599777209     0.404660006335    12.000000000000
         C           -3.249324285402     0.085844222791    -0.020198993665    12.000000000000
         H            3.944999714598     0.553845222791     0.100349006335     1.007825032230
         H            1.005329714598     2.677628222791    -0.417038993665     1.007825032230
         H            0.746584714598     2.259249222791     1.274439006335     1.007825032230
         H            2.378568714598     2.663451222791     0.714449006335     1.007825032230
         H            3.348291714598    -2.088281777209    -0.408816993665     1.007825032230
         H           -2.838343285402     2.080442222791    -0.772275993665     1.007825032230
         H           -3.176298285402    -1.941193777209     0.753564006335     1.007825032230
         H           -4.330538285402     0.174776222791    -0.023756993665     1.007825032230

  Basis Set: AUG-CC-PVTZ
    Blend: AUG-CC-PVTZ
  Basis Set: (AUG-CC-PVTZ AUX)
    Blend: AUG-CC-PVTZ-JKFIT
	 Reference Energy          =    -525.4763965797078527 [Eh]
	 Singles Energy            =      -0.0000000000000000 [Eh]
	 Same-Spin Energy          =      -0.5797807180921670 [Eh]
	 Opposite-Spin Energy      =      -1.7436709737046758 [Eh]
	 Correlation Energy        =      -2.3234516917968429 [Eh]
	 Total Energy              =    -527.7998482715047430 [Eh]

	 ================> DF-SCS-MP2 Energies <==================
	-----------------------------------------------------------
	 SCS Same-Spin Scale       =       0.3333333333333333 [-]
	 SCS Opposite-Spin Scale   =       1.2000000000000000 [-]
	 SCS Same-Spin Energy      =      -0.1932602393640557 [Eh]
	 SCS Opposite-Spin Energy  =      -2.0924051684456111 [Eh]
	 SCS Correlation Energy    =      -2.2856654078096668 [Eh]
	 SCS Total Energy          =    -527.7620619875175407 [Eh]
	-----------------------------------------------------------

  Dipole Moment: [D]
     X:    -0.3025      Y:     2.4315      Z:     0.4174     Total:     2.4855

*** Psi4 exiting successfully. Buy a developer a beer!
