                               Psi4 1.4a3.dev225

  ==> Input File <==

--------------------------------------------------------------------------
#psi4
#
memory 32 gb

molecule  {
0 1
  N        0.8160970    -0.2990240    -0.0443680
  N        1.3585440    -1.5263750    -0.2734470
  N       -1.0817850     0.9875590    -0.4601130
  N       -1.2686320    -1.2431920     0.4227390
  C        1.7597130     0.6951090     0.1272320
  C        2.9786120     0.0532150     0.0016160
  C       -0.5405373    -0.1837489    -0.0255297
  C        1.4539390     2.1247050     0.4316710
  C        2.6793880    -1.2992810    -0.2463060
  C       -2.4210880     1.0928180    -0.4382200
  C       -2.6039190    -1.1175230     0.3972460
  C       -3.2414650     0.0469210    -0.0276130
  H        3.9528590     0.5149220     0.0929350
  H        1.0131890     2.6387050    -0.4244530
  H        0.7544440     2.2203260     1.2670250
  H        2.3864280     2.6245280     0.7070350
  H        3.3561510    -2.1272050    -0.4162310
  H       -2.8304840     2.0415190    -0.7796900
  H       -3.1684390    -1.9801170     0.7461500
  H       -4.3226790     0.1358530    -0.0311710
units angstrom
no_reorient  #important for SAPT in psi4, default
symmetry c1  #important for SAPT in psi4, default
}

set PROPERTIES_ORIGIN ["COM"]
properties('MP2/aug-cc-pvtz', properties = ['dipole'])
--------------------------------------------------------------------------

    Molecular point group: c1
  Charge       = 0
  Multiplicity = 1
  Basis Set: AUG-CC-PVTZ
    Blend: AUG-CC-PVTZ
  Basis Set: (AUG-CC-PVTZ AUX)
    Blend: AUG-CC-PVTZ-JKFIT

    Orbital Energies [Eh]
    ---------------------

    Doubly Occupied:

       1A    -15.646892     2A    -15.586165     3A    -15.578625
       4A    -15.574783     5A    -11.367695     6A    -11.307197
       7A    -11.304992     8A    -11.292357     9A    -11.260468
      10A    -11.247996    11A    -11.237043    12A    -11.222566
      13A     -1.396096    14A     -1.302002    15A     -1.193778
      16A     -1.139656    17A     -1.088396    18A     -1.044770
      19A     -0.962609    20A     -0.901482    21A     -0.899402
      22A     -0.805245    23A     -0.800757    24A     -0.711559
      25A     -0.704171    26A     -0.684359    27A     -0.642329
      28A     -0.633218    29A     -0.605818    30A     -0.595414
      31A     -0.586024    32A     -0.572804    33A     -0.567534
      34A     -0.552332    35A     -0.539356    36A     -0.488232
      37A     -0.458595    38A     -0.424568    39A     -0.410841
      40A     -0.409465    41A     -0.337549    42A     -0.335047

  @DF-RHF Final Energy:  -525.53938870832110

   => Energetics <=

    Nuclear Repulsion Energy =            658.3770468606619488
    One-Electron Energy =               -2018.9924948988716551
    Two-Electron Energy =                 835.0760593298886079
    Total Energy =                       -525.5393887083210984
  Basis Set: (AUG-CC-PVTZ AUX)
    Blend: AUG-CC-PVTZ-RI
    Molecular point group: c1

    Geometry (in Angstrom), charge = 0, multiplicity = 1:

       Center              X                  Y                   Z               Mass
    ------------   -----------------  -----------------  -----------------  -----------------
         N            0.819441002820    -0.261052734097    -0.037109568340    14.003074004430
         N            1.361888002820    -1.488403734097    -0.266188568340    14.003074004430
         N           -1.078440997180     1.025530265903    -0.452854568340    14.003074004430
         N           -1.265287997180    -1.205220734097     0.429997431660    14.003074004430
         C            1.763057002820     0.733080265903     0.134490431660    12.000000000000
         C            2.981956002820     0.091186265903     0.008874431660    12.000000000000
         C           -0.537193297180    -0.145777634097    -0.018271268340    12.000000000000
         C            1.457283002820     2.162676265903     0.438929431660    12.000000000000
         C            2.682732002820    -1.261309734097    -0.239047568340    12.000000000000
         C           -2.417743997180     1.130789265903    -0.430961568340    12.000000000000
         C           -2.600574997180    -1.079551734097     0.404504431660    12.000000000000
         C           -3.238120997180     0.084892265903    -0.020354568340    12.000000000000
         H            3.956203002820     0.552893265903     0.100193431660     1.007825032230
         H            1.016533002820     2.676676265903    -0.417194568340     1.007825032230
         H            0.757788002820     2.258297265903     1.274283431660     1.007825032230
         H            2.389772002820     2.662499265903     0.714293431660     1.007825032230
         H            3.359495002820    -2.089233734097    -0.408972568340     1.007825032230
         H           -2.827139997180     2.079490265903    -0.772431568340     1.007825032230
         H           -3.165094997180    -1.942145734097     0.753408431660     1.007825032230
         H           -4.319334997180     0.173824265903    -0.023912568340     1.007825032230

  Basis Set: AUG-CC-PVTZ
    Blend: AUG-CC-PVTZ
  Basis Set: (AUG-CC-PVTZ AUX)
    Blend: AUG-CC-PVTZ-JKFIT
	 Reference Energy          =    -525.5393887083210984 [Eh]
	 Singles Energy            =      -0.0000000000000000 [Eh]
	 Same-Spin Energy          =      -0.5778454746499598 [Eh]
	 Opposite-Spin Energy      =      -1.7392861498318206 [Eh]
	 Correlation Energy        =      -2.3171316244817803 [Eh]
	 Total Energy              =    -527.8565203328029156 [Eh]

	 ================> DF-SCS-MP2 Energies <==================
	-----------------------------------------------------------
	 SCS Same-Spin Scale       =       0.3333333333333333 [-]
	 SCS Opposite-Spin Scale   =       1.2000000000000000 [-]
	 SCS Same-Spin Energy      =      -0.1926151582166533 [Eh]
	 SCS Opposite-Spin Energy  =      -2.0871433797981847 [Eh]
	 SCS Correlation Energy    =      -2.2797585380148377 [Eh]
	 SCS Total Energy          =    -527.8191472463358878 [Eh]
	-----------------------------------------------------------

  Dipole Moment: [D]
     X:    -2.0326      Y:     2.5271      Z:     0.4341     Total:     3.2720

*** Psi4 exiting successfully. Buy a developer a beer!
