                               Psi4 1.3.2 release

  ==> Input File <==

--------------------------------------------------------------------------
#psi4
#
memory 32 gb

molecule  {
0 1
  N        0.8160970    -0.2990240    -0.0443680
  N        1.3547647    -1.5037211    -0.2689879
  N       -1.0817850     0.9875590    -0.4601130
  N       -1.2686320    -1.2431920     0.4227390
  C        1.7597130     0.6951090     0.1272320
  C        2.9786120     0.0532150     0.0016160
  C       -0.5903530    -0.1795160    -0.0248380
  C        1.4539390     2.1247050     0.4316710
  C        2.6793880    -1.2992810    -0.2463060
  C       -2.4210880     1.0928180    -0.4382200
  C       -2.6039190    -1.1175230     0.3972460
  C       -3.2414650     0.0469210    -0.0276130
  H        3.9528590     0.5149220     0.0929350
  H        1.0131890     2.6387050    -0.4244530
  H        0.7544440     2.2203260     1.2670250
  H        2.3864280     2.6245280     0.7070350
  H        3.3561510    -2.1272050    -0.4162310
  H       -2.8304840     2.0415190    -0.7796900
  H       -3.1684390    -1.9801170     0.7461500
  H       -4.3226790     0.1358530    -0.0311710
units angstrom
no_reorient  #important for SAPT in psi4, default
symmetry c1  #important for SAPT in psi4, default
}

set PROPERTIES_ORIGIN ["COM"]
properties('MP2/aug-cc-pvtz', properties = ['dipole'])
--------------------------------------------------------------------------

    Molecular point group: c1
  Charge       = 0
  Multiplicity = 1
  Basis Set: AUG-CC-PVTZ
    Blend: AUG-CC-PVTZ
  Basis Set: (AUG-CC-PVTZ AUX)
    Blend: AUG-CC-PVTZ-JKFIT

    Orbital Energies [Eh]
    ---------------------

    Doubly Occupied:

       1A    -15.643693     2A    -15.583209     3A    -15.579492
       4A    -15.579173     5A    -11.368081     6A    -11.312043
       7A    -11.310035     8A    -11.283940     9A    -11.253389
      10A    -11.252700    11A    -11.233595    12A    -11.216999
      13A     -1.393670    14A     -1.314803    15A     -1.206710
      16A     -1.129319    17A     -1.083963    18A     -1.046342
      19A     -0.957302    20A     -0.909671    21A     -0.897973
      22A     -0.802018    23A     -0.797123    24A     -0.713336
      25A     -0.708048    26A     -0.682609    27A     -0.640559
      28A     -0.634333    29A     -0.607562    30A     -0.591536
      31A     -0.587168    32A     -0.575976    33A     -0.563633
      34A     -0.554045    35A     -0.535133    36A     -0.492206
      37A     -0.452477    38A     -0.430964    39A     -0.420363
      40A     -0.407432    41A     -0.338310    42A     -0.330815

  @DF-RHF Final Energy:  -525.54416554715692

   => Energetics <=

    Nuclear Repulsion Energy =            658.9638385060472956
    One-Electron Energy =               -2020.1725096759996632
    Two-Electron Energy =                 835.6645056227954456
    Total Energy =                       -525.5441655471569220
  Basis Set: (AUG-CC-PVTZ AUX)
    Blend: AUG-CC-PVTZ-RI
    Molecular point group: c1

    Geometry (in Angstrom), charge = 0, multiplicity = 1:

       Center              X                  Y                   Z               Mass
    ------------   -----------------  -----------------  -----------------  -----------------
         N            0.823506038829    -0.263351776899    -0.037551495893    14.003074004430
         N            1.362173738829    -1.468048876899    -0.262171395893    14.003074004430
         N           -1.074375961171     1.023231223101    -0.453296495893    14.003074004430
         N           -1.261222961171    -1.207519776899     0.429555504107    14.003074004430
         C            1.767122038829     0.730781223101     0.134048504107    12.000000000000
         C            2.986021038829     0.088887223101     0.008432504107    12.000000000000
         C           -0.582943961171    -0.143843776899    -0.018021495893    12.000000000000
         C            1.461348038829     2.160377223101     0.438487504107    12.000000000000
         C            2.686797038829    -1.263608776899    -0.239489495893    12.000000000000
         C           -2.413678961171     1.128490223101    -0.431403495893    12.000000000000
         C           -2.596509961171    -1.081850776899     0.404062504107    12.000000000000
         C           -3.234055961171     0.082593223101    -0.020796495893    12.000000000000
         H            3.960268038829     0.550594223101     0.099751504107     1.007825032230
         H            1.020598038829     2.674377223101    -0.417636495893     1.007825032230
         H            0.761853038829     2.255998223101     1.273841504107     1.007825032230
         H            2.393837038829     2.660200223101     0.713851504107     1.007825032230
         H            3.363560038829    -2.091532776899    -0.409414495893     1.007825032230
         H           -2.823074961171     2.077191223101    -0.772873495893     1.007825032230
         H           -3.161029961171    -1.944444776899     0.752966504107     1.007825032230
         H           -4.315269961171     0.171525223101    -0.024354495893     1.007825032230

  Basis Set: AUG-CC-PVTZ
    Blend: AUG-CC-PVTZ
  Basis Set: (AUG-CC-PVTZ AUX)
    Blend: AUG-CC-PVTZ-JKFIT
	 Reference Energy          =    -525.5441655471569220 [Eh]
	 Singles Energy            =      -0.0000000000000000 [Eh]
	 Same-Spin Energy          =      -0.5776303780973051 [Eh]
	 Opposite-Spin Energy      =      -1.7381461853658027 [Eh]
	 Correlation Energy        =      -2.3157765634631078 [Eh]
	 Total Energy              =    -527.8599421106200680 [Eh]

	 ================> DF-SCS-MP2 Energies <==================
	-----------------------------------------------------------
	 SCS Same-Spin Scale       =       0.3333333333333333 [-]
	 SCS Opposite-Spin Scale   =       1.2000000000000000 [-]
	 SCS Same-Spin Energy      =      -0.1925434593657684 [Eh]
	 SCS Opposite-Spin Energy  =      -2.0857754224389633 [Eh]
	 SCS Correlation Energy    =      -2.2783188818047315 [Eh]
	 SCS Total Energy          =    -527.8224844289616158 [Eh]
	-----------------------------------------------------------

  Dipole Moment: [D]
     X:    -2.6359      Y:     2.5244      Z:     0.4331     Total:     3.6753

*** Psi4 exiting successfully. Buy a developer a beer!
