                               Psi4 1.3.2 release

  ==> Input File <==

--------------------------------------------------------------------------
#psi4
#
memory 32 gb

molecule  {
0 1
  N        0.8160970    -0.2990240    -0.0443680
  N        1.3585440    -1.5263750    -0.2734470
  N       -1.0796579     1.1189833    -0.5101357
  N       -1.2686320    -1.2431920     0.4227390
  C        1.7597130     0.6951090     0.1272320
  C        2.9786120     0.0532150     0.0016160
  C       -0.5903530    -0.1795160    -0.0248380
  C        1.4539390     2.1247050     0.4316710
  C        2.6793880    -1.2992810    -0.2463060
  C       -2.4210880     1.0928180    -0.4382200
  C       -2.6039190    -1.1175230     0.3972460
  C       -3.2414650     0.0469210    -0.0276130
  H        3.9528590     0.5149220     0.0929350
  H        1.0131890     2.6387050    -0.4244530
  H        0.7544440     2.2203260     1.2670250
  H        2.3864280     2.6245280     0.7070350
  H        3.3561510    -2.1272050    -0.4162310
  H       -2.8304840     2.0415190    -0.7796900
  H       -3.1684390    -1.9801170     0.7461500
  H       -4.3226790     0.1358530    -0.0311710
units angstrom
no_reorient  #important for SAPT in psi4, default
symmetry c1  #important for SAPT in psi4, default
}

set PROPERTIES_ORIGIN ["COM"]
properties('MP2/aug-cc-pvtz', properties = ['dipole'])
--------------------------------------------------------------------------

    Molecular point group: c1
  Charge       = 0
  Multiplicity = 1
  Basis Set: AUG-CC-PVTZ
    Blend: AUG-CC-PVTZ
  Basis Set: (AUG-CC-PVTZ AUX)
    Blend: AUG-CC-PVTZ-JKFIT

    Orbital Energies [Eh]
    ---------------------

    Doubly Occupied:

       1A    -15.646900     2A    -15.599483     3A    -15.583851
       4A    -15.583200     5A    -11.382559     6A    -11.311975
       7A    -11.308484     8A    -11.289447     9A    -11.257735
      10A    -11.250643    11A    -11.235005    12A    -11.219942
      13A     -1.385774    14A     -1.299033    15A     -1.202584
      16A     -1.129306    17A     -1.085039    18A     -1.042021
      19A     -0.960248    20A     -0.906543    21A     -0.888004
      22A     -0.800098    23A     -0.792548    24A     -0.709309
      25A     -0.702020    26A     -0.680267    27A     -0.636292
      28A     -0.633798    29A     -0.604729    30A     -0.588478
      31A     -0.576777    32A     -0.568363    33A     -0.566399
      34A     -0.551857    35A     -0.538602    36A     -0.500657
      37A     -0.457612    38A     -0.435447    39A     -0.424343
      40A     -0.404384    41A     -0.335821    42A     -0.334440

  @DF-RHF Final Energy:  -525.52159542145671

   => Energetics <=

    Nuclear Repulsion Energy =            655.0111467525205171
    One-Electron Energy =               -2012.2454491205428440
    Two-Electron Energy =                 831.7127069465656177
    Total Energy =                       -525.5215954214567091
  Basis Set: (AUG-CC-PVTZ AUX)
    Blend: AUG-CC-PVTZ-RI
    Molecular point group: c1

    Geometry (in Angstrom), charge = 0, multiplicity = 1:

       Center              X                  Y                   Z               Mass
    ------------   -----------------  -----------------  -----------------  -----------------
         N            0.822989357212    -0.272866822645    -0.032785522621    14.003074004430
         N            1.365436357212    -1.500217822645    -0.261864522621    14.003074004430
         N           -1.072765542788     1.145140477355    -0.498553222621    14.003074004430
         N           -1.261739642788    -1.217034822645     0.434321477379    14.003074004430
         C            1.766605357212     0.721266177355     0.138814477379    12.000000000000
         C            2.985504357212     0.079372177355     0.013198477379    12.000000000000
         C           -0.583460642788    -0.153358822645    -0.013255522621    12.000000000000
         C            1.460831357212     2.150862177355     0.443253477379    12.000000000000
         C            2.686280357212    -1.273123822645    -0.234723522621    12.000000000000
         C           -2.414195642788     1.118975177355    -0.426637522621    12.000000000000
         C           -2.597026642788    -1.091365822645     0.408828477379    12.000000000000
         C           -3.234572642788     0.073078177355    -0.016030522621    12.000000000000
         H            3.959751357212     0.541079177355     0.104517477379     1.007825032230
         H            1.020081357212     2.664862177355    -0.412870522621     1.007825032230
         H            0.761336357212     2.246483177355     1.278607477379     1.007825032230
         H            2.393320357212     2.650685177355     0.718617477379     1.007825032230
         H            3.363043357212    -2.101047822645    -0.404648522621     1.007825032230
         H           -2.823591642788     2.067676177355    -0.768107522621     1.007825032230
         H           -3.161546642788    -1.953959822645     0.757732477379     1.007825032230
         H           -4.315786642788     0.162010177355    -0.019588522621     1.007825032230

  Basis Set: AUG-CC-PVTZ
    Blend: AUG-CC-PVTZ
  Basis Set: (AUG-CC-PVTZ AUX)
    Blend: AUG-CC-PVTZ-JKFIT
	 Reference Energy          =    -525.5215954214567091 [Eh]
	 Singles Energy            =      -0.0000000000000000 [Eh]
	 Same-Spin Energy          =      -0.5787835615186350 [Eh]
	 Opposite-Spin Energy      =      -1.7435316127774034 [Eh]
	 Correlation Energy        =      -2.3223151742960386 [Eh]
	 Total Energy              =    -527.8439105957527318 [Eh]

	 ================> DF-SCS-MP2 Energies <==================
	-----------------------------------------------------------
	 SCS Same-Spin Scale       =       0.3333333333333333 [-]
	 SCS Opposite-Spin Scale   =       1.2000000000000000 [-]
	 SCS Same-Spin Energy      =      -0.1929278538395450 [Eh]
	 SCS Opposite-Spin Energy  =      -2.0922379353328839 [Eh]
	 SCS Correlation Energy    =      -2.2851657891724289 [Eh]
	 SCS Total Energy          =    -527.8067612106291335 [Eh]
	-----------------------------------------------------------

  Dipole Moment: [D]
     X:    -2.3532      Y:     2.3323      Z:     0.5150     Total:     3.3530

*** Psi4 exiting successfully. Buy a developer a beer!
