                               Psi4 1.3.2 release

  ==> Input File <==

--------------------------------------------------------------------------
#psi4
#
memory 32 gb

molecule  {
0 1
  N        0.8160970    -0.2990240    -0.0443680
  N        1.3585440    -1.5263750    -0.2734470
  N       -1.0817850     0.9875590    -0.4601130
  N       -1.2686320    -1.2431920     0.4227390
  C        1.7597130     0.6951090     0.1272320
  C        2.9786120     0.0532150     0.0016160
  C       -0.5903530    -0.1795160    -0.0248380
  C        1.4539390     2.1247050     0.4316710
  C        2.6793880    -1.2992810    -0.2463060
  C       -2.4210880     1.0928180    -0.4382200
  C       -2.6039190    -1.1175230     0.3972460
  C       -3.3004328    -0.0282569     0.0019010
  H        3.9528590     0.5149220     0.0929350
  H        1.0131890     2.6387050    -0.4244530
  H        0.7544440     2.2203260     1.2670250
  H        2.3864280     2.6245280     0.7070350
  H        3.3561510    -2.1272050    -0.4162310
  H       -2.8304840     2.0415190    -0.7796900
  H       -3.1684390    -1.9801170     0.7461500
  H       -4.3226790     0.1358530    -0.0311710
units angstrom
no_reorient  #important for SAPT in psi4, default
symmetry c1  #important for SAPT in psi4, default
}

set PROPERTIES_ORIGIN ["COM"]
properties('MP2/aug-cc-pvtz', properties = ['dipole'])
--------------------------------------------------------------------------

    Molecular point group: c1
  Charge       = 0
  Multiplicity = 1
  Basis Set: AUG-CC-PVTZ
    Blend: AUG-CC-PVTZ
  Basis Set: (AUG-CC-PVTZ AUX)
    Blend: AUG-CC-PVTZ-JKFIT

    Orbital Energies [Eh]
    ---------------------

    Doubly Occupied:

       1A    -15.642907     2A    -15.586974     3A    -15.581920
       4A    -15.575180     5A    -11.368652     6A    -11.326488
       7A    -11.299271     8A    -11.287463     9A    -11.255081
      10A    -11.253872    11A    -11.235700    12A    -11.217985
      13A     -1.386739    14A     -1.311009    15A     -1.205691
      16A     -1.127667    17A     -1.084814    18A     -1.044210
      19A     -0.959745    20A     -0.910327    21A     -0.893228
      22A     -0.800878    23A     -0.794159    24A     -0.715923
      25A     -0.703411    26A     -0.688290    27A     -0.645248
      28A     -0.637565    29A     -0.602894    30A     -0.589621
      31A     -0.579294    32A     -0.574024    33A     -0.564864
      34A     -0.552464    35A     -0.536659    36A     -0.494512
      37A     -0.454895    38A     -0.432842    39A     -0.417975
      40A     -0.403889    41A     -0.337368    42A     -0.332904

  @DF-RHF Final Energy:  -525.53182927003263

   => Energetics <=

    Nuclear Repulsion Energy =            657.1288602869575470
    One-Electron Energy =               -2016.4921812840805160
    Two-Electron Energy =                 833.8314917270904516
    Total Energy =                       -525.5318292700326310
  Basis Set: (AUG-CC-PVTZ AUX)
    Blend: AUG-CC-PVTZ-RI
    Molecular point group: c1

    Geometry (in Angstrom), charge = 0, multiplicity = 1:

       Center              X                  Y                   Z               Mass
    ------------   -----------------  -----------------  -----------------  -----------------
         N            0.827595947976    -0.255734348642    -0.039373935886    14.003074004430
         N            1.370042947976    -1.483085348642    -0.268452935886    14.003074004430
         N           -1.070286052024     1.030848651358    -0.455118935886    14.003074004430
         N           -1.257133052024    -1.199902348642     0.427733064114    14.003074004430
         C            1.771211947976     0.738398651358     0.132226064114    12.000000000000
         C            2.990110947976     0.096504651358     0.006610064114    12.000000000000
         C           -0.578854052024    -0.136226348642    -0.019843935886    12.000000000000
         C            1.465437947976     2.167994651358     0.436665064114    12.000000000000
         C            2.690886947976    -1.255991348642    -0.241311935886    12.000000000000
         C           -2.409589052024     1.136107651358    -0.433225935886    12.000000000000
         C           -2.592420052024    -1.074233348642     0.402240064114    12.000000000000
         C           -3.288933852024     0.015032751358     0.006895064114    12.000000000000
         H            3.964357947976     0.558211651358     0.097929064114     1.007825032230
         H            1.024687947976     2.681994651358    -0.419458935886     1.007825032230
         H            0.765942947976     2.263615651358     1.272019064114     1.007825032230
         H            2.397926947976     2.667817651358     0.712029064114     1.007825032230
         H            3.367649947976    -2.083915348642    -0.411236935886     1.007825032230
         H           -2.818985052024     2.084808651358    -0.774695935886     1.007825032230
         H           -3.156940052024    -1.936827348642     0.751144064114     1.007825032230
         H           -4.311180052024     0.179142651358    -0.026176935886     1.007825032230

  Basis Set: AUG-CC-PVTZ
    Blend: AUG-CC-PVTZ
  Basis Set: (AUG-CC-PVTZ AUX)
    Blend: AUG-CC-PVTZ-JKFIT
	 Reference Energy          =    -525.5318292700326310 [Eh]
	 Singles Energy            =      -0.0000000000000000 [Eh]
	 Same-Spin Energy          =      -0.5773224560467601 [Eh]
	 Opposite-Spin Energy      =      -1.7391621325977751 [Eh]
	 Correlation Energy        =      -2.3164845886445353 [Eh]
	 Total Energy              =    -527.8483138586772156 [Eh]

	 ================> DF-SCS-MP2 Energies <==================
	-----------------------------------------------------------
	 SCS Same-Spin Scale       =       0.3333333333333333 [-]
	 SCS Opposite-Spin Scale   =       1.2000000000000000 [-]
	 SCS Same-Spin Energy      =      -0.1924408186822534 [Eh]
	 SCS Opposite-Spin Energy  =      -2.0869945591173300 [Eh]
	 SCS Correlation Energy    =      -2.2794353777995835 [Eh]
	 SCS Total Energy          =    -527.8112646478322176 [Eh]
	-----------------------------------------------------------

  Dipole Moment: [D]
     X:    -2.5247      Y:     2.6980      Z:     0.3834     Total:     3.7149

*** Psi4 exiting successfully. Buy a developer a beer!
