                               Psi4 1.3.2 release

  ==> Input File <==

--------------------------------------------------------------------------
#psi4
#
memory 32 gb

molecule  {
0 1
  N        0.8160970    -0.2990240    -0.0443680
  N        1.3585440    -1.5263750    -0.2734470
  N       -1.0817850     0.9875590    -0.4601130
  N       -1.2686320    -1.2431920     0.4227390
  C        1.7597130     0.6951090     0.1272320
  C        2.9786120     0.0532150     0.0016160
  C       -0.5903530    -0.1795160    -0.0248380
  C        1.4539390     2.1247050     0.4316710
  C        2.7219152    -1.1070575    -0.2110701
  C       -2.4210880     1.0928180    -0.4382200
  C       -2.6039190    -1.1175230     0.3972460
  C       -3.2414650     0.0469210    -0.0276130
  H        3.9528590     0.5149220     0.0929350
  H        1.0131890     2.6387050    -0.4244530
  H        0.7544440     2.2203260     1.2670250
  H        2.3864280     2.6245280     0.7070350
  H        3.3561510    -2.1272050    -0.4162310
  H       -2.8304840     2.0415190    -0.7796900
  H       -3.1684390    -1.9801170     0.7461500
  H       -4.3226790     0.1358530    -0.0311710
units angstrom
no_reorient  #important for SAPT in psi4, default
symmetry c1  #important for SAPT in psi4, default
}

set PROPERTIES_ORIGIN ["COM"]
properties('MP2/aug-cc-pvtz', properties = ['dipole'])
--------------------------------------------------------------------------

    Molecular point group: c1
  Charge       = 0
  Multiplicity = 1
  Basis Set: AUG-CC-PVTZ
    Blend: AUG-CC-PVTZ
  Basis Set: (AUG-CC-PVTZ AUX)
    Blend: AUG-CC-PVTZ-JKFIT

    Orbital Energies [Eh]
    ---------------------

    Doubly Occupied:

       1A    -15.651974     2A    -15.585756     3A    -15.581974
       4A    -15.571415     5A    -11.368945     6A    -11.313471
       7A    -11.311488     8A    -11.290796     9A    -11.255854
      10A    -11.243639    11A    -11.236958    12A    -11.200660
      13A     -1.388069    14A     -1.314635    15A     -1.208571
      16A     -1.135373    17A     -1.087443    18A     -1.057373
      19A     -0.969986    20A     -0.911356    21A     -0.901171
      22A     -0.808250    23A     -0.778361    24A     -0.718753
      25A     -0.708893    26A     -0.685680    27A     -0.640927
      28A     -0.637584    29A     -0.606887    30A     -0.595975
      31A     -0.584830    32A     -0.574750    33A     -0.559798
      34A     -0.554715    35A     -0.497061    36A     -0.492248
      37A     -0.460708    38A     -0.432344    39A     -0.424470
      40A     -0.421691    41A     -0.358460    42A     -0.310352

  @DF-RHF Final Energy:  -525.46912785792131

   => Energetics <=

    Nuclear Repulsion Energy =            660.5743298962755716
    One-Electron Energy =               -2023.2076288186742659
    Two-Electron Energy =                 837.1641710644775003
    Total Energy =                       -525.4691278579213076
  Basis Set: (AUG-CC-PVTZ AUX)
    Blend: AUG-CC-PVTZ-RI
    Molecular point group: c1

    Geometry (in Angstrom), charge = 0, multiplicity = 1:

       Center              X                  Y                   Z               Mass
    ------------   -----------------  -----------------  -----------------  -----------------
         N            0.819987384557    -0.275780070205    -0.039802877597    14.003074004430
         N            1.362434384557    -1.503131070205    -0.268881877597    14.003074004430
         N           -1.077894615443     1.010802929795    -0.455547877597    14.003074004430
         N           -1.264741615443    -1.219948070205     0.427304122403    14.003074004430
         C            1.763603384557     0.718352929795     0.131797122403    12.000000000000
         C            2.982502384557     0.076458929795     0.006181122403    12.000000000000
         C           -0.586462615443    -0.156272070205    -0.020272877597    12.000000000000
         C            1.457829384557     2.147948929795     0.436236122403    12.000000000000
         C            2.725805584557    -1.083813570205    -0.206504977597    12.000000000000
         C           -2.417197615443     1.116061929795    -0.433654877597    12.000000000000
         C           -2.600028615443    -1.094279070205     0.401811122403    12.000000000000
         C           -3.237574615443     0.070164929795    -0.023047877597    12.000000000000
         H            3.956749384557     0.538165929795     0.097500122403     1.007825032230
         H            1.017079384557     2.661948929795    -0.419887877597     1.007825032230
         H            0.758334384557     2.243569929795     1.271590122403     1.007825032230
         H            2.390318384557     2.647771929795     0.711600122403     1.007825032230
         H            3.360041384557    -2.103961070205    -0.411665877597     1.007825032230
         H           -2.826593615443     2.064762929795    -0.775124877597     1.007825032230
         H           -3.164548615443    -1.956873070205     0.750715122403     1.007825032230
         H           -4.318788615443     0.159096929795    -0.026605877597     1.007825032230

  Basis Set: AUG-CC-PVTZ
    Blend: AUG-CC-PVTZ
  Basis Set: (AUG-CC-PVTZ AUX)
    Blend: AUG-CC-PVTZ-JKFIT
	 Reference Energy          =    -525.4691278579213076 [Eh]
	 Singles Energy            =      -0.0000000000000000 [Eh]
	 Same-Spin Energy          =      -0.5828493407579280 [Eh]
	 Opposite-Spin Energy      =      -1.7470570940109920 [Eh]
	 Correlation Energy        =      -2.3299064347689198 [Eh]
	 Total Energy              =    -527.7990342926901803 [Eh]

	 ================> DF-SCS-MP2 Energies <==================
	-----------------------------------------------------------
	 SCS Same-Spin Scale       =       0.3333333333333333 [-]
	 SCS Opposite-Spin Scale   =       1.2000000000000000 [-]
	 SCS Same-Spin Energy      =      -0.1942831135859760 [Eh]
	 SCS Opposite-Spin Energy  =      -2.0964685128131904 [Eh]
	 SCS Correlation Energy    =      -2.2907516263991665 [Eh]
	 SCS Total Energy          =    -527.7598794843204359 [Eh]
	-----------------------------------------------------------

  Dipole Moment: [D]
     X:    -2.9106      Y:     2.8266      Z:     0.4950     Total:     4.0873

*** Psi4 exiting successfully. Buy a developer a beer!
