                               Psi4 1.3.2 release

  ==> Input File <==

--------------------------------------------------------------------------
#psi4
#
memory 32 gb

molecule  {
0 1
  N        0.8160970    -0.2990240    -0.0443680
  N        1.3585440    -1.5263750    -0.2734470
  N       -1.0817850     0.9875590    -0.4601130
  N       -1.2686320    -1.2431920     0.4227390
  C        1.6230918     0.5511737     0.1023869
  C        2.9786120     0.0532150     0.0016160
  C       -0.5903530    -0.1795160    -0.0248380
  C        1.4539390     2.1247050     0.4316710
  C        2.6793880    -1.2992810    -0.2463060
  C       -2.4210880     1.0928180    -0.4382200
  C       -2.6039190    -1.1175230     0.3972460
  C       -3.2414650     0.0469210    -0.0276130
  H        3.9528590     0.5149220     0.0929350
  H        1.0131890     2.6387050    -0.4244530
  H        0.7544440     2.2203260     1.2670250
  H        2.3864280     2.6245280     0.7070350
  H        3.3561510    -2.1272050    -0.4162310
  H       -2.8304840     2.0415190    -0.7796900
  H       -3.1684390    -1.9801170     0.7461500
  H       -4.3226790     0.1358530    -0.0311710
units angstrom
no_reorient  #important for SAPT in psi4, default
symmetry c1  #important for SAPT in psi4, default
}

set PROPERTIES_ORIGIN ["COM"]
properties('MP2/aug-cc-pvtz', properties = ['dipole'])
--------------------------------------------------------------------------

    Molecular point group: c1
  Charge       = 0
  Multiplicity = 1
  Basis Set: AUG-CC-PVTZ
    Blend: AUG-CC-PVTZ
  Basis Set: (AUG-CC-PVTZ AUX)
    Blend: AUG-CC-PVTZ-JKFIT

    Orbital Energies [Eh]
    ---------------------

    Doubly Occupied:

       1A    -15.649892     2A    -15.592584     3A    -15.588552
       4A    -15.558476     5A    -11.376745     6A    -11.318307
       7A    -11.316100     8A    -11.278714     9A    -11.261538
      10A    -11.250642    11A    -11.239641    12A    -11.206607
      13A     -1.432787    14A     -1.325717    15A     -1.214983
      16A     -1.147444    17A     -1.090492    18A     -1.038262
      19A     -0.945839    20A     -0.916418    21A     -0.916160
      22A     -0.816917    23A     -0.805246    24A     -0.722012
      25A     -0.705211    26A     -0.675902    27A     -0.661971
      28A     -0.637606    29A     -0.611095    30A     -0.604048
      31A     -0.588826    32A     -0.575893    33A     -0.566735
      34A     -0.555345    35A     -0.505814    36A     -0.476251
      37A     -0.448514    38A     -0.436530    39A     -0.424513
      40A     -0.412144    41A     -0.361579    42A     -0.311892

  @DF-RHF Final Energy:  -525.49387031455308

   => Energetics <=

    Nuclear Repulsion Energy =            661.8582849849303784
    One-Electron Energy =               -2025.5644205935057016
    Two-Electron Energy =                 838.2122652940222451
    Total Energy =                       -525.4938703145530781
  Basis Set: (AUG-CC-PVTZ AUX)
    Blend: AUG-CC-PVTZ-RI
    Molecular point group: c1

    Geometry (in Angstrom), charge = 0, multiplicity = 1:

       Center              X                  Y                   Z               Mass
    ------------   -----------------  -----------------  -----------------  -----------------
         N            0.833417228024    -0.250579956422    -0.035298910912    14.003074004430
         N            1.375864228024    -1.477930956422    -0.264377910912    14.003074004430
         N           -1.064464771976     1.036003043578    -0.451043910912    14.003074004430
         N           -1.251311771976    -1.194747956422     0.431808089088    14.003074004430
         C            1.640412028024     0.599617743578     0.111455989088    12.000000000000
         C            2.995932228024     0.101659043578     0.010685089088    12.000000000000
         C           -0.573032771976    -0.131071956422    -0.015768910912    12.000000000000
         C            1.471259228024     2.173149043578     0.440740089088    12.000000000000
         C            2.696708228024    -1.250836956422    -0.237236910912    12.000000000000
         C           -2.403767771976     1.141262043578    -0.429150910912    12.000000000000
         C           -2.586598771976    -1.069078956422     0.406315089088    12.000000000000
         C           -3.224144771976     0.095365043578    -0.018543910912    12.000000000000
         H            3.970179228024     0.563366043578     0.102004089088     1.007825032230
         H            1.030509228024     2.687149043578    -0.415383910912     1.007825032230
         H            0.771764228024     2.268770043578     1.276094089088     1.007825032230
         H            2.403748228024     2.672972043578     0.716104089088     1.007825032230
         H            3.373471228024    -2.078760956422    -0.407161910912     1.007825032230
         H           -2.813163771976     2.089963043578    -0.770620910912     1.007825032230
         H           -3.151118771976    -1.931672956422     0.755219089088     1.007825032230
         H           -4.305358771976     0.184297043578    -0.022101910912     1.007825032230

  Basis Set: AUG-CC-PVTZ
    Blend: AUG-CC-PVTZ
  Basis Set: (AUG-CC-PVTZ AUX)
    Blend: AUG-CC-PVTZ-JKFIT
	 Reference Energy          =    -525.4938703145530781 [Eh]
	 Singles Energy            =      -0.0000000000000000 [Eh]
	 Same-Spin Energy          =      -0.5763441068021995 [Eh]
	 Opposite-Spin Energy      =      -1.7356750480129399 [Eh]
	 Correlation Energy        =      -2.3120191548151396 [Eh]
	 Total Energy              =    -527.8058894693682532 [Eh]

	 ================> DF-SCS-MP2 Energies <==================
	-----------------------------------------------------------
	 SCS Same-Spin Scale       =       0.3333333333333333 [-]
	 SCS Opposite-Spin Scale   =       1.2000000000000000 [-]
	 SCS Same-Spin Energy      =      -0.1921147022673998 [Eh]
	 SCS Opposite-Spin Energy  =      -2.0828100576155277 [Eh]
	 SCS Correlation Energy    =      -2.2749247598829276 [Eh]
	 SCS Total Energy          =    -527.7687950744359568 [Eh]
	-----------------------------------------------------------

  Dipole Moment: [D]
     X:    -3.3717      Y:     2.5644      Z:     0.4432     Total:     4.2592

*** Psi4 exiting successfully. Buy a developer a beer!
