                               Psi4 1.3.2 release

  ==> Input File <==

--------------------------------------------------------------------------
#psi4
#
memory 32 gb

molecule  {
0 1
  N        0.8160970    -0.2990240    -0.0443680
  N        1.4443166    -1.4862268    -0.2657413
  N       -1.0817850     0.9875590    -0.4601130
  N       -1.2686320    -1.2431920     0.4227390
  C        1.7597130     0.6951090     0.1272320
  C        2.9786120     0.0532150     0.0016160
  C       -0.5903530    -0.1795160    -0.0248380
  C        1.4539390     2.1247050     0.4316710
  C        2.6793880    -1.2992810    -0.2463060
  C       -2.4210880     1.0928180    -0.4382200
  C       -2.6039190    -1.1175230     0.3972460
  C       -3.2414650     0.0469210    -0.0276130
  H        3.9528590     0.5149220     0.0929350
  H        1.0131890     2.6387050    -0.4244530
  H        0.7544440     2.2203260     1.2670250
  H        2.3864280     2.6245280     0.7070350
  H        3.3561510    -2.1272050    -0.4162310
  H       -2.8304840     2.0415190    -0.7796900
  H       -3.1684390    -1.9801170     0.7461500
  H       -4.3226790     0.1358530    -0.0311710
units angstrom
no_reorient  #important for SAPT in psi4, default
symmetry c1  #important for SAPT in psi4, default
}

set PROPERTIES_ORIGIN ["COM"]
properties('MP2/aug-cc-pvtz', properties = ['dipole'])
--------------------------------------------------------------------------

    Molecular point group: c1
  Charge       = 0
  Multiplicity = 1
  Basis Set: AUG-CC-PVTZ
    Blend: AUG-CC-PVTZ
  Basis Set: (AUG-CC-PVTZ AUX)
    Blend: AUG-CC-PVTZ-JKFIT

    Orbital Energies [Eh]
    ---------------------

    Doubly Occupied:

       1A    -15.638261     2A    -15.582948     3A    -15.579277
       4A    -15.569750     5A    -11.369680     6A    -11.312234
       7A    -11.310075     8A    -11.283683     9A    -11.252970
      10A    -11.242851    11A    -11.232562    12A    -11.211673
      13A     -1.393040    14A     -1.317889    15A     -1.206569
      16A     -1.148920    17A     -1.081874    18A     -1.046304
      19A     -0.956525    20A     -0.910142    21A     -0.899198
      22A     -0.801065    23A     -0.795682    24A     -0.713425
      25A     -0.710395    26A     -0.684824    27A     -0.641483
      28A     -0.637104    29A     -0.607995    30A     -0.597106
      31A     -0.586495    32A     -0.576354    33A     -0.562348
      34A     -0.556173    35A     -0.537253    36A     -0.492055
      37A     -0.441024    38A     -0.431006    39A     -0.419306
      40A     -0.414995    41A     -0.347670    42A     -0.329168

  @DF-RHF Final Energy:  -525.54321668771729

   => Energetics <=

    Nuclear Repulsion Energy =            659.5442886012536974
    One-Electron Energy =               -2021.3163093527416549
    Two-Electron Energy =                 836.2288040637707809
    Total Energy =                       -525.5432166877172904
  Basis Set: (AUG-CC-PVTZ AUX)
    Blend: AUG-CC-PVTZ-RI
    Molecular point group: c1

    Geometry (in Angstrom), charge = 0, multiplicity = 1:

       Center              X                  Y                   Z               Mass
    ------------   -----------------  -----------------  -----------------  -----------------
         N            0.815672194097    -0.264882147890    -0.037835502825    14.003074004430
         N            1.443891794097    -1.452084947890    -0.259208802825    14.003074004430
         N           -1.082209805903     1.021700852110    -0.453580502825    14.003074004430
         N           -1.269056805903    -1.209050147890     0.429271497175    14.003074004430
         C            1.759288194097     0.729250852110     0.133764497175    12.000000000000
         C            2.978187194097     0.087356852110     0.008148497175    12.000000000000
         C           -0.590777805903    -0.145374147890    -0.018305502825    12.000000000000
         C            1.453514194097     2.158846852110     0.438203497175    12.000000000000
         C            2.678963194097    -1.265139147890    -0.239773502825    12.000000000000
         C           -2.421512805903     1.126959852110    -0.431687502825    12.000000000000
         C           -2.604343805903    -1.083381147890     0.403778497175    12.000000000000
         C           -3.241889805903     0.081062852110    -0.021080502825    12.000000000000
         H            3.952434194097     0.549063852110     0.099467497175     1.007825032230
         H            1.012764194097     2.672846852110    -0.417920502825     1.007825032230
         H            0.754019194097     2.254467852110     1.273557497175     1.007825032230
         H            2.386003194097     2.658669852110     0.713567497175     1.007825032230
         H            3.355726194097    -2.093063147890    -0.409698502825     1.007825032230
         H           -2.830908805903     2.075660852110    -0.773157502825     1.007825032230
         H           -3.168863805903    -1.945975147890     0.752682497175     1.007825032230
         H           -4.323103805903     0.169994852110    -0.024638502825     1.007825032230

  Basis Set: AUG-CC-PVTZ
    Blend: AUG-CC-PVTZ
  Basis Set: (AUG-CC-PVTZ AUX)
    Blend: AUG-CC-PVTZ-JKFIT
	 Reference Energy          =    -525.5432166877172904 [Eh]
	 Singles Energy            =      -0.0000000000000000 [Eh]
	 Same-Spin Energy          =      -0.5747701780086532 [Eh]
	 Opposite-Spin Energy      =      -1.7333428548411640 [Eh]
	 Correlation Energy        =      -2.3081130328498172 [Eh]
	 Total Energy              =    -527.8513297205671506 [Eh]

	 ================> DF-SCS-MP2 Energies <==================
	-----------------------------------------------------------
	 SCS Same-Spin Scale       =       0.3333333333333333 [-]
	 SCS Opposite-Spin Scale   =       1.2000000000000000 [-]
	 SCS Same-Spin Energy      =      -0.1915900593362177 [Eh]
	 SCS Opposite-Spin Energy  =      -2.0800114258093969 [Eh]
	 SCS Correlation Energy    =      -2.2716014851456148 [Eh]
	 SCS Total Energy          =    -527.8148181728629424 [Eh]
	-----------------------------------------------------------

  Dipole Moment: [D]
     X:    -2.6228      Y:     2.3898      Z:     0.3987     Total:     3.5706

*** Psi4 exiting successfully. Buy a developer a beer!
