                               Psi4 1.3.2 release

  ==> Input File <==

--------------------------------------------------------------------------
#psi4
#
memory 32 gb

molecule  {
0 1
  N        0.8160970    -0.2990240    -0.0443680
  N        1.3585440    -1.5263750    -0.2734470
  N       -1.0817850     0.9875590    -0.4601130
  N       -1.2686320    -1.2431920     0.4227390
  C        1.7597130     0.6951090     0.1272320
  C        2.9786120     0.0532150     0.0016160
  C       -0.5903530    -0.1795160    -0.0248380
  C        1.4539390     2.1247050     0.4316710
  C        2.6793880    -1.2992810    -0.2463060
  C       -2.3447465     1.0359071    -0.4191733
  C       -2.6039190    -1.1175230     0.3972460
  C       -3.2414650     0.0469210    -0.0276130
  H        3.9528590     0.5149220     0.0929350
  H        1.0131890     2.6387050    -0.4244530
  H        0.7544440     2.2203260     1.2670250
  H        2.3864280     2.6245280     0.7070350
  H        3.3561510    -2.1272050    -0.4162310
  H       -2.8304840     2.0415190    -0.7796900
  H       -3.1684390    -1.9801170     0.7461500
  H       -4.3226790     0.1358530    -0.0311710
units angstrom
no_reorient  #important for SAPT in psi4, default
symmetry c1  #important for SAPT in psi4, default
}

set PROPERTIES_ORIGIN ["COM"]
properties('MP2/aug-cc-pvtz', properties = ['dipole'])
--------------------------------------------------------------------------

    Molecular point group: c1
  Charge       = 0
  Multiplicity = 1
  Basis Set: AUG-CC-PVTZ
    Blend: AUG-CC-PVTZ
  Basis Set: (AUG-CC-PVTZ AUX)
    Blend: AUG-CC-PVTZ-JKFIT

    Orbital Energies [Eh]
    ---------------------

    Doubly Occupied:

       1A    -15.644111     2A    -15.583020     3A    -15.580645
       4A    -15.577966     5A    -11.370885     6A    -11.308923
       7A    -11.306944     8A    -11.288648     9A    -11.256263
      10A    -11.249969    11A    -11.236741    12A    -11.219142
      13A     -1.390835    14A     -1.328772    15A     -1.221459
      16A     -1.132151    17A     -1.085871    18A     -1.045378
      19A     -0.960882    20A     -0.905253    21A     -0.900682
      22A     -0.798733    23A     -0.798138    24A     -0.717277
      25A     -0.709064    26A     -0.684719    27A     -0.642717
      28A     -0.631070    29A     -0.604330    30A     -0.590536
      31A     -0.583300    32A     -0.569740    33A     -0.565729
      34A     -0.556788    35A     -0.538015    36A     -0.498559
      37A     -0.456389    38A     -0.442454    39A     -0.416934
      40A     -0.407244    41A     -0.338016    42A     -0.334081

  @DF-RHF Final Energy:  -525.53392938810271

   => Energetics <=

    Nuclear Repulsion Energy =            660.4911103408330746
    One-Electron Energy =               -2023.0933374801352329
    Two-Electron Energy =                 837.0682977511994523
    Total Energy =                       -525.5339293881027061
  Basis Set: (AUG-CC-PVTZ AUX)
    Blend: AUG-CC-PVTZ-RI
    Molecular point group: c1

    Geometry (in Angstrom), charge = 0, multiplicity = 1:

       Center              X                  Y                   Z               Mass
    ------------   -----------------  -----------------  -----------------  -----------------
         N            0.817452498642    -0.257103732631    -0.038589255696    14.003074004430
         N            1.359899498642    -1.484454732631    -0.267668255696    14.003074004430
         N           -1.080429501358     1.029479267369    -0.454334255696    14.003074004430
         N           -1.267276501358    -1.201271732631     0.428517744304    14.003074004430
         C            1.761068498642     0.737029267369     0.133010744304    12.000000000000
         C            2.979967498642     0.095135267369     0.007394744304    12.000000000000
         C           -0.588997501358    -0.137595732631    -0.019059255696    12.000000000000
         C            1.455294498642     2.166625267369     0.437449744304    12.000000000000
         C            2.680743498642    -1.257360732631    -0.240527255696    12.000000000000
         C           -2.343391001358     1.077827367369    -0.413394555696    12.000000000000
         C           -2.602563501358    -1.075602732631     0.403024744304    12.000000000000
         C           -3.240109501358     0.088841267369    -0.021834255696    12.000000000000
         H            3.954214498642     0.556842267369     0.098713744304     1.007825032230
         H            1.014544498642     2.680625267369    -0.418674255696     1.007825032230
         H            0.755799498642     2.262246267369     1.272803744304     1.007825032230
         H            2.387783498642     2.666448267369     0.712813744304     1.007825032230
         H            3.357506498642    -2.085284732631    -0.410452255696     1.007825032230
         H           -2.829128501358     2.083439267369    -0.773911255696     1.007825032230
         H           -3.167083501358    -1.938196732631     0.751928744304     1.007825032230
         H           -4.321323501358     0.177773267369    -0.025392255696     1.007825032230

  Basis Set: AUG-CC-PVTZ
    Blend: AUG-CC-PVTZ
  Basis Set: (AUG-CC-PVTZ AUX)
    Blend: AUG-CC-PVTZ-JKFIT
	 Reference Energy          =    -525.5339293881027061 [Eh]
	 Singles Energy            =      -0.0000000000000000 [Eh]
	 Same-Spin Energy          =      -0.5770601245231237 [Eh]
	 Opposite-Spin Energy      =      -1.7373350138080395 [Eh]
	 Correlation Energy        =      -2.3143951383311632 [Eh]
	 Total Energy              =    -527.8483245264338848 [Eh]

	 ================> DF-SCS-MP2 Energies <==================
	-----------------------------------------------------------
	 SCS Same-Spin Scale       =       0.3333333333333333 [-]
	 SCS Opposite-Spin Scale   =       1.2000000000000000 [-]
	 SCS Same-Spin Energy      =      -0.1923533748410412 [Eh]
	 SCS Opposite-Spin Energy  =      -2.0848020165696473 [Eh]
	 SCS Correlation Energy    =      -2.2771553914106883 [Eh]
	 SCS Total Energy          =    -527.8110847795134077 [Eh]
	-----------------------------------------------------------

  Dipole Moment: [D]
     X:    -2.3562      Y:     2.4358      Z:     0.4784     Total:     3.4226

*** Psi4 exiting successfully. Buy a developer a beer!
