                               Psi4 1.3.2 release

  ==> Input File <==

--------------------------------------------------------------------------
#psi4
#
memory 32 gb

molecule  {
0 1
  N        0.7480990    -0.2325705    -0.0283509
  N        1.3585440    -1.5263750    -0.2734470
  N       -1.0817850     0.9875590    -0.4601130
  N       -1.2686320    -1.2431920     0.4227390
  C        1.7597130     0.6951090     0.1272320
  C        2.9786120     0.0532150     0.0016160
  C       -0.5903530    -0.1795160    -0.0248380
  C        1.4539390     2.1247050     0.4316710
  C        2.6793880    -1.2992810    -0.2463060
  C       -2.4210880     1.0928180    -0.4382200
  C       -2.6039190    -1.1175230     0.3972460
  C       -3.2414650     0.0469210    -0.0276130
  H        3.9528590     0.5149220     0.0929350
  H        1.0131890     2.6387050    -0.4244530
  H        0.7544440     2.2203260     1.2670250
  H        2.3864280     2.6245280     0.7070350
  H        3.3561510    -2.1272050    -0.4162310
  H       -2.8304840     2.0415190    -0.7796900
  H       -3.1684390    -1.9801170     0.7461500
  H       -4.3226790     0.1358530    -0.0311710
units angstrom
no_reorient  #important for SAPT in psi4, default
symmetry c1  #important for SAPT in psi4, default
}

set PROPERTIES_ORIGIN ["COM"]
properties('MP2/aug-cc-pvtz', properties = ['dipole'])
--------------------------------------------------------------------------

    Molecular point group: c1
  Charge       = 0
  Multiplicity = 1
  Basis Set: AUG-CC-PVTZ
    Blend: AUG-CC-PVTZ
  Basis Set: (AUG-CC-PVTZ AUX)
    Blend: AUG-CC-PVTZ-JKFIT

    Orbital Energies [Eh]
    ---------------------

    Doubly Occupied:

       1A    -15.636403     2A    -15.586520     3A    -15.574404
       4A    -15.572664     5A    -11.359810     6A    -11.306639
       7A    -11.305678     8A    -11.297875     9A    -11.266608
      10A    -11.246818    11A    -11.234247    12A    -11.222566
      13A     -1.376580    14A     -1.299397    15A     -1.201835
      16A     -1.143514    17A     -1.082509    18A     -1.042768
      19A     -0.958441    20A     -0.906622    21A     -0.901050
      22A     -0.804574    23A     -0.791042    24A     -0.712977
      25A     -0.702312    26A     -0.680598    27A     -0.638805
      28A     -0.634659    29A     -0.606570    30A     -0.598387
      31A     -0.584235    32A     -0.573138    33A     -0.556723
      34A     -0.543992    35A     -0.539444    36A     -0.490645
      37A     -0.449079    38A     -0.426713    39A     -0.416351
      40A     -0.414259    41A     -0.342599    42A     -0.328745

  @DF-RHF Final Energy:  -525.53144562424291

   => Energetics <=

    Nuclear Repulsion Energy =            658.4186997717307577
    One-Electron Energy =               -2019.1827001068027130
    Two-Electron Energy =                 835.2325547108291630
    Total Energy =                       -525.5314456242429060
  Basis Set: (AUG-CC-PVTZ AUX)
    Blend: AUG-CC-PVTZ-RI
    Molecular point group: c1

    Geometry (in Angstrom), charge = 0, multiplicity = 1:

       Center              X                  Y                   Z               Mass
    ------------   -----------------  -----------------  -----------------  -----------------
         N            0.761125779209    -0.200729789863    -0.022545469666    14.003074004430
         N            1.371570779209    -1.494534289863    -0.267641569666    14.003074004430
         N           -1.068758220791     1.019399710137    -0.454307569666    14.003074004430
         N           -1.255605220791    -1.211351289863     0.428544430334    14.003074004430
         C            1.772739779209     0.726949710137     0.133037430334    12.000000000000
         C            2.991638779209     0.085055710137     0.007421430334    12.000000000000
         C           -0.577326220791    -0.147675289863    -0.019032569666    12.000000000000
         C            1.466965779209     2.156545710137     0.437476430334    12.000000000000
         C            2.692414779209    -1.267440289863    -0.240500569666    12.000000000000
         C           -2.408061220791     1.124658710137    -0.432414569666    12.000000000000
         C           -2.590892220791    -1.085682289863     0.403051430334    12.000000000000
         C           -3.228438220791     0.078761710137    -0.021807569666    12.000000000000
         H            3.965885779209     0.546762710137     0.098740430334     1.007825032230
         H            1.026215779209     2.670545710137    -0.418647569666     1.007825032230
         H            0.767470779209     2.252166710137     1.272830430334     1.007825032230
         H            2.399454779209     2.656368710137     0.712840430334     1.007825032230
         H            3.369177779209    -2.095364289863    -0.410425569666     1.007825032230
         H           -2.817457220791     2.073359710137    -0.773884569666     1.007825032230
         H           -3.155412220791    -1.948276289863     0.751955430334     1.007825032230
         H           -4.309652220791     0.167693710137    -0.025365569666     1.007825032230

  Basis Set: AUG-CC-PVTZ
    Blend: AUG-CC-PVTZ
  Basis Set: (AUG-CC-PVTZ AUX)
    Blend: AUG-CC-PVTZ-JKFIT
	 Reference Energy          =    -525.5314456242429060 [Eh]
	 Singles Energy            =      -0.0000000000000000 [Eh]
	 Same-Spin Energy          =      -0.5771609962814530 [Eh]
	 Opposite-Spin Energy      =      -1.7400677977626144 [Eh]
	 Correlation Energy        =      -2.3172287940440675 [Eh]
	 Total Energy              =    -527.8486744182869188 [Eh]

	 ================> DF-SCS-MP2 Energies <==================
	-----------------------------------------------------------
	 SCS Same-Spin Scale       =       0.3333333333333333 [-]
	 SCS Opposite-Spin Scale   =       1.2000000000000000 [-]
	 SCS Same-Spin Energy      =      -0.1923869987604843 [Eh]
	 SCS Opposite-Spin Energy  =      -2.0880813573151373 [Eh]
	 SCS Correlation Energy    =      -2.2804683560756218 [Eh]
	 SCS Total Energy          =    -527.8119139803185362 [Eh]
	-----------------------------------------------------------

  Dipole Moment: [D]
     X:    -1.9860      Y:     2.4341      Z:     0.4250     Total:     3.1701

*** Psi4 exiting successfully. Buy a developer a beer!
