                               Psi4 1.4a3.dev225

  ==> Input File <==

--------------------------------------------------------------------------
#psi4
#
memory 32 gb

molecule  {
0 1
  N        0.8160970    -0.2990240    -0.0443680
  N        1.3585440    -1.5263750    -0.2734470
  N       -1.0817850     0.9875590    -0.4601130
  N       -1.2686320    -1.2431920     0.4227390
  C        1.7597130     0.6951090     0.1272320
  C        2.9786120     0.0532150     0.0016160
  C       -0.5903530    -0.1795160    -0.0248380
  C        1.4539390     2.1247050     0.4316710
  C        2.6751353    -1.3185033    -0.2498296
  C       -2.4210880     1.0928180    -0.4382200
  C       -2.6039190    -1.1175230     0.3972460
  C       -3.2414650     0.0469210    -0.0276130
  H        3.9528590     0.5149220     0.0929350
  H        1.0131890     2.6387050    -0.4244530
  H        0.7544440     2.2203260     1.2670250
  H        2.3864280     2.6245280     0.7070350
  H        3.3561510    -2.1272050    -0.4162310
  H       -2.8304840     2.0415190    -0.7796900
  H       -3.1684390    -1.9801170     0.7461500
  H       -4.3226790     0.1358530    -0.0311710
units angstrom
no_reorient  #important for SAPT in psi4, default
symmetry c1  #important for SAPT in psi4, default
}

set PROPERTIES_ORIGIN ["COM"]
properties('MP2/aug-cc-pvtz', properties = ['dipole'])
--------------------------------------------------------------------------

    Molecular point group: c1
  Charge       = 0
  Multiplicity = 1
  Basis Set: AUG-CC-PVTZ
    Blend: AUG-CC-PVTZ
  Basis Set: (AUG-CC-PVTZ AUX)
    Blend: AUG-CC-PVTZ-JKFIT

    Orbital Energies [Eh]
    ---------------------

    Doubly Occupied:

       1A    -15.641413     2A    -15.582285     3A    -15.582150
       4A    -15.578377     5A    -11.367281     6A    -11.311367
       7A    -11.309315     8A    -11.286403     9A    -11.255363
      10A    -11.252425    11A    -11.234521    12A    -11.218531
      13A     -1.386200    14A     -1.312415    15A     -1.205824
      16A     -1.130268    17A     -1.083832    18A     -1.043856
      19A     -0.957530    20A     -0.908969    21A     -0.896186
      22A     -0.801820    23A     -0.794746    24A     -0.713050
      25A     -0.706915    26A     -0.681824    27A     -0.638511
      28A     -0.633395    29A     -0.608120    30A     -0.590225
      31A     -0.587294    32A     -0.576164    33A     -0.562955
      34A     -0.552605    35A     -0.536629    36A     -0.491424
      37A     -0.453309    38A     -0.430339    39A     -0.419821
      40A     -0.407160    41A     -0.338190    42A     -0.332413

  @DF-RHF Final Energy:  -525.54413515930582

   => Energetics <=

    Nuclear Repulsion Energy =            658.0707155692518882
    One-Electron Energy =               -2018.4268669620414585
    Two-Electron Energy =                 834.8120162334837460
    Total Energy =                       -525.5441351593058243
  Basis Set: (AUG-CC-PVTZ AUX)
    Blend: AUG-CC-PVTZ-RI
    Molecular point group: c1

    Geometry (in Angstrom), charge = 0, multiplicity = 1:

       Center              X                  Y                   Z               Mass
    ------------   -----------------  -----------------  -----------------  -----------------
         N            0.823494235494    -0.259929055093    -0.036897275215    14.003074004430
         N            1.365941235494    -1.487280055093    -0.265976275215    14.003074004430
         N           -1.074387764506     1.026653944907    -0.452642275215    14.003074004430
         N           -1.261234764506    -1.204097055093     0.430209724785    14.003074004430
         C            1.767110235494     0.734203944907     0.134702724785    12.000000000000
         C            2.986009235494     0.092309944907     0.009086724785    12.000000000000
         C           -0.582955764506    -0.140421055093    -0.017367275215    12.000000000000
         C            1.461336235494     2.163799944907     0.439141724785    12.000000000000
         C            2.682532535494    -1.279408355093    -0.242358875215    12.000000000000
         C           -2.413690764506     1.131912944907    -0.430749275215    12.000000000000
         C           -2.596521764506    -1.078428055093     0.404716724785    12.000000000000
         C           -3.234067764506     0.086015944907    -0.020142275215    12.000000000000
         H            3.960256235494     0.554016944907     0.100405724785     1.007825032230
         H            1.020586235494     2.677799944907    -0.416982275215     1.007825032230
         H            0.761841235494     2.259420944907     1.274495724785     1.007825032230
         H            2.393825235494     2.663622944907     0.714505724785     1.007825032230
         H            3.363548235494    -2.088110055093    -0.408760275215     1.007825032230
         H           -2.823086764506     2.080613944907    -0.772219275215     1.007825032230
         H           -3.161041764506    -1.941022055093     0.753620724785     1.007825032230
         H           -4.315281764506     0.174947944907    -0.023700275215     1.007825032230

  Basis Set: AUG-CC-PVTZ
    Blend: AUG-CC-PVTZ
  Basis Set: (AUG-CC-PVTZ AUX)
    Blend: AUG-CC-PVTZ-JKFIT
	 Reference Energy          =    -525.5441351593058243 [Eh]
	 Singles Energy            =      -0.0000000000000000 [Eh]
	 Same-Spin Energy          =      -0.5771046324798441 [Eh]
	 Opposite-Spin Energy      =      -1.7381070967426688 [Eh]
	 Correlation Energy        =      -2.3152117292225132 [Eh]
	 Total Energy              =    -527.8593468885283073 [Eh]

	 ================> DF-SCS-MP2 Energies <==================
	-----------------------------------------------------------
	 SCS Same-Spin Scale       =       0.3333333333333333 [-]
	 SCS Opposite-Spin Scale   =       1.2000000000000000 [-]
	 SCS Same-Spin Energy      =      -0.1923682108266147 [Eh]
	 SCS Opposite-Spin Energy  =      -2.0857285160912027 [Eh]
	 SCS Correlation Energy    =      -2.2780967269178172 [Eh]
	 SCS Total Energy          =    -527.8222318862236762 [Eh]
	-----------------------------------------------------------

  Dipole Moment: [D]
     X:    -2.5499      Y:     2.5217      Z:     0.4334     Total:     3.6123

*** Psi4 exiting successfully. Buy a developer a beer!
