                               Psi4 1.3.2 release

  ==> Input File <==

--------------------------------------------------------------------------
#psi4
#
memory 32 gb

molecule  {
0 1
  N        0.8160970    -0.2990240    -0.0443680
  N        1.3627281    -1.5489976    -0.2776986
  N       -1.0817850     0.9875590    -0.4601130
  N       -1.2686320    -1.2431920     0.4227390
  C        1.7597130     0.6951090     0.1272320
  C        2.9786120     0.0532150     0.0016160
  C       -0.5903530    -0.1795160    -0.0248380
  C        1.4539390     2.1247050     0.4316710
  C        2.6793880    -1.2992810    -0.2463060
  C       -2.4210880     1.0928180    -0.4382200
  C       -2.6039190    -1.1175230     0.3972460
  C       -3.2414650     0.0469210    -0.0276130
  H        3.9528590     0.5149220     0.0929350
  H        1.0131890     2.6387050    -0.4244530
  H        0.7544440     2.2203260     1.2670250
  H        2.3864280     2.6245280     0.7070350
  H        3.3561510    -2.1272050    -0.4162310
  H       -2.8304840     2.0415190    -0.7796900
  H       -3.1684390    -1.9801170     0.7461500
  H       -4.3226790     0.1358530    -0.0311710
units angstrom
no_reorient  #important for SAPT in psi4, default
symmetry c1  #important for SAPT in psi4, default
}

set PROPERTIES_ORIGIN ["COM"]
properties('MP2/aug-cc-pvtz', properties = ['dipole'])
--------------------------------------------------------------------------

    Molecular point group: c1
  Charge       = 0
  Multiplicity = 1
  Basis Set: AUG-CC-PVTZ
    Blend: AUG-CC-PVTZ
  Basis Set: (AUG-CC-PVTZ AUX)
    Blend: AUG-CC-PVTZ-JKFIT

    Orbital Energies [Eh]
    ---------------------

    Doubly Occupied:

       1A    -15.640485     2A    -15.583799     3A    -15.581644
       4A    -15.577838     5A    -11.366688     6A    -11.311014
       7A    -11.308941     8A    -11.289417     9A    -11.256363
      10A    -11.252004    11A    -11.235750    12A    -11.217612
      13A     -1.379670    14A     -1.310155    15A     -1.205361
      16A     -1.129576    17A     -1.084443    18A     -1.043703
      19A     -0.960279    20A     -0.908457    21A     -0.895197
      22A     -0.798777    23A     -0.792906    24A     -0.713054
      25A     -0.706673    26A     -0.682421    27A     -0.636105
      28A     -0.632554    29A     -0.606782    30A     -0.588585
      31A     -0.585554    32A     -0.573999    33A     -0.564050
      34A     -0.551233    35A     -0.536572    36A     -0.491176
      37A     -0.457586    38A     -0.430054    39A     -0.419996
      40A     -0.408037    41A     -0.339034    42A     -0.332612

  @DF-RHF Final Energy:  -525.54222981504984

   => Energetics <=

    Nuclear Repulsion Energy =            657.5959056312507300
    One-Electron Energy =               -2017.5039582383089964
    Two-Electron Energy =                 834.3658227920085437
    Total Energy =                       -525.5422298150498364
  Basis Set: (AUG-CC-PVTZ AUX)
    Blend: AUG-CC-PVTZ-RI
    Molecular point group: c1

    Geometry (in Angstrom), charge = 0, multiplicity = 1:

       Center              X                  Y                   Z               Mass
    ------------   -----------------  -----------------  -----------------  -----------------
         N            0.822809414423    -0.259391067288    -0.036789498981    14.003074004430
         N            1.369440514423    -1.509364667288    -0.270120098981    14.003074004430
         N           -1.075072585577     1.027191932712    -0.452534498981    14.003074004430
         N           -1.261919585577    -1.203559067288     0.430317501019    14.003074004430
         C            1.766425414423     0.734741932712     0.134810501019    12.000000000000
         C            2.985324414423     0.092847932712     0.009194501019    12.000000000000
         C           -0.583640585577    -0.139883067288    -0.017259498981    12.000000000000
         C            1.460651414423     2.164337932712     0.439249501019    12.000000000000
         C            2.686100414423    -1.259648067288    -0.238727498981    12.000000000000
         C           -2.414375585577     1.132450932712    -0.430641498981    12.000000000000
         C           -2.597206585577    -1.077890067288     0.404824501019    12.000000000000
         C           -3.234752585577     0.086553932712    -0.020034498981    12.000000000000
         H            3.959571414423     0.554554932712     0.100513501019     1.007825032230
         H            1.019901414423     2.678337932712    -0.416874498981     1.007825032230
         H            0.761156414423     2.259958932712     1.274603501019     1.007825032230
         H            2.393140414423     2.664160932712     0.714613501019     1.007825032230
         H            3.362863414423    -2.087572067288    -0.408652498981     1.007825032230
         H           -2.823771585577     2.081151932712    -0.772111498981     1.007825032230
         H           -3.161726585577    -1.940484067288     0.753728501019     1.007825032230
         H           -4.315966585577     0.175485932712    -0.023592498981     1.007825032230

  Basis Set: AUG-CC-PVTZ
    Blend: AUG-CC-PVTZ
  Basis Set: (AUG-CC-PVTZ AUX)
    Blend: AUG-CC-PVTZ-JKFIT
	 Reference Energy          =    -525.5422298150498364 [Eh]
	 Singles Energy            =      -0.0000000000000000 [Eh]
	 Same-Spin Energy          =      -0.5775025976134837 [Eh]
	 Opposite-Spin Energy      =      -1.7391375588470230 [Eh]
	 Correlation Energy        =      -2.3166401564605068 [Eh]
	 Total Energy              =    -527.8588699715103303 [Eh]

	 ================> DF-SCS-MP2 Energies <==================
	-----------------------------------------------------------
	 SCS Same-Spin Scale       =       0.3333333333333333 [-]
	 SCS Opposite-Spin Scale   =       1.2000000000000000 [-]
	 SCS Same-Spin Energy      =      -0.1925008658711612 [Eh]
	 SCS Opposite-Spin Energy  =      -2.0869650706164276 [Eh]
	 SCS Correlation Energy    =      -2.2794659364875889 [Eh]
	 SCS Total Energy          =    -527.8216957515373906 [Eh]
	-----------------------------------------------------------

  Dipole Moment: [D]
     X:    -2.5240      Y:     2.5826      Z:     0.4458     Total:     3.6386

*** Psi4 exiting successfully. Buy a developer a beer!
