                               Psi4 1.3.2 release

  ==> Input File <==

--------------------------------------------------------------------------
#psi4
#
memory 32 gb

molecule  {
0 1
  N        0.8160970    -0.2990240    -0.0443680
  N        1.3585440    -1.5263750    -0.2734470
  N       -1.0817850     0.9875590    -0.4601130
  N       -1.2686320    -1.2431920     0.4227390
  C        1.7597130     0.6951090     0.1272320
  C        2.9550479     0.0120646    -0.0074787
  C       -0.5903530    -0.1795160    -0.0248380
  C        1.4539390     2.1247050     0.4316710
  C        2.6793880    -1.2992810    -0.2463060
  C       -2.4210880     1.0928180    -0.4382200
  C       -2.6039190    -1.1175230     0.3972460
  C       -3.2414650     0.0469210    -0.0276130
  H        3.9528590     0.5149220     0.0929350
  H        1.0131890     2.6387050    -0.4244530
  H        0.7544440     2.2203260     1.2670250
  H        2.3864280     2.6245280     0.7070350
  H        3.3561510    -2.1272050    -0.4162310
  H       -2.8304840     2.0415190    -0.7796900
  H       -3.1684390    -1.9801170     0.7461500
  H       -4.3226790     0.1358530    -0.0311710
units angstrom
no_reorient  #important for SAPT in psi4, default
symmetry c1  #important for SAPT in psi4, default
}

set PROPERTIES_ORIGIN ["COM"]
properties('MP2/aug-cc-pvtz', properties = ['dipole'])
--------------------------------------------------------------------------

    Molecular point group: c1
  Charge       = 0
  Multiplicity = 1
  Basis Set: AUG-CC-PVTZ
    Blend: AUG-CC-PVTZ
  Basis Set: (AUG-CC-PVTZ AUX)
    Blend: AUG-CC-PVTZ-JKFIT

    Orbital Energies [Eh]
    ---------------------

    Doubly Occupied:

       1A    -15.643132     2A    -15.582860     3A    -15.578892
       4A    -15.578802     5A    -11.367313     6A    -11.311745
       7A    -11.309606     8A    -11.285638     9A    -11.253057
      10A    -11.248552    11A    -11.236151    12A    -11.215607
      13A     -1.387586    14A     -1.313393    15A     -1.206259
      16A     -1.131664    17A     -1.083726    18A     -1.047185
      19A     -0.961053    20A     -0.909112    21A     -0.898279
      22A     -0.801938    23A     -0.790907    24A     -0.714260
      25A     -0.708665    26A     -0.683896    27A     -0.638813
      28A     -0.632580    29A     -0.604790    30A     -0.588921
      31A     -0.584338    32A     -0.574587    33A     -0.563430
      34A     -0.553834    35A     -0.537535    36A     -0.491629
      37A     -0.454344    38A     -0.430629    39A     -0.420304
      40A     -0.410010    41A     -0.340890    42A     -0.329511

  @DF-RHF Final Energy:  -525.53936190708100

   => Energetics <=

    Nuclear Repulsion Energy =            659.0516480554689451
    One-Electron Energy =               -2020.3711668609341814
    Two-Electron Energy =                 835.7801568983841207
    Total Energy =                       -525.5393619070810018
  Basis Set: (AUG-CC-PVTZ AUX)
    Blend: AUG-CC-PVTZ-RI
    Molecular point group: c1

    Geometry (in Angstrom), charge = 0, multiplicity = 1:

       Center              X                  Y                   Z               Mass
    ------------   -----------------  -----------------  -----------------  -----------------
         N            0.824941912834    -0.258285217076    -0.036479638211    14.003074004430
         N            1.367388912834    -1.485636217076    -0.265558638211    14.003074004430
         N           -1.072940087166     1.028297782924    -0.452224638211    14.003074004430
         N           -1.259787087166    -1.202453217076     0.430627361789    14.003074004430
         C            1.768557912834     0.735847782924     0.135120361789    12.000000000000
         C            2.963892812834     0.052803382924     0.000409661789    12.000000000000
         C           -0.581508087166    -0.138777217076    -0.016949638211    12.000000000000
         C            1.462783912834     2.165443782924     0.439559361789    12.000000000000
         C            2.688232912834    -1.258542217076    -0.238417638211    12.000000000000
         C           -2.412243087166     1.133556782924    -0.430331638211    12.000000000000
         C           -2.595074087166    -1.076784217076     0.405134361789    12.000000000000
         C           -3.232620087166     0.087659782924    -0.019724638211    12.000000000000
         H            3.961703912834     0.555660782924     0.100823361789     1.007825032230
         H            1.022033912834     2.679443782924    -0.416564638211     1.007825032230
         H            0.763288912834     2.261064782924     1.274913361789     1.007825032230
         H            2.395272912834     2.665266782924     0.714923361789     1.007825032230
         H            3.364995912834    -2.086466217076    -0.408342638211     1.007825032230
         H           -2.821639087166     2.082257782924    -0.771801638211     1.007825032230
         H           -3.159594087166    -1.939378217076     0.754038361789     1.007825032230
         H           -4.313834087166     0.176591782924    -0.023282638211     1.007825032230

  Basis Set: AUG-CC-PVTZ
    Blend: AUG-CC-PVTZ
  Basis Set: (AUG-CC-PVTZ AUX)
    Blend: AUG-CC-PVTZ-JKFIT
	 Reference Energy          =    -525.5393619070810018 [Eh]
	 Singles Energy            =      -0.0000000000000000 [Eh]
	 Same-Spin Energy          =      -0.5783048499022151 [Eh]
	 Opposite-Spin Energy      =      -1.7392268134822833 [Eh]
	 Correlation Energy        =      -2.3175316633844982 [Eh]
	 Total Energy              =    -527.8568935704654450 [Eh]

	 ================> DF-SCS-MP2 Energies <==================
	-----------------------------------------------------------
	 SCS Same-Spin Scale       =       0.3333333333333333 [-]
	 SCS Opposite-Spin Scale   =       1.2000000000000000 [-]
	 SCS Same-Spin Energy      =      -0.1927682833007384 [Eh]
	 SCS Opposite-Spin Energy  =      -2.0870721761787396 [Eh]
	 SCS Correlation Energy    =      -2.2798404594794781 [Eh]
	 SCS Total Energy          =    -527.8192023665604893 [Eh]
	-----------------------------------------------------------

  Dipole Moment: [D]
     X:    -2.6292      Y:     2.5754      Z:     0.4473     Total:     3.7075

*** Psi4 exiting successfully. Buy a developer a beer!
