                               Psi4 1.3.2 release

  ==> Input File <==

--------------------------------------------------------------------------
#psi4
#
memory 32 gb

molecule  {
0 1
  N        0.8160970    -0.2990240    -0.0443680
  N        1.3585440    -1.5263750    -0.2734470
  N       -1.2091610     0.9352938    -0.4338728
  N       -1.2686320    -1.2431920     0.4227390
  C        1.7597130     0.6951090     0.1272320
  C        2.9786120     0.0532150     0.0016160
  C       -0.5903530    -0.1795160    -0.0248380
  C        1.4539390     2.1247050     0.4316710
  C        2.6793880    -1.2992810    -0.2463060
  C       -2.4210880     1.0928180    -0.4382200
  C       -2.6039190    -1.1175230     0.3972460
  C       -3.2414650     0.0469210    -0.0276130
  H        3.9528590     0.5149220     0.0929350
  H        1.0131890     2.6387050    -0.4244530
  H        0.7544440     2.2203260     1.2670250
  H        2.3864280     2.6245280     0.7070350
  H        3.3561510    -2.1272050    -0.4162310
  H       -2.8304840     2.0415190    -0.7796900
  H       -3.1684390    -1.9801170     0.7461500
  H       -4.3226790     0.1358530    -0.0311710
units angstrom
no_reorient  #important for SAPT in psi4, default
symmetry c1  #important for SAPT in psi4, default
}

set PROPERTIES_ORIGIN ["COM"]
properties('MP2/aug-cc-pvtz', properties = ['dipole'])
--------------------------------------------------------------------------

    Molecular point group: c1
  Charge       = 0
  Multiplicity = 1
  Basis Set: AUG-CC-PVTZ
    Blend: AUG-CC-PVTZ
  Basis Set: (AUG-CC-PVTZ AUX)
    Blend: AUG-CC-PVTZ-JKFIT

    Orbital Energies [Eh]
    ---------------------

    Doubly Occupied:

       1A    -15.648783     2A    -15.585395     3A    -15.575310
       4A    -15.566215     5A    -11.369962     6A    -11.299168
       7A    -11.293193     8A    -11.290641     9A    -11.258331
      10A    -11.244539    11A    -11.239022    12A    -11.220814
      13A     -1.390726    14A     -1.332097    15A     -1.219263
      16A     -1.132867    17A     -1.086478    18A     -1.042331
      19A     -0.962815    20A     -0.913579    21A     -0.897206
      22A     -0.809387    23A     -0.799995    24A     -0.723353
      25A     -0.709635    26A     -0.684894    27A     -0.642872
      28A     -0.630457    29A     -0.611175    30A     -0.597440
      31A     -0.590394    32A     -0.583740    33A     -0.566890
      34A     -0.559178    35A     -0.538817    36A     -0.485185
      37A     -0.456613    38A     -0.442212    39A     -0.404949
      40A     -0.401678    41A     -0.336566    42A     -0.334735

  @DF-RHF Final Energy:  -525.52992651264117

   => Energetics <=

    Nuclear Repulsion Energy =            659.8708655935965908
    One-Electron Energy =               -2021.8437861754514415
    Two-Electron Energy =                 836.4429940692136825
    Total Energy =                       -525.5299265126411683
  Basis Set: (AUG-CC-PVTZ AUX)
    Blend: AUG-CC-PVTZ-RI
    Molecular point group: c1

    Geometry (in Angstrom), charge = 0, multiplicity = 1:

       Center              X                  Y                   Z               Mass
    ------------   -----------------  -----------------  -----------------  -----------------
         N            0.834318063557    -0.256797984106    -0.039456868705    14.003074004430
         N            1.376765063557    -1.484148984106    -0.268535868705    14.003074004430
         N           -1.190939936443     0.977519815894    -0.428961668705    14.003074004430
         N           -1.250410936443    -1.200965984106     0.427650131295    14.003074004430
         C            1.777934063557     0.737335015894     0.132143131295    12.000000000000
         C            2.996833063557     0.095441015894     0.006527131295    12.000000000000
         C           -0.572131936443    -0.137289984106    -0.019926868705    12.000000000000
         C            1.472160063557     2.166931015894     0.436582131295    12.000000000000
         C            2.697609063557    -1.257054984106    -0.241394868705    12.000000000000
         C           -2.402866936443     1.135044015894    -0.433308868705    12.000000000000
         C           -2.585697936443    -1.075296984106     0.402157131295    12.000000000000
         C           -3.223243936443     0.089147015894    -0.022701868705    12.000000000000
         H            3.971080063557     0.557148015894     0.097846131295     1.007825032230
         H            1.031410063557     2.680931015894    -0.419541868705     1.007825032230
         H            0.772665063557     2.262552015894     1.271936131295     1.007825032230
         H            2.404649063557     2.666754015894     0.711946131295     1.007825032230
         H            3.374372063557    -2.084978984106    -0.411319868705     1.007825032230
         H           -2.812262936443     2.083745015894    -0.774778868705     1.007825032230
         H           -3.150217936443    -1.937890984106     0.751061131295     1.007825032230
         H           -4.304457936443     0.178079015894    -0.026259868705     1.007825032230

  Basis Set: AUG-CC-PVTZ
    Blend: AUG-CC-PVTZ
  Basis Set: (AUG-CC-PVTZ AUX)
    Blend: AUG-CC-PVTZ-JKFIT
	 Reference Energy          =    -525.5299265126411683 [Eh]
	 Singles Energy            =      -0.0000000000000000 [Eh]
	 Same-Spin Energy          =      -0.5767312826535652 [Eh]
	 Opposite-Spin Energy      =      -1.7356097051796888 [Eh]
	 Correlation Energy        =      -2.3123409878332541 [Eh]
	 Total Energy              =    -527.8422675004744633 [Eh]

	 ================> DF-SCS-MP2 Energies <==================
	-----------------------------------------------------------
	 SCS Same-Spin Scale       =       0.3333333333333333 [-]
	 SCS Opposite-Spin Scale   =       1.2000000000000000 [-]
	 SCS Same-Spin Energy      =      -0.1922437608845217 [Eh]
	 SCS Opposite-Spin Energy  =      -2.0827316462156267 [Eh]
	 SCS Correlation Energy    =      -2.2749754071001482 [Eh]
	 SCS Total Energy          =    -527.8049019197412690 [Eh]
	-----------------------------------------------------------

  Dipole Moment: [D]
     X:    -2.0772      Y:     2.6956      Z:     0.3740     Total:     3.4236

*** Psi4 exiting successfully. Buy a developer a beer!
