                               Psi4 1.3.2 release

  ==> Input File <==

--------------------------------------------------------------------------
#psi4
#
memory 32 gb

molecule  {
0 1
  N        0.8160970    -0.2990240    -0.0443680
  N        1.3585440    -1.5263750    -0.2734470
  N       -1.0817850     0.9875590    -0.4601130
  N       -1.2686320    -1.2431920     0.4227390
  C        1.7597130     0.6951090     0.1272320
  C        2.9786120     0.0532150     0.0016160
  C       -0.5903530    -0.1795160    -0.0248380
  C        1.4539390     2.1247050     0.4316710
  C        2.6793880    -1.2992810    -0.2463060
  C       -2.4210880     1.0928180    -0.4382200
  C       -2.6039190    -1.1175230     0.3972460
  C       -3.2414650     0.0469210    -0.0276130
  H        3.9528590     0.5149220     0.0929350
  H        1.0131890     2.6387050    -0.4244530
  H        0.7544440     2.2203260     1.2670250
  H        2.3864280     2.6245280     0.7070350
  H        3.3561510    -2.1272050    -0.4162310
  H       -2.8304840     2.0415190    -0.7796900
  H       -3.1165692    -1.9008593     0.7140917
  H       -4.3226790     0.1358530    -0.0311710
units angstrom
no_reorient  #important for SAPT in psi4, default
symmetry c1  #important for SAPT in psi4, default
}

set PROPERTIES_ORIGIN ["COM"]
properties('MP2/aug-cc-pvtz', properties = ['dipole'])
--------------------------------------------------------------------------

    Molecular point group: c1
  Charge       = 0
  Multiplicity = 1
  Basis Set: AUG-CC-PVTZ
    Blend: AUG-CC-PVTZ
  Basis Set: (AUG-CC-PVTZ AUX)
    Blend: AUG-CC-PVTZ-JKFIT

    Orbital Energies [Eh]
    ---------------------

    Doubly Occupied:

       1A    -15.641860     2A    -15.582314     3A    -15.581286
       4A    -15.577961     5A    -11.366737     6A    -11.311093
       7A    -11.298079     8A    -11.286545     9A    -11.254354
      10A    -11.252070    11A    -11.234577    12A    -11.217142
      13A     -1.386067    14A     -1.312335    15A     -1.206493
      16A     -1.129611    17A     -1.084510    18A     -1.045397
      19A     -0.958649    20A     -0.917545    21A     -0.896929
      22A     -0.803807    23A     -0.797957    24A     -0.713757
      25A     -0.710468    26A     -0.682898    27A     -0.640816
      28A     -0.636122    29A     -0.612852    30A     -0.593074
      31A     -0.587097    32A     -0.574888    33A     -0.563857
      34A     -0.552483    35A     -0.535749    36A     -0.491287
      37A     -0.454994    38A     -0.430231    39A     -0.420964
      40A     -0.407440    41A     -0.337778    42A     -0.332204

  @DF-RHF Final Energy:  -525.53784402476208

   => Energetics <=

    Nuclear Repulsion Energy =            658.8504895742108829
    One-Electron Energy =               -2019.9321140031181585
    Two-Electron Energy =                 835.5437804041450818
    Total Energy =                       -525.5378440247620802
  Basis Set: (AUG-CC-PVTZ AUX)
    Blend: AUG-CC-PVTZ-RI
    Molecular point group: c1

    Geometry (in Angstrom), charge = 0, multiplicity = 1:

       Center              X                  Y                   Z               Mass
    ------------   -----------------  -----------------  -----------------  -----------------
         N            0.822848862077    -0.261869056313    -0.036959583815    14.003074004430
         N            1.365295862077    -1.489220056313    -0.266038583815    14.003074004430
         N           -1.075033137923     1.024713943687    -0.452704583815    14.003074004430
         N           -1.261880137923    -1.206037056313     0.430147416185    14.003074004430
         C            1.766464862077     0.732263943687     0.134640416185    12.000000000000
         C            2.985363862077     0.090369943687     0.009024416185    12.000000000000
         C           -0.583601137923    -0.142361056313    -0.017429583815    12.000000000000
         C            1.460690862077     2.161859943687     0.439079416185    12.000000000000
         C            2.686139862077    -1.262126056313    -0.238897583815    12.000000000000
         C           -2.414336137923     1.129972943687    -0.430811583815    12.000000000000
         C           -2.597167137923    -1.080368056313     0.404654416185    12.000000000000
         C           -3.234713137923     0.084075943687    -0.020204583815    12.000000000000
         H            3.959610862077     0.552076943687     0.100343416185     1.007825032230
         H            1.019940862077     2.675859943687    -0.417044583815     1.007825032230
         H            0.761195862077     2.257480943687     1.274433416185     1.007825032230
         H            2.393179862077     2.661682943687     0.714443416185     1.007825032230
         H            3.362902862077    -2.090050056313    -0.408822583815     1.007825032230
         H           -2.823732137923     2.078673943687    -0.772281583815     1.007825032230
         H           -3.109817337923    -1.863704356313     0.721500116185     1.007825032230
         H           -4.315927137923     0.173007943687    -0.023762583815     1.007825032230

  Basis Set: AUG-CC-PVTZ
    Blend: AUG-CC-PVTZ
  Basis Set: (AUG-CC-PVTZ AUX)
    Blend: AUG-CC-PVTZ-JKFIT
	 Reference Energy          =    -525.5378440247620802 [Eh]
	 Singles Energy            =      -0.0000000000000000 [Eh]
	 Same-Spin Energy          =      -0.5773874993987611 [Eh]
	 Opposite-Spin Energy      =      -1.7380965013124714 [Eh]
	 Correlation Energy        =      -2.3154840007112325 [Eh]
	 Total Energy              =    -527.8533280254732745 [Eh]

	 ================> DF-SCS-MP2 Energies <==================
	-----------------------------------------------------------
	 SCS Same-Spin Scale       =       0.3333333333333333 [-]
	 SCS Opposite-Spin Scale   =       1.2000000000000000 [-]
	 SCS Same-Spin Energy      =      -0.1924624997995870 [Eh]
	 SCS Opposite-Spin Energy  =      -2.0857158015749655 [Eh]
	 SCS Correlation Energy    =      -2.2781783013745525 [Eh]
	 SCS Total Energy          =    -527.8160223261365900 [Eh]
	-----------------------------------------------------------

  Dipole Moment: [D]
     X:    -2.6074      Y:     2.5499      Z:     0.4422     Total:     3.6738

*** Psi4 exiting successfully. Buy a developer a beer!
