                               Psi4 1.3.2 release

  ==> Input File <==

--------------------------------------------------------------------------
#psi4
#
memory 32 gb

molecule  {
0 1
  N        0.8160970    -0.2990240    -0.0443680
  N        1.3585440    -1.5263750    -0.2734470
  N       -1.0817850     0.9875590    -0.4601130
  N       -1.2686320    -1.2431920     0.4227390
  C        1.7597130     0.6951090     0.1272320
  C        2.9786120     0.0532150     0.0016160
  C       -0.4734682    -0.2518059     0.0024269
  C        1.4539390     2.1247050     0.4316710
  C        2.6793880    -1.2992810    -0.2463060
  C       -2.4210880     1.0928180    -0.4382200
  C       -2.6039190    -1.1175230     0.3972460
  C       -3.2414650     0.0469210    -0.0276130
  H        3.9528590     0.5149220     0.0929350
  H        1.0131890     2.6387050    -0.4244530
  H        0.7544440     2.2203260     1.2670250
  H        2.3864280     2.6245280     0.7070350
  H        3.3561510    -2.1272050    -0.4162310
  H       -2.8304840     2.0415190    -0.7796900
  H       -3.1684390    -1.9801170     0.7461500
  H       -4.3226790     0.1358530    -0.0311710
units angstrom
no_reorient  #important for SAPT in psi4, default
symmetry c1  #important for SAPT in psi4, default
}

set PROPERTIES_ORIGIN ["COM"]
properties('MP2/aug-cc-pvtz', properties = ['dipole'])
--------------------------------------------------------------------------

    Molecular point group: c1
  Charge       = 0
  Multiplicity = 1
  Basis Set: AUG-CC-PVTZ
    Blend: AUG-CC-PVTZ
  Basis Set: (AUG-CC-PVTZ AUX)
    Blend: AUG-CC-PVTZ-JKFIT

    Orbital Energies [Eh]
    ---------------------

    Doubly Occupied:

       1A    -15.652740     2A    -15.592300     3A    -15.573984
       4A    -15.566432     5A    -11.368055     6A    -11.301784
       7A    -11.300560     8A    -11.299411     9A    -11.269145
      10A    -11.240627    11A    -11.239826    12A    -11.231004
      13A     -1.414693    14A     -1.287403    15A     -1.177952
      16A     -1.155244    17A     -1.096541    18A     -1.041183
      19A     -0.967768    20A     -0.907498    21A     -0.890471
      22A     -0.812840    23A     -0.805933    24A     -0.713341
      25A     -0.700990    26A     -0.682907    27A     -0.649750
      28A     -0.635343    29A     -0.607402    30A     -0.596155
      31A     -0.583794    32A     -0.573228    33A     -0.571065
      34A     -0.546803    35A     -0.544351    36A     -0.482018
      37A     -0.463833    38A     -0.422105    39A     -0.412057
      40A     -0.392305    41A     -0.344844    42A     -0.328456

  @DF-RHF Final Energy:  -525.51560639976014

   => Energetics <=

    Nuclear Repulsion Energy =            658.5536034058633277
    One-Electron Energy =               -2019.2501410897871210
    Two-Electron Energy =                 835.1809312841637620
    Total Energy =                       -525.5156063997601450
  Basis Set: (AUG-CC-PVTZ AUX)
    Blend: AUG-CC-PVTZ-RI
    Molecular point group: c1

    Geometry (in Angstrom), charge = 0, multiplicity = 1:

       Center              X                  Y                   Z               Mass
    ------------   -----------------  -----------------  -----------------  -----------------
         N            0.814413173855    -0.255950847299    -0.039205332309    14.003074004430
         N            1.356860173855    -1.483301847299    -0.268284332309    14.003074004430
         N           -1.083468826145     1.030632152701    -0.454950332309    14.003074004430
         N           -1.270315826145    -1.200118847299     0.427901667691    14.003074004430
         C            1.758029173855     0.738182152701     0.132394667691    12.000000000000
         C            2.976928173855     0.096288152701     0.006778667691    12.000000000000
         C           -0.475152026145    -0.208732747299     0.007589567691    12.000000000000
         C            1.452255173855     2.167778152701     0.436833667691    12.000000000000
         C            2.677704173855    -1.256207847299    -0.241143332309    12.000000000000
         C           -2.422771826145     1.135891152701    -0.433057332309    12.000000000000
         C           -2.605602826145    -1.074449847299     0.402408667691    12.000000000000
         C           -3.243148826145     0.089994152701    -0.022450332309    12.000000000000
         H            3.951175173855     0.557995152701     0.098097667691     1.007825032230
         H            1.011505173855     2.681778152701    -0.419290332309     1.007825032230
         H            0.752760173855     2.263399152701     1.272187667691     1.007825032230
         H            2.384744173855     2.667601152701     0.712197667691     1.007825032230
         H            3.354467173855    -2.084131847299    -0.411068332309     1.007825032230
         H           -2.832167826145     2.084592152701    -0.774527332309     1.007825032230
         H           -3.170122826145    -1.937043847299     0.751312667691     1.007825032230
         H           -4.324362826145     0.178926152701    -0.026008332309     1.007825032230

  Basis Set: AUG-CC-PVTZ
    Blend: AUG-CC-PVTZ
  Basis Set: (AUG-CC-PVTZ AUX)
    Blend: AUG-CC-PVTZ-JKFIT
	 Reference Energy          =    -525.5156063997601450 [Eh]
	 Singles Energy            =      -0.0000000000000000 [Eh]
	 Same-Spin Energy          =      -0.5786476331946667 [Eh]
	 Opposite-Spin Energy      =      -1.7414452612794729 [Eh]
	 Correlation Energy        =      -2.3200928944741395 [Eh]
	 Total Energy              =    -527.8356992942342458 [Eh]

	 ================> DF-SCS-MP2 Energies <==================
	-----------------------------------------------------------
	 SCS Same-Spin Scale       =       0.3333333333333333 [-]
	 SCS Opposite-Spin Scale   =       1.2000000000000000 [-]
	 SCS Same-Spin Energy      =      -0.1928825443982222 [Eh]
	 SCS Opposite-Spin Energy  =      -2.0897343135353674 [Eh]
	 SCS Correlation Energy    =      -2.2826168579335895 [Eh]
	 SCS Total Energy          =    -527.7982232576937349 [Eh]
	-----------------------------------------------------------

  Dipole Moment: [D]
     X:    -1.2261      Y:     2.4232      Z:     0.4671     Total:     2.7556

*** Psi4 exiting successfully. Buy a developer a beer!
