                               Psi4 1.3.2 release

  ==> Input File <==

--------------------------------------------------------------------------
#psi4
#
memory 32 gb

molecule  {
0 1
  N        0.8160970    -0.2990240    -0.0443680
  N        1.3513840    -1.4809292    -0.2649202
  N       -1.0817850     0.9875590    -0.4601130
  N       -1.2686320    -1.2431920     0.4227390
  C        1.7597130     0.6951090     0.1272320
  C        2.9786120     0.0532150     0.0016160
  C       -0.5903530    -0.1795160    -0.0248380
  C        1.4539390     2.1247050     0.4316710
  C        2.6793880    -1.2992810    -0.2463060
  C       -2.4210880     1.0928180    -0.4382200
  C       -2.6039190    -1.1175230     0.3972460
  C       -3.2414650     0.0469210    -0.0276130
  H        3.9528590     0.5149220     0.0929350
  H        1.0131890     2.6387050    -0.4244530
  H        0.7544440     2.2203260     1.2670250
  H        2.3864280     2.6245280     0.7070350
  H        3.3561510    -2.1272050    -0.4162310
  H       -2.8304840     2.0415190    -0.7796900
  H       -3.1684390    -1.9801170     0.7461500
  H       -4.3226790     0.1358530    -0.0311710
units angstrom
no_reorient  #important for SAPT in psi4, default
symmetry c1  #important for SAPT in psi4, default
}

set PROPERTIES_ORIGIN ["COM"]
properties('MP2/aug-cc-pvtz', properties = ['dipole'])
--------------------------------------------------------------------------

    Molecular point group: c1
  Charge       = 0
  Multiplicity = 1
  Basis Set: AUG-CC-PVTZ
    Blend: AUG-CC-PVTZ
  Basis Set: (AUG-CC-PVTZ AUX)
    Blend: AUG-CC-PVTZ-JKFIT

    Orbital Energies [Eh]
    ---------------------

    Doubly Occupied:

       1A    -15.645221     2A    -15.584016     3A    -15.580362
       4A    -15.576948     5A    -11.368757     6A    -11.312573
       7A    -11.310606     8A    -11.281022     9A    -11.254111
      10A    -11.250867    11A    -11.232435    12A    -11.216685
      13A     -1.401728    14A     -1.316932    15A     -1.207406
      16A     -1.129346    17A     -1.083722    18A     -1.047698
      19A     -0.955823    20A     -0.910279    21A     -0.899474
      22A     -0.804434    23A     -0.798610    24A     -0.713668
      25A     -0.708646    26A     -0.682710    27A     -0.643130
      28A     -0.635323    29A     -0.608030    30A     -0.594006
      31A     -0.587392    32A     -0.576555    33A     -0.563157
      34A     -0.555278    35A     -0.534264    36A     -0.492816
      37A     -0.449820    38A     -0.431423    39A     -0.420412
      40A     -0.407188    41A     -0.339287    42A     -0.328500

  @DF-RHF Final Energy:  -525.54373704586374

   => Energetics <=

    Nuclear Repulsion Energy =            659.6621997149766230
    One-Electron Energy =               -2021.5305487474788606
    Two-Electron Energy =                 836.3246119866385015
    Total Energy =                       -525.5437370458637361
  Basis Set: (AUG-CC-PVTZ AUX)
    Blend: AUG-CC-PVTZ-RI
    Molecular point group: c1

    Geometry (in Angstrom), charge = 0, multiplicity = 1:

       Center              X                  Y                   Z               Mass
    ------------   -----------------  -----------------  -----------------  -----------------
         N            0.823801776596    -0.265345572740    -0.037907331227    14.003074004430
         N            1.359088776596    -1.447250772740    -0.258459531227    14.003074004430
         N           -1.074080223404     1.021237427260    -0.453652331227    14.003074004430
         N           -1.260927223404    -1.209513572740     0.429199668773    14.003074004430
         C            1.767417776596     0.728787427260     0.133692668773    12.000000000000
         C            2.986316776596     0.086893427260     0.008076668773    12.000000000000
         C           -0.582648223404    -0.145837572740    -0.018377331227    12.000000000000
         C            1.461643776596     2.158383427260     0.438131668773    12.000000000000
         C            2.687092776596    -1.265602572740    -0.239845331227    12.000000000000
         C           -2.413383223404     1.126496427260    -0.431759331227    12.000000000000
         C           -2.596214223404    -1.083844572740     0.403706668773    12.000000000000
         C           -3.233760223404     0.080599427260    -0.021152331227    12.000000000000
         H            3.960563776596     0.548600427260     0.099395668773     1.007825032230
         H            1.020893776596     2.672383427260    -0.417992331227     1.007825032230
         H            0.762148776596     2.254004427260     1.273485668773     1.007825032230
         H            2.394132776596     2.658206427260     0.713495668773     1.007825032230
         H            3.363855776596    -2.093526572740    -0.409770331227     1.007825032230
         H           -2.822779223404     2.075197427260    -0.773229331227     1.007825032230
         H           -3.160734223404    -1.946438572740     0.752610668773     1.007825032230
         H           -4.314974223404     0.169531427260    -0.024710331227     1.007825032230

  Basis Set: AUG-CC-PVTZ
    Blend: AUG-CC-PVTZ
  Basis Set: (AUG-CC-PVTZ AUX)
    Blend: AUG-CC-PVTZ-JKFIT
	 Reference Energy          =    -525.5437370458637361 [Eh]
	 Singles Energy            =      -0.0000000000000000 [Eh]
	 Same-Spin Energy          =      -0.5777147186555320 [Eh]
	 Opposite-Spin Energy      =      -1.7376871929476032 [Eh]
	 Correlation Energy        =      -2.3154019116031352 [Eh]
	 Total Energy              =    -527.8591389574668256 [Eh]

	 ================> DF-SCS-MP2 Energies <==================
	-----------------------------------------------------------
	 SCS Same-Spin Scale       =       0.3333333333333333 [-]
	 SCS Opposite-Spin Scale   =       1.2000000000000000 [-]
	 SCS Same-Spin Energy      =      -0.1925715728851773 [Eh]
	 SCS Opposite-Spin Energy  =      -2.0852246315371237 [Eh]
	 SCS Correlation Energy    =      -2.2777962044223008 [Eh]
	 SCS Total Energy          =    -527.8215332502860520 [Eh]
	-----------------------------------------------------------

  Dipole Moment: [D]
     X:    -2.6937      Y:     2.4904      Z:     0.4259     Total:     3.6932

*** Psi4 exiting successfully. Buy a developer a beer!
