                               Psi4 1.3.2 release

  ==> Input File <==

--------------------------------------------------------------------------
#psi4
#
memory 32 gb

molecule  {
0 1
  N        0.8160970    -0.2990240    -0.0443680
  N        1.3585440    -1.5263750    -0.2734470
  N       -1.0817850     0.9875590    -0.4601130
  N       -1.2686320    -1.2431920     0.4227390
  C        1.7597130     0.6951090     0.1272320
  C        2.9786120     0.0532150     0.0016160
  C       -0.5903530    -0.1795160    -0.0248380
  C        1.4539390     2.1247050     0.4316710
  C        2.6793880    -1.2992810    -0.2463060
  C       -2.4210880     1.0928180    -0.4382200
  C       -2.6039190    -1.1175230     0.3972460
  C       -3.1499871    -0.1201586     0.0333477
  H        3.9528590     0.5149220     0.0929350
  H        1.0131890     2.6387050    -0.4244530
  H        0.7544440     2.2203260     1.2670250
  H        2.3864280     2.6245280     0.7070350
  H        3.3561510    -2.1272050    -0.4162310
  H       -2.8304840     2.0415190    -0.7796900
  H       -3.1684390    -1.9801170     0.7461500
  H       -4.3226790     0.1358530    -0.0311710
units angstrom
no_reorient  #important for SAPT in psi4, default
symmetry c1  #important for SAPT in psi4, default
}

set PROPERTIES_ORIGIN ["COM"]
properties('MP2/aug-cc-pvtz', properties = ['dipole'])
--------------------------------------------------------------------------

    Molecular point group: c1
  Charge       = 0
  Multiplicity = 1
  Basis Set: AUG-CC-PVTZ
    Blend: AUG-CC-PVTZ
  Basis Set: (AUG-CC-PVTZ AUX)
    Blend: AUG-CC-PVTZ-JKFIT

    Orbital Energies [Eh]
    ---------------------

    Doubly Occupied:

       1A    -15.640935     2A    -15.590395     3A    -15.580378
       4A    -15.569297     5A    -11.364039     6A    -11.332393
       7A    -11.286040     8A    -11.268589     9A    -11.253323
      10A    -11.248043    11A    -11.235625    12A    -11.216610
      13A     -1.385676    14A     -1.317347    15A     -1.210667
      16A     -1.134101    17A     -1.088779    18A     -1.051417
      19A     -0.959299    20A     -0.925590    21A     -0.881547
      22A     -0.801450    23A     -0.793407    24A     -0.719946
      25A     -0.708203    26A     -0.675756    27A     -0.643759
      28A     -0.632835    29A     -0.604577    30A     -0.591137
      31A     -0.580964    32A     -0.576258    33A     -0.562171
      34A     -0.554948    35A     -0.534369    36A     -0.470800
      37A     -0.453249    38A     -0.444968    39A     -0.420524
      40A     -0.407816    41A     -0.339506    42A     -0.331552

  @DF-RHF Final Energy:  -525.47902021724985

   => Energetics <=

    Nuclear Repulsion Energy =            660.8408618761510525
    One-Electron Energy =               -2023.8631973009639751
    Two-Electron Energy =                 837.5433152075629550
    Total Energy =                       -525.4790202172498539
  Basis Set: (AUG-CC-PVTZ AUX)
    Blend: AUG-CC-PVTZ-RI
    Molecular point group: c1

    Geometry (in Angstrom), charge = 0, multiplicity = 1:

       Center              X                  Y                   Z               Mass
    ------------   -----------------  -----------------  -----------------  -----------------
         N            0.816317799796    -0.248844946083    -0.041731334883    14.003074004430
         N            1.358764799796    -1.476195946083    -0.270810334883    14.003074004430
         N           -1.081564200204     1.037738053917    -0.457476334883    14.003074004430
         N           -1.268411200204    -1.193012946083     0.425375665117    14.003074004430
         C            1.759933799796     0.745288053917     0.129868665117    12.000000000000
         C            2.978832799796     0.103394053917     0.004252665117    12.000000000000
         C           -0.590132200204    -0.129336946083    -0.022201334883    12.000000000000
         C            1.454159799796     2.174884053917     0.434307665117    12.000000000000
         C            2.679608799796    -1.249101946083    -0.243669334883    12.000000000000
         C           -2.420867200204     1.142997053917    -0.435583334883    12.000000000000
         C           -2.603698200204    -1.067343946083     0.399882665117    12.000000000000
         C           -3.149766300204    -0.069979546083     0.035984365117    12.000000000000
         H            3.953079799796     0.565101053917     0.095571665117     1.007825032230
         H            1.013409799796     2.688884053917    -0.421816334883     1.007825032230
         H            0.754664799796     2.270505053917     1.269661665117     1.007825032230
         H            2.386648799796     2.674707053917     0.709671665117     1.007825032230
         H            3.356371799796    -2.077025946083    -0.413594334883     1.007825032230
         H           -2.830263200204     2.091698053917    -0.777053334883     1.007825032230
         H           -3.168218200204    -1.929937946083     0.748786665117     1.007825032230
         H           -4.322458200204     0.186032053917    -0.028534334883     1.007825032230

  Basis Set: AUG-CC-PVTZ
    Blend: AUG-CC-PVTZ
  Basis Set: (AUG-CC-PVTZ AUX)
    Blend: AUG-CC-PVTZ-JKFIT
	 Reference Energy          =    -525.4790202172498539 [Eh]
	 Singles Energy            =      -0.0000000000000000 [Eh]
	 Same-Spin Energy          =      -0.5779478642535472 [Eh]
	 Opposite-Spin Energy      =      -1.7407688694564243 [Eh]
	 Correlation Energy        =      -2.3187167337099712 [Eh]
	 Total Energy              =    -527.7977369509598020 [Eh]

	 ================> DF-SCS-MP2 Energies <==================
	-----------------------------------------------------------
	 SCS Same-Spin Scale       =       0.3333333333333333 [-]
	 SCS Opposite-Spin Scale   =       1.2000000000000000 [-]
	 SCS Same-Spin Energy      =      -0.1926492880845157 [Eh]
	 SCS Opposite-Spin Energy  =      -2.0889226433477091 [Eh]
	 SCS Correlation Energy    =      -2.2815719314322247 [Eh]
	 SCS Total Energy          =    -527.7605921486821217 [Eh]
	-----------------------------------------------------------

  Dipole Moment: [D]
     X:    -2.4887      Y:     2.8450      Z:     0.3234     Total:     3.7938

*** Psi4 exiting successfully. Buy a developer a beer!
