                               Psi4 1.3.2 release

  ==> Input File <==

--------------------------------------------------------------------------
#psi4
#
memory 32 gb

molecule  {
0 1
  N        0.8192622    -0.1615787    -0.0985152
  N        1.3585440    -1.5263750    -0.2734470
  N       -1.0817850     0.9875590    -0.4601130
  N       -1.2686320    -1.2431920     0.4227390
  C        1.7597130     0.6951090     0.1272320
  C        2.9786120     0.0532150     0.0016160
  C       -0.5903530    -0.1795160    -0.0248380
  C        1.4539390     2.1247050     0.4316710
  C        2.6793880    -1.2992810    -0.2463060
  C       -2.4210880     1.0928180    -0.4382200
  C       -2.6039190    -1.1175230     0.3972460
  C       -3.2414650     0.0469210    -0.0276130
  H        3.9528590     0.5149220     0.0929350
  H        1.0131890     2.6387050    -0.4244530
  H        0.7544440     2.2203260     1.2670250
  H        2.3864280     2.6245280     0.7070350
  H        3.3561510    -2.1272050    -0.4162310
  H       -2.8304840     2.0415190    -0.7796900
  H       -3.1684390    -1.9801170     0.7461500
  H       -4.3226790     0.1358530    -0.0311710
units angstrom
no_reorient  #important for SAPT in psi4, default
symmetry c1  #important for SAPT in psi4, default
}

set PROPERTIES_ORIGIN ["COM"]
properties('MP2/aug-cc-pvtz', properties = ['dipole'])
--------------------------------------------------------------------------

    Molecular point group: c1
  Charge       = 0
  Multiplicity = 1
  Basis Set: AUG-CC-PVTZ
    Blend: AUG-CC-PVTZ
  Basis Set: (AUG-CC-PVTZ AUX)
    Blend: AUG-CC-PVTZ-JKFIT

    Orbital Energies [Eh]
    ---------------------

    Doubly Occupied:

       1A    -15.635616     2A    -15.581820     3A    -15.579629
       4A    -15.579360     5A    -11.370120     6A    -11.310865
       7A    -11.309820     8A    -11.287509     9A    -11.261588
      10A    -11.252986    11A    -11.233442    12A    -11.210943
      13A     -1.374806    14A     -1.307348    15A     -1.206829
      16A     -1.135437    17A     -1.089697    18A     -1.039251
      19A     -0.958506    20A     -0.909833    21A     -0.901320
      22A     -0.800069    23A     -0.795022    24A     -0.714646
      25A     -0.703578    26A     -0.680860    27A     -0.640536
      28A     -0.631177    29A     -0.607553    30A     -0.595707
      31A     -0.583676    32A     -0.573906    33A     -0.549551
      34A     -0.545348    35A     -0.536602    36A     -0.494068
      37A     -0.449770    38A     -0.430326    39A     -0.419674
      40A     -0.411956    41A     -0.355293    42A     -0.319926

  @DF-RHF Final Energy:  -525.52351284868382

   => Energetics <=

    Nuclear Repulsion Energy =            658.3289206855580460
    One-Electron Energy =               -2018.9529203445551957
    Two-Electron Energy =                 835.1004868103132139
    Total Energy =                       -525.5235128486838221
  Basis Set: (AUG-CC-PVTZ AUX)
    Blend: AUG-CC-PVTZ-RI
    Molecular point group: c1

    Geometry (in Angstrom), charge = 0, multiplicity = 1:

       Center              X                  Y                   Z               Mass
    ------------   -----------------  -----------------  -----------------  -----------------
         N            0.826063746026    -0.135948229271    -0.086571918522    14.003074004430
         N            1.365345546026    -1.500744529271    -0.261503718522    14.003074004430
         N           -1.074983453974     1.013189470729    -0.448169718522    14.003074004430
         N           -1.261830453974    -1.217561529271     0.434682281478    14.003074004430
         C            1.766514546026     0.720739470729     0.139175281478    12.000000000000
         C            2.985413546026     0.078845470729     0.013559281478    12.000000000000
         C           -0.583551453974    -0.153885529271    -0.012894718522    12.000000000000
         C            1.460740546026     2.150335470729     0.443614281478    12.000000000000
         C            2.686189546026    -1.273650529271    -0.234362718522    12.000000000000
         C           -2.414286453974     1.118448470729    -0.426276718522    12.000000000000
         C           -2.597117453974    -1.091892529271     0.409189281478    12.000000000000
         C           -3.234663453974     0.072551470729    -0.015669718522    12.000000000000
         H            3.959660546026     0.540552470729     0.104878281478     1.007825032230
         H            1.019990546026     2.664335470729    -0.412509718522     1.007825032230
         H            0.761245546026     2.245956470729     1.278968281478     1.007825032230
         H            2.393229546026     2.650158470729     0.718978281478     1.007825032230
         H            3.362952546026    -2.101574529271    -0.404287718522     1.007825032230
         H           -2.823682453974     2.067149470729    -0.767746718522     1.007825032230
         H           -3.161637453974    -1.954486529271     0.758093281478     1.007825032230
         H           -4.315877453974     0.161483470729    -0.019227718522     1.007825032230

  Basis Set: AUG-CC-PVTZ
    Blend: AUG-CC-PVTZ
  Basis Set: (AUG-CC-PVTZ AUX)
    Blend: AUG-CC-PVTZ-JKFIT
	 Reference Energy          =    -525.5235128486838221 [Eh]
	 Singles Energy            =      -0.0000000000000000 [Eh]
	 Same-Spin Energy          =      -0.5776033646820080 [Eh]
	 Opposite-Spin Energy      =      -1.7403471571711806 [Eh]
	 Correlation Energy        =      -2.3179505218531888 [Eh]
	 Total Energy              =    -527.8414633705369852 [Eh]

	 ================> DF-SCS-MP2 Energies <==================
	-----------------------------------------------------------
	 SCS Same-Spin Scale       =       0.3333333333333333 [-]
	 SCS Opposite-Spin Scale   =       1.2000000000000000 [-]
	 SCS Same-Spin Energy      =      -0.1925344548940027 [Eh]
	 SCS Opposite-Spin Energy  =      -2.0884165886054165 [Eh]
	 SCS Correlation Energy    =      -2.2809510434994191 [Eh]
	 SCS Total Energy          =    -527.8044638921832075 [Eh]
	-----------------------------------------------------------

  Dipole Moment: [D]
     X:    -2.5957      Y:     2.4551      Z:     0.4560     Total:     3.6018

*** Psi4 exiting successfully. Buy a developer a beer!
