                               Psi4 1.4a3.dev225

  ==> Input File <==

--------------------------------------------------------------------------
#psi4
#
memory 32 gb

molecule  {
0 1
  N        0.8160970    -0.2990240    -0.0443680
  N        1.3585440    -1.5263750    -0.2734470
  N       -1.0817850     0.9875590    -0.4601130
  N       -1.2686320    -1.2431920     0.4227390
  C        1.7938683     0.7310928     0.1334433
  C        2.9786120     0.0532150     0.0016160
  C       -0.5903530    -0.1795160    -0.0248380
  C        1.4539390     2.1247050     0.4316710
  C        2.6793880    -1.2992810    -0.2463060
  C       -2.4210880     1.0928180    -0.4382200
  C       -2.6039190    -1.1175230     0.3972460
  C       -3.2414650     0.0469210    -0.0276130
  H        3.9528590     0.5149220     0.0929350
  H        1.0131890     2.6387050    -0.4244530
  H        0.7544440     2.2203260     1.2670250
  H        2.3864280     2.6245280     0.7070350
  H        3.3561510    -2.1272050    -0.4162310
  H       -2.8304840     2.0415190    -0.7796900
  H       -3.1684390    -1.9801170     0.7461500
  H       -4.3226790     0.1358530    -0.0311710
units angstrom
no_reorient  #important for SAPT in psi4, default
symmetry c1  #important for SAPT in psi4, default
}

set PROPERTIES_ORIGIN ["COM"]
properties('MP2/aug-cc-pvtz', properties = ['dipole'])
--------------------------------------------------------------------------

    Molecular point group: c1
  Charge       = 0
  Multiplicity = 1
  Basis Set: AUG-CC-PVTZ
    Blend: AUG-CC-PVTZ
  Basis Set: (AUG-CC-PVTZ AUX)
    Blend: AUG-CC-PVTZ-JKFIT

    Orbital Energies [Eh]
    ---------------------

    Doubly Occupied:

       1A    -15.638712     2A    -15.586483     3A    -15.580133
       4A    -15.576369     5A    -11.365004     6A    -11.309964
       7A    -11.307922     8A    -11.288749     9A    -11.255264
      10A    -11.250677    11A    -11.234054    12A    -11.220267
      13A     -1.378870    14A     -1.309611    15A     -1.203986
      16A     -1.126094    17A     -1.087109    18A     -1.043621
      19A     -0.963455    20A     -0.907332    21A     -0.891824
      22A     -0.799330    23A     -0.788689    24A     -0.712973
      25A     -0.707325    26A     -0.683001    27A     -0.634927
      28A     -0.631932    29A     -0.606445    30A     -0.588721
      31A     -0.586956    32A     -0.575652    33A     -0.562289
      34A     -0.551175    35A     -0.544859    36A     -0.489205
      37A     -0.455575    38A     -0.429074    39A     -0.418699
      40A     -0.407072    41A     -0.338321    42A     -0.331235

  @DF-RHF Final Energy:  -525.53897609417550

   => Energetics <=

    Nuclear Repulsion Energy =            657.4939892935391299
    One-Electron Energy =               -2017.3280153625212279
    Two-Electron Energy =                 834.2950499748064885
    Total Energy =                       -525.5389760941754957
  Basis Set: (AUG-CC-PVTZ AUX)
    Blend: AUG-CC-PVTZ-RI
    Molecular point group: c1

    Geometry (in Angstrom), charge = 0, multiplicity = 1:

       Center              X                  Y                   Z               Mass
    ------------   -----------------  -----------------  -----------------  -----------------
         N            0.820614983277    -0.264067575344    -0.037627051105    14.003074004430
         N            1.363061983277    -1.491418575344    -0.266706051105    14.003074004430
         N           -1.077267016723     1.022515424656    -0.453372051105    14.003074004430
         N           -1.264114016723    -1.208235575344     0.429479948895    14.003074004430
         C            1.798386283277     0.766049224656     0.140184248895    12.000000000000
         C            2.983129983277     0.088171424656     0.008356948895    12.000000000000
         C           -0.585835016723    -0.144559575344    -0.018097051105    12.000000000000
         C            1.458456983277     2.159661424656     0.438411948895    12.000000000000
         C            2.683905983277    -1.264324575344    -0.239565051105    12.000000000000
         C           -2.416570016723     1.127774424656    -0.431479051105    12.000000000000
         C           -2.599401016723    -1.082566575344     0.403986948895    12.000000000000
         C           -3.236947016723     0.081877424656    -0.020872051105    12.000000000000
         H            3.957376983277     0.549878424656     0.099675948895     1.007825032230
         H            1.017706983277     2.673661424656    -0.417712051105     1.007825032230
         H            0.758961983277     2.255282424656     1.273765948895     1.007825032230
         H            2.390945983277     2.659484424656     0.713775948895     1.007825032230
         H            3.360668983277    -2.092248575344    -0.409490051105     1.007825032230
         H           -2.825966016723     2.076475424656    -0.772949051105     1.007825032230
         H           -3.163921016723    -1.945160575344     0.752890948895     1.007825032230
         H           -4.318161016723     0.170809424656    -0.024430051105     1.007825032230

  Basis Set: AUG-CC-PVTZ
    Blend: AUG-CC-PVTZ
  Basis Set: (AUG-CC-PVTZ AUX)
    Blend: AUG-CC-PVTZ-JKFIT
	 Reference Energy          =    -525.5389760941754957 [Eh]
	 Singles Energy            =      -0.0000000000000000 [Eh]
	 Same-Spin Energy          =      -0.5780296923657657 [Eh]
	 Opposite-Spin Energy      =      -1.7398166858274615 [Eh]
	 Correlation Energy        =      -2.3178463781932273 [Eh]
	 Total Energy              =    -527.8568224723687763 [Eh]

	 ================> DF-SCS-MP2 Energies <==================
	-----------------------------------------------------------
	 SCS Same-Spin Scale       =       0.3333333333333333 [-]
	 SCS Opposite-Spin Scale   =       1.2000000000000000 [-]
	 SCS Same-Spin Energy      =      -0.1926765641219219 [Eh]
	 SCS Opposite-Spin Energy  =      -2.0877800229929537 [Eh]
	 SCS Correlation Energy    =      -2.2804565871148754 [Eh]
	 SCS Total Energy          =    -527.8194326812903228 [Eh]
	-----------------------------------------------------------

  Dipole Moment: [D]
     X:    -2.3949      Y:     2.5898      Z:     0.4484     Total:     3.5558

*** Psi4 exiting successfully. Buy a developer a beer!
