                               Psi4 1.4a3.dev225

  ==> Input File <==

--------------------------------------------------------------------------
#psi4
#
memory 32 gb

molecule  {
0 1
  N        0.8160970    -0.2990240    -0.0443680
  N        1.3585440    -1.5263750    -0.2734470
  N       -1.0817850     0.9875590    -0.4601130
  N       -1.2686320    -1.2431920     0.4227390
  C        1.7597130     0.6951090     0.1272320
  C        2.9786120     0.0532150     0.0016160
  C       -0.5903530    -0.1795160    -0.0248380
  C        1.4539390     2.1247050     0.4316710
  C        2.6793880    -1.2992810    -0.2463060
  C       -2.4210880     1.0928180    -0.4382200
  C       -2.6039190    -1.1175230     0.3972460
  C       -3.2709489     0.0093320    -0.0128560
  H        3.9528590     0.5149220     0.0929350
  H        1.0131890     2.6387050    -0.4244530
  H        0.7544440     2.2203260     1.2670250
  H        2.3864280     2.6245280     0.7070350
  H        3.3561510    -2.1272050    -0.4162310
  H       -2.8304840     2.0415190    -0.7796900
  H       -3.1684390    -1.9801170     0.7461500
  H       -4.3226790     0.1358530    -0.0311710
units angstrom
no_reorient  #important for SAPT in psi4, default
symmetry c1  #important for SAPT in psi4, default
}

set PROPERTIES_ORIGIN ["COM"]
properties('MP2/aug-cc-pvtz', properties = ['dipole'])
--------------------------------------------------------------------------

    Molecular point group: c1
  Charge       = 0
  Multiplicity = 1
  Basis Set: AUG-CC-PVTZ
    Blend: AUG-CC-PVTZ
  Basis Set: (AUG-CC-PVTZ AUX)
    Blend: AUG-CC-PVTZ-JKFIT

    Orbital Energies [Eh]
    ---------------------

    Doubly Occupied:

       1A    -15.642492     2A    -15.584818     3A    -15.581675
       4A    -15.576882     5A    -11.367987     6A    -11.319602
       7A    -11.304244     8A    -11.287088     9A    -11.254788
      10A    -11.253302    11A    -11.235207    12A    -11.217634
      13A     -1.386512    14A     -1.311737    15A     -1.205820
      16A     -1.128399    17A     -1.084471    18A     -1.044304
      19A     -0.959266    20A     -0.908680    21A     -0.895893
      22A     -0.800512    23A     -0.794654    24A     -0.713886
      25A     -0.705397    26A     -0.685410    27A     -0.639602
      28A     -0.637783    29A     -0.604826    30A     -0.589543
      31A     -0.583615    32A     -0.574663    33A     -0.564524
      34A     -0.552576    35A     -0.536357    36A     -0.493700
      37A     -0.455014    38A     -0.431271    39A     -0.419391
      40A     -0.405762    41A     -0.337621    42A     -0.332629

  @DF-RHF Final Energy:  -525.54041575787551

   => Energetics <=

    Nuclear Repulsion Energy =            657.6899667633871331
    One-Electron Energy =               -2017.6416909457529982
    Two-Electron Energy =                 834.4113084244904712
    Total Energy =                       -525.5404157578755076
  Basis Set: (AUG-CC-PVTZ AUX)
    Blend: AUG-CC-PVTZ-RI
    Molecular point group: c1

    Geometry (in Angstrom), charge = 0, multiplicity = 1:

       Center              X                  Y                   Z               Mass
    ------------   -----------------  -----------------  -----------------  -----------------
         N            0.825385690101    -0.258552197102    -0.038267678726    14.003074004430
         N            1.367832690101    -1.485903197102    -0.267346678726    14.003074004430
         N           -1.072496309899     1.028030802898    -0.454012678726    14.003074004430
         N           -1.259343309899    -1.202720197102     0.428839321274    14.003074004430
         C            1.769001690101     0.735580802898     0.133332321274    12.000000000000
         C            2.987900690101     0.093686802898     0.007716321274    12.000000000000
         C           -0.581064309899    -0.139044197102    -0.018737678726    12.000000000000
         C            1.463227690101     2.165176802898     0.437771321274    12.000000000000
         C            2.688676690101    -1.258809197102    -0.240205678726    12.000000000000
         C           -2.411799309899     1.133289802898    -0.432119678726    12.000000000000
         C           -2.594630309899    -1.077051197102     0.403346321274    12.000000000000
         C           -3.261660209899     0.049803802898    -0.006755678726    12.000000000000
         H            3.962147690101     0.555393802898     0.099035321274     1.007825032230
         H            1.022477690101     2.679176802898    -0.418352678726     1.007825032230
         H            0.763732690101     2.260797802898     1.273125321274     1.007825032230
         H            2.395716690101     2.664999802898     0.713135321274     1.007825032230
         H            3.365439690101    -2.086733197102    -0.410130678726     1.007825032230
         H           -2.821195309899     2.081990802898    -0.773589678726     1.007825032230
         H           -3.159150309899    -1.939645197102     0.752250321274     1.007825032230
         H           -4.313390309899     0.176324802898    -0.025070678726     1.007825032230

  Basis Set: AUG-CC-PVTZ
    Blend: AUG-CC-PVTZ
  Basis Set: (AUG-CC-PVTZ AUX)
    Blend: AUG-CC-PVTZ-JKFIT
	 Reference Energy          =    -525.5404157578755076 [Eh]
	 Singles Energy            =      -0.0000000000000000 [Eh]
	 Same-Spin Energy          =      -0.5774634318495303 [Eh]
	 Opposite-Spin Energy      =      -1.7387965290482754 [Eh]
	 Correlation Energy        =      -2.3162599608978058 [Eh]
	 Total Energy              =    -527.8566757187733174 [Eh]

	 ================> DF-SCS-MP2 Energies <==================
	-----------------------------------------------------------
	 SCS Same-Spin Scale       =       0.3333333333333333 [-]
	 SCS Opposite-Spin Scale   =       1.2000000000000000 [-]
	 SCS Same-Spin Energy      =      -0.1924878106165101 [Eh]
	 SCS Opposite-Spin Energy  =      -2.0865558348579305 [Eh]
	 SCS Correlation Energy    =      -2.2790436454744407 [Eh]
	 SCS Total Energy          =    -527.8194594033499243 [Eh]
	-----------------------------------------------------------

  Dipole Moment: [D]
     X:    -2.5573      Y:     2.6270      Z:     0.4115     Total:     3.6892

*** Psi4 exiting successfully. Buy a developer a beer!
