                               Psi4 1.3.2 release

  ==> Input File <==

--------------------------------------------------------------------------
#psi4
#
memory 32 gb

molecule  {
0 1
  N        0.8160970    -0.2990240    -0.0443680
  N        1.3585440    -1.5263750    -0.2734470
  N       -1.0913632     0.9004949    -0.4265973
  N       -1.2686320    -1.2431920     0.4227390
  C        1.7597130     0.6951090     0.1272320
  C        2.9786120     0.0532150     0.0016160
  C       -0.5903530    -0.1795160    -0.0248380
  C        1.4539390     2.1247050     0.4316710
  C        2.6793880    -1.2992810    -0.2463060
  C       -2.4210880     1.0928180    -0.4382200
  C       -2.6039190    -1.1175230     0.3972460
  C       -3.2414650     0.0469210    -0.0276130
  H        3.9528590     0.5149220     0.0929350
  H        1.0131890     2.6387050    -0.4244530
  H        0.7544440     2.2203260     1.2670250
  H        2.3864280     2.6245280     0.7070350
  H        3.3561510    -2.1272050    -0.4162310
  H       -2.8304840     2.0415190    -0.7796900
  H       -3.1684390    -1.9801170     0.7461500
  H       -4.3226790     0.1358530    -0.0311710
units angstrom
no_reorient  #important for SAPT in psi4, default
symmetry c1  #important for SAPT in psi4, default
}

set PROPERTIES_ORIGIN ["COM"]
properties('MP2/aug-cc-pvtz', properties = ['dipole'])
--------------------------------------------------------------------------

    Molecular point group: c1
  Charge       = 0
  Multiplicity = 1
  Basis Set: AUG-CC-PVTZ
    Blend: AUG-CC-PVTZ
  Basis Set: (AUG-CC-PVTZ AUX)
    Blend: AUG-CC-PVTZ-JKFIT

    Orbital Energies [Eh]
    ---------------------

    Doubly Occupied:

       1A    -15.638377     2A    -15.579707     3A    -15.574837
       4A    -15.569879     5A    -11.354726     6A    -11.313994
       7A    -11.307352     8A    -11.284830     9A    -11.254380
      10A    -11.252250    11A    -11.234814    12A    -11.215535
      13A     -1.388698    14A     -1.324348    15A     -1.206596
      16A     -1.129826    17A     -1.084024    18A     -1.047687
      19A     -0.958024    20A     -0.918935    21A     -0.893639
      22A     -0.803132    23A     -0.793941    24A     -0.723098
      25A     -0.706048    26A     -0.682204    27A     -0.640837
      28A     -0.634087    29A     -0.608140    30A     -0.595704
      31A     -0.587848    32A     -0.578848    33A     -0.562487
      34A     -0.552999    35A     -0.534374    36A     -0.486425
      37A     -0.452831    38A     -0.429442    39A     -0.413251
      40A     -0.407791    41A     -0.339562    42A     -0.330732

  @DF-RHF Final Energy:  -525.54020616564799

   => Energetics <=

    Nuclear Repulsion Energy =            660.5181817514311433
    One-Electron Energy =               -2023.3242938515538754
    Two-Electron Energy =                 837.2659059344748584
    Total Energy =                       -525.5402061656479873
  Basis Set: (AUG-CC-PVTZ AUX)
    Blend: AUG-CC-PVTZ-RI
    Molecular point group: c1

    Geometry (in Angstrom), charge = 0, multiplicity = 1:

       Center              X                  Y                   Z               Mass
    ------------   -----------------  -----------------  -----------------  -----------------
         N            0.824013316533    -0.253753836752    -0.040093316813    14.003074004430
         N            1.366460316533    -1.481104836752    -0.269172316813    14.003074004430
         N           -1.083446883467     0.945765063248    -0.422322616813    14.003074004430
         N           -1.260715683467    -1.197921836752     0.427013683187    14.003074004430
         C            1.767629316533     0.740379163248     0.131506683187    12.000000000000
         C            2.986528316533     0.098485163248     0.005890683187    12.000000000000
         C           -0.582436683467    -0.134245836752    -0.020563316813    12.000000000000
         C            1.461855316533     2.169975163248     0.435945683187    12.000000000000
         C            2.687304316533    -1.254010836752    -0.242031316813    12.000000000000
         C           -2.413171683467     1.138088163248    -0.433945316813    12.000000000000
         C           -2.596002683467    -1.072252836752     0.401520683187    12.000000000000
         C           -3.233548683467     0.092191163248    -0.023338316813    12.000000000000
         H            3.960775316533     0.560192163248     0.097209683187     1.007825032230
         H            1.021105316533     2.683975163248    -0.420178316813     1.007825032230
         H            0.762360316533     2.265596163248     1.271299683187     1.007825032230
         H            2.394344316533     2.669798163248     0.711309683187     1.007825032230
         H            3.364067316533    -2.081934836752    -0.411956316813     1.007825032230
         H           -2.822567683467     2.086789163248    -0.775415316813     1.007825032230
         H           -3.160522683467    -1.934846836752     0.750424683187     1.007825032230
         H           -4.314762683467     0.181123163248    -0.026896316813     1.007825032230

  Basis Set: AUG-CC-PVTZ
    Blend: AUG-CC-PVTZ
  Basis Set: (AUG-CC-PVTZ AUX)
    Blend: AUG-CC-PVTZ-JKFIT
	 Reference Energy          =    -525.5402061656479873 [Eh]
	 Singles Energy            =      -0.0000000000000000 [Eh]
	 Same-Spin Energy          =      -0.5770244333658285 [Eh]
	 Opposite-Spin Energy      =      -1.7366214996159062 [Eh]
	 Correlation Energy        =      -2.3136459329817347 [Eh]
	 Total Energy              =    -527.8538520986297726 [Eh]

	 ================> DF-SCS-MP2 Energies <==================
	-----------------------------------------------------------
	 SCS Same-Spin Scale       =       0.3333333333333333 [-]
	 SCS Opposite-Spin Scale   =       1.2000000000000000 [-]
	 SCS Same-Spin Energy      =      -0.1923414777886095 [Eh]
	 SCS Opposite-Spin Energy  =      -2.0839457995390873 [Eh]
	 SCS Correlation Energy    =      -2.2762872773276968 [Eh]
	 SCS Total Energy          =    -527.8164934429756840 [Eh]
	-----------------------------------------------------------

  Dipole Moment: [D]
     X:    -2.7055      Y:     2.7388      Z:     0.3751     Total:     3.8680

*** Psi4 exiting successfully. Buy a developer a beer!
