                               Psi4 1.3.2 release

  ==> Input File <==

--------------------------------------------------------------------------
#psi4
#
memory 32 gb

molecule  {
0 1
  N        0.8160970    -0.2990240    -0.0443680
  N        1.3585440    -1.5263750    -0.2734470
  N       -1.0817850     0.9875590    -0.4601130
  N       -1.2686320    -1.2431920     0.4227390
  C        1.7597130     0.6951090     0.1272320
  C        2.9786120     0.0532150     0.0016160
  C       -0.4907216    -0.1879818    -0.0262215
  C        1.4539390     2.1247050     0.4316710
  C        2.6793880    -1.2992810    -0.2463060
  C       -2.4210880     1.0928180    -0.4382200
  C       -2.6039190    -1.1175230     0.3972460
  C       -3.2414650     0.0469210    -0.0276130
  H        3.9528590     0.5149220     0.0929350
  H        1.0131890     2.6387050    -0.4244530
  H        0.7544440     2.2203260     1.2670250
  H        2.3864280     2.6245280     0.7070350
  H        3.3561510    -2.1272050    -0.4162310
  H       -2.8304840     2.0415190    -0.7796900
  H       -3.1684390    -1.9801170     0.7461500
  H       -4.3226790     0.1358530    -0.0311710
units angstrom
no_reorient  #important for SAPT in psi4, default
symmetry c1  #important for SAPT in psi4, default
}

set PROPERTIES_ORIGIN ["COM"]
properties('MP2/aug-cc-pvtz', properties = ['dipole'])
--------------------------------------------------------------------------

    Molecular point group: c1
  Charge       = 0
  Multiplicity = 1
  Basis Set: AUG-CC-PVTZ
    Blend: AUG-CC-PVTZ
  Basis Set: (AUG-CC-PVTZ AUX)
    Blend: AUG-CC-PVTZ-JKFIT

    Orbital Energies [Eh]
    ---------------------

    Doubly Occupied:

       1A    -15.651251     2A    -15.591071     3A    -15.574619
       4A    -15.570734     5A    -11.368277     6A    -11.302819
       7A    -11.300456     8A    -11.298216     9A    -11.266852
      10A    -11.242830    11A    -11.239502    12A    -11.228198
      13A     -1.408347    14A     -1.290943    15A     -1.182228
      16A     -1.151675    17A     -1.093505    18A     -1.042474
      19A     -0.966667    20A     -0.903827    21A     -0.894010
      22A     -0.810307    23A     -0.805029    24A     -0.712918
      25A     -0.700324    26A     -0.684563    27A     -0.647040
      28A     -0.634718    29A     -0.605694    30A     -0.599172
      31A     -0.584542    32A     -0.572367    33A     -0.571155
      34A     -0.549117    35A     -0.542982    36A     -0.483735
      37A     -0.462299    38A     -0.418830    39A     -0.414914
      40A     -0.398654    41A     -0.342556    42A     -0.330672

  @DF-RHF Final Energy:  -525.52751199718773

   => Energetics <=

    Nuclear Repulsion Energy =            658.5368219194073163
    One-Electron Energy =               -2019.2484933240884857
    Two-Electron Energy =                 835.1841594074933255
    Total Energy =                       -525.5275119971877302
  Basis Set: (AUG-CC-PVTZ AUX)
    Blend: AUG-CC-PVTZ-RI
    Molecular point group: c1

    Geometry (in Angstrom), charge = 0, multiplicity = 1:

       Center              X                  Y                   Z               Mass
    ------------   -----------------  -----------------  -----------------  -----------------
         N            0.815706573412    -0.260735415134    -0.037057707616    14.003074004430
         N            1.358153573412    -1.488086415134    -0.266136707616    14.003074004430
         N           -1.082175426588     1.025847584866    -0.452802707616    14.003074004430
         N           -1.269022426588    -1.204903415134     0.430049292384    14.003074004430
         C            1.759322573412     0.733397584866     0.134542292384    12.000000000000
         C            2.978221573412     0.091503584866     0.008926292384    12.000000000000
         C           -0.491112026588    -0.149693215134    -0.018911207616    12.000000000000
         C            1.453548573412     2.162993584866     0.438981292384    12.000000000000
         C            2.678997573412    -1.260992415134    -0.238995707616    12.000000000000
         C           -2.421478426588     1.131106584866    -0.430909707616    12.000000000000
         C           -2.604309426588    -1.079234415134     0.404556292384    12.000000000000
         C           -3.241855426588     0.085209584866    -0.020302707616    12.000000000000
         H            3.952468573412     0.553210584866     0.100245292384     1.007825032230
         H            1.012798573412     2.676993584866    -0.417142707616     1.007825032230
         H            0.754053573412     2.258614584866     1.274335292384     1.007825032230
         H            2.386037573412     2.662816584866     0.714345292384     1.007825032230
         H            3.355760573412    -2.088916415134    -0.408920707616     1.007825032230
         H           -2.830874426588     2.079807584866    -0.772379707616     1.007825032230
         H           -3.168829426588    -1.941828415134     0.753460292384     1.007825032230
         H           -4.323069426588     0.174141584866    -0.023860707616     1.007825032230

  Basis Set: AUG-CC-PVTZ
    Blend: AUG-CC-PVTZ
  Basis Set: (AUG-CC-PVTZ AUX)
    Blend: AUG-CC-PVTZ-JKFIT
	 Reference Energy          =    -525.5275119971877302 [Eh]
	 Singles Energy            =      -0.0000000000000000 [Eh]
	 Same-Spin Energy          =      -0.5783431651480209 [Eh]
	 Opposite-Spin Energy      =      -1.7403824017165515 [Eh]
	 Correlation Energy        =      -2.3187255668645723 [Eh]
	 Total Energy              =    -527.8462375640523305 [Eh]

	 ================> DF-SCS-MP2 Energies <==================
	-----------------------------------------------------------
	 SCS Same-Spin Scale       =       0.3333333333333333 [-]
	 SCS Opposite-Spin Scale   =       1.2000000000000000 [-]
	 SCS Same-Spin Energy      =      -0.1927810550493403 [Eh]
	 SCS Opposite-Spin Energy  =      -2.0884588820598617 [Eh]
	 SCS Correlation Energy    =      -2.2812399371092020 [Eh]
	 SCS Total Energy          =    -527.8087519342968790 [Eh]
	-----------------------------------------------------------

  Dipole Moment: [D]
     X:    -1.4721      Y:     2.4974      Z:     0.4284     Total:     2.9305

*** Psi4 exiting successfully. Buy a developer a beer!
