                               Psi4 1.3.2 release

  ==> Input File <==

--------------------------------------------------------------------------
#psi4
#
memory 32 gb

molecule  {
0 1
  N        0.9266041    -0.3895283    -0.0668029
  N        1.3585440    -1.5263750    -0.2734470
  N       -1.0817850     0.9875590    -0.4601130
  N       -1.2686320    -1.2431920     0.4227390
  C        1.7597130     0.6951090     0.1272320
  C        2.9786120     0.0532150     0.0016160
  C       -0.5903530    -0.1795160    -0.0248380
  C        1.4539390     2.1247050     0.4316710
  C        2.6793880    -1.2992810    -0.2463060
  C       -2.4210880     1.0928180    -0.4382200
  C       -2.6039190    -1.1175230     0.3972460
  C       -3.2414650     0.0469210    -0.0276130
  H        3.9528590     0.5149220     0.0929350
  H        1.0131890     2.6387050    -0.4244530
  H        0.7544440     2.2203260     1.2670250
  H        2.3864280     2.6245280     0.7070350
  H        3.3561510    -2.1272050    -0.4162310
  H       -2.8304840     2.0415190    -0.7796900
  H       -3.1684390    -1.9801170     0.7461500
  H       -4.3226790     0.1358530    -0.0311710
units angstrom
no_reorient  #important for SAPT in psi4, default
symmetry c1  #important for SAPT in psi4, default
}

set PROPERTIES_ORIGIN ["COM"]
properties('MP2/aug-cc-pvtz', properties = ['dipole'])
--------------------------------------------------------------------------

    Molecular point group: c1
  Charge       = 0
  Multiplicity = 1
  Basis Set: AUG-CC-PVTZ
    Blend: AUG-CC-PVTZ
  Basis Set: (AUG-CC-PVTZ AUX)
    Blend: AUG-CC-PVTZ-JKFIT

    Orbital Energies [Eh]
    ---------------------

    Doubly Occupied:

       1A    -15.653124     2A    -15.591894     3A    -15.586132
       4A    -15.578186     5A    -11.374845     6A    -11.317326
       7A    -11.314277     8A    -11.271200     9A    -11.259636
      10A    -11.236920    11A    -11.235515    12A    -11.211992
      13A     -1.431004    14A     -1.325333    15A     -1.211175
      16A     -1.114382    17A     -1.092374    18A     -1.042264
      19A     -0.962157    20A     -0.912094    21A     -0.892091
      22A     -0.809722    23A     -0.784414    24A     -0.715903
      25A     -0.711482    26A     -0.686515    27A     -0.649204
      28A     -0.634690    29A     -0.608694    30A     -0.590832
      31A     -0.582058    32A     -0.573267    33A     -0.566983
      34A     -0.559631    35A     -0.530407    36A     -0.492667
      37A     -0.457688    38A     -0.435119    39A     -0.426321
      40A     -0.400286    41A     -0.344018    42A     -0.320839

  @DF-RHF Final Energy:  -525.51294997917580

   => Energetics <=

    Nuclear Repulsion Energy =            658.4442117460079089
    One-Electron Energy =               -2018.9250042516928261
    Two-Electron Energy =                 834.9678425265090027
    Total Energy =                       -525.5129499791758008
  Basis Set: (AUG-CC-PVTZ AUX)
    Blend: AUG-CC-PVTZ-RI
    Molecular point group: c1

    Geometry (in Angstrom), charge = 0, multiplicity = 1:

       Center              X                  Y                   Z               Mass
    ------------   -----------------  -----------------  -----------------  -----------------
         N            0.924015562981    -0.343957194029    -0.057633755467    14.003074004430
         N            1.355955462981    -1.480803894029    -0.264277855467    14.003074004430
         N           -1.084373537019     1.033130105971    -0.450943855467    14.003074004430
         N           -1.271220537019    -1.197620894029     0.431908144533    14.003074004430
         C            1.757124462981     0.740680105971     0.136401144533    12.000000000000
         C            2.976023462981     0.098786105971     0.010785144533    12.000000000000
         C           -0.592941537019    -0.133944894029    -0.015668855467    12.000000000000
         C            1.451350462981     2.170276105971     0.440840144533    12.000000000000
         C            2.676799462981    -1.253709894029    -0.237136855467    12.000000000000
         C           -2.423676537019     1.138389105971    -0.429050855467    12.000000000000
         C           -2.606507537019    -1.071951894029     0.406415144533    12.000000000000
         C           -3.244053537019     0.092492105971    -0.018443855467    12.000000000000
         H            3.950270462981     0.560493105971     0.102104144533     1.007825032230
         H            1.010600462981     2.684276105971    -0.415283855467     1.007825032230
         H            0.751855462981     2.265897105971     1.276194144533     1.007825032230
         H            2.383839462981     2.670099105971     0.716204144533     1.007825032230
         H            3.353562462981    -2.081633894029    -0.407061855467     1.007825032230
         H           -2.833072537019     2.087090105971    -0.770520855467     1.007825032230
         H           -3.171027537019    -1.934545894029     0.755319144533     1.007825032230
         H           -4.325267537019     0.181424105971    -0.022001855467     1.007825032230

  Basis Set: AUG-CC-PVTZ
    Blend: AUG-CC-PVTZ
  Basis Set: (AUG-CC-PVTZ AUX)
    Blend: AUG-CC-PVTZ-JKFIT
	 Reference Energy          =    -525.5129499791758008 [Eh]
	 Singles Energy            =      -0.0000000000000000 [Eh]
	 Same-Spin Energy          =      -0.5797970849647863 [Eh]
	 Opposite-Spin Energy      =      -1.7399581237111872 [Eh]
	 Correlation Energy        =      -2.3197552086759736 [Eh]
	 Total Energy              =    -527.8327051878517295 [Eh]

	 ================> DF-SCS-MP2 Energies <==================
	-----------------------------------------------------------
	 SCS Same-Spin Scale       =       0.3333333333333333 [-]
	 SCS Opposite-Spin Scale   =       1.2000000000000000 [-]
	 SCS Same-Spin Energy      =      -0.1932656949882621 [Eh]
	 SCS Opposite-Spin Energy  =      -2.0879497484534246 [Eh]
	 SCS Correlation Energy    =      -2.2812154434416869 [Eh]
	 SCS Total Energy          =    -527.7941654226175388 [Eh]
	-----------------------------------------------------------

  Dipole Moment: [D]
     X:    -3.3013      Y:     2.6636      Z:     0.4463     Total:     4.2653

*** Psi4 exiting successfully. Buy a developer a beer!
