                               Psi4 1.3.2 release

  ==> Input File <==

--------------------------------------------------------------------------
#psi4
#
memory 32 gb

molecule  {
0 1
  N        0.8160970    -0.2990240    -0.0443680
  N        1.3585440    -1.5263750    -0.2734470
  N       -1.0914410     0.8998622    -0.4283132
  N       -1.2686320    -1.2431920     0.4227390
  C        1.7597130     0.6951090     0.1272320
  C        2.9786120     0.0532150     0.0016160
  C       -0.5903530    -0.1795160    -0.0248380
  C        1.4539390     2.1247050     0.4316710
  C        2.6793880    -1.2992810    -0.2463060
  C       -2.4210880     1.0928180    -0.4382200
  C       -2.6039190    -1.1175230     0.3972460
  C       -3.2414650     0.0469210    -0.0276130
  H        3.9528590     0.5149220     0.0929350
  H        1.0131890     2.6387050    -0.4244530
  H        0.7544440     2.2203260     1.2670250
  H        2.3864280     2.6245280     0.7070350
  H        3.3561510    -2.1272050    -0.4162310
  H       -2.8304840     2.0415190    -0.7796900
  H       -3.1684390    -1.9801170     0.7461500
  H       -4.3226790     0.1358530    -0.0311710
units angstrom
no_reorient  #important for SAPT in psi4, default
symmetry c1  #important for SAPT in psi4, default
}

set PROPERTIES_ORIGIN ["COM"]
properties('MP2/aug-cc-pvtz', properties = ['dipole'])
--------------------------------------------------------------------------

    Molecular point group: c1
  Charge       = 0
  Multiplicity = 1
  Basis Set: AUG-CC-PVTZ
    Blend: AUG-CC-PVTZ
  Basis Set: (AUG-CC-PVTZ AUX)
    Blend: AUG-CC-PVTZ-JKFIT

    Orbital Energies [Eh]
    ---------------------

    Doubly Occupied:

       1A    -15.638371     2A    -15.579706     3A    -15.574844
       4A    -15.569891     5A    -11.354722     6A    -11.313989
       7A    -11.307353     8A    -11.284833     9A    -11.254387
      10A    -11.252248    11A    -11.234832    12A    -11.215535
      13A     -1.388692    14A     -1.324341    15A     -1.206595
      16A     -1.129823    17A     -1.084030    18A     -1.047685
      19A     -0.958034    20A     -0.918930    21A     -0.893641
      22A     -0.803133    23A     -0.793938    24A     -0.723106
      25A     -0.706056    26A     -0.682203    27A     -0.640816
      28A     -0.634081    29A     -0.608144    30A     -0.595706
      31A     -0.587858    32A     -0.578852    33A     -0.562488
      34A     -0.553002    35A     -0.534377    36A     -0.486440
      37A     -0.452843    38A     -0.429405    39A     -0.413255
      40A     -0.407786    41A     -0.339584    42A     -0.330732

  @DF-RHF Final Energy:  -525.54020529921411

   => Energetics <=

    Nuclear Repulsion Energy =            660.5140299064454439
    One-Electron Energy =               -2023.3158915840272130
    Two-Electron Energy =                 837.2616563783675474
    Total Energy =                       -525.5402052992141080
  Basis Set: (AUG-CC-PVTZ AUX)
    Blend: AUG-CC-PVTZ-RI
    Molecular point group: c1

    Geometry (in Angstrom), charge = 0, multiplicity = 1:

       Center              X                  Y                   Z               Mass
    ------------   -----------------  -----------------  -----------------  -----------------
         N            0.824020122342    -0.253698489254    -0.039943212861    14.003074004430
         N            1.366467122342    -1.481049489254    -0.269022212861    14.003074004430
         N           -1.083517877658     0.945187710746    -0.423888412861    14.003074004430
         N           -1.260708877658    -1.197866489254     0.427163787139    14.003074004430
         C            1.767636122342     0.740434510746     0.131656787139    12.000000000000
         C            2.986535122342     0.098540510746     0.006040787139    12.000000000000
         C           -0.582429877658    -0.134190489254    -0.020413212861    12.000000000000
         C            1.461862122342     2.170030510746     0.436095787139    12.000000000000
         C            2.687311122342    -1.253955489254    -0.241881212861    12.000000000000
         C           -2.413164877658     1.138143510746    -0.433795212861    12.000000000000
         C           -2.595995877658    -1.072197489254     0.401670787139    12.000000000000
         C           -3.233541877658     0.092246510746    -0.023188212861    12.000000000000
         H            3.960782122342     0.560247510746     0.097359787139     1.007825032230
         H            1.021112122342     2.684030510746    -0.420028212861     1.007825032230
         H            0.762367122342     2.265651510746     1.271449787139     1.007825032230
         H            2.394351122342     2.669853510746     0.711459787139     1.007825032230
         H            3.364074122342    -2.081879489254    -0.411806212861     1.007825032230
         H           -2.822560877658     2.086844510746    -0.775265212861     1.007825032230
         H           -3.160515877658    -1.934791489254     0.750574787139     1.007825032230
         H           -4.314755877658     0.181178510746    -0.026746212861     1.007825032230

  Basis Set: AUG-CC-PVTZ
    Blend: AUG-CC-PVTZ
  Basis Set: (AUG-CC-PVTZ AUX)
    Blend: AUG-CC-PVTZ-JKFIT
	 Reference Energy          =    -525.5402052992141080 [Eh]
	 Singles Energy            =      -0.0000000000000000 [Eh]
	 Same-Spin Energy          =      -0.5770246683954543 [Eh]
	 Opposite-Spin Energy      =      -1.7366221607495926 [Eh]
	 Correlation Energy        =      -2.3136468291450472 [Eh]
	 Total Energy              =    -527.8538521283591081 [Eh]

	 ================> DF-SCS-MP2 Energies <==================
	-----------------------------------------------------------
	 SCS Same-Spin Scale       =       0.3333333333333333 [-]
	 SCS Opposite-Spin Scale   =       1.2000000000000000 [-]
	 SCS Same-Spin Energy      =      -0.1923415561318181 [Eh]
	 SCS Opposite-Spin Energy  =      -2.0839465928995109 [Eh]
	 SCS Correlation Energy    =      -2.2762881490313291 [Eh]
	 SCS Total Energy          =    -527.8164934482454100 [Eh]
	-----------------------------------------------------------

  Dipole Moment: [D]
     X:    -2.7056      Y:     2.7393      Z:     0.3767     Total:     3.8686

*** Psi4 exiting successfully. Buy a developer a beer!
