                               Psi4 1.3.2 release

  ==> Input File <==

--------------------------------------------------------------------------
#psi4
#
memory 32 gb

molecule  {
0 1
  N        0.8160970    -0.2990240    -0.0443680
  N        1.3186961    -1.4362143    -0.2566189
  N       -1.0817850     0.9875590    -0.4601130
  N       -1.2686320    -1.2431920     0.4227390
  C        1.7597130     0.6951090     0.1272320
  C        2.9786120     0.0532150     0.0016160
  C       -0.5903530    -0.1795160    -0.0248380
  C        1.4539390     2.1247050     0.4316710
  C        2.6793880    -1.2992810    -0.2463060
  C       -2.4210880     1.0928180    -0.4382200
  C       -2.6039190    -1.1175230     0.3972460
  C       -3.2414650     0.0469210    -0.0276130
  H        3.9528590     0.5149220     0.0929350
  H        1.0131890     2.6387050    -0.4244530
  H        0.7544440     2.2203260     1.2670250
  H        2.3864280     2.6245280     0.7070350
  H        3.3561510    -2.1272050    -0.4162310
  H       -2.8304840     2.0415190    -0.7796900
  H       -3.1684390    -1.9801170     0.7461500
  H       -4.3226790     0.1358530    -0.0311710
units angstrom
no_reorient  #important for SAPT in psi4, default
symmetry c1  #important for SAPT in psi4, default
}

set PROPERTIES_ORIGIN ["COM"]
properties('MP2/aug-cc-pvtz', properties = ['dipole'])
--------------------------------------------------------------------------

    Molecular point group: c1
  Charge       = 0
  Multiplicity = 1
  Basis Set: AUG-CC-PVTZ
    Blend: AUG-CC-PVTZ
  Basis Set: (AUG-CC-PVTZ AUX)
    Blend: AUG-CC-PVTZ-JKFIT

    Orbital Energies [Eh]
    ---------------------

    Doubly Occupied:

       1A    -15.650362     2A    -15.585960     3A    -15.582494
       4A    -15.575172     5A    -11.369734     6A    -11.313744
       7A    -11.311952     8A    -11.273944     9A    -11.255929
      10A    -11.249055    11A    -11.229935    12A    -11.217663
      13A     -1.423416    14A     -1.320753    15A     -1.209094
      16A     -1.125642    17A     -1.085064    18A     -1.049152
      19A     -0.953239    20A     -0.911477    21A     -0.902111
      22A     -0.810294    23A     -0.801570    24A     -0.715212
      25A     -0.708759    26A     -0.682219    27A     -0.649944
      28A     -0.636663    29A     -0.609101    30A     -0.598114
      31A     -0.588058    32A     -0.577436    33A     -0.562418
      34A     -0.557119    35A     -0.531428    36A     -0.494397
      37A     -0.447068    38A     -0.432455    39A     -0.420426
      40A     -0.405458    41A     -0.343800    42A     -0.318423

  @DF-RHF Final Energy:  -525.53552388063827

   => Energetics <=

    Nuclear Repulsion Energy =            661.0925666205446305
    One-Electron Energy =               -2024.2836767881256037
    Two-Electron Energy =                 837.6555862869427074
    Total Energy =                       -525.5355238806382658
  Basis Set: (AUG-CC-PVTZ AUX)
    Blend: AUG-CC-PVTZ-RI
    Molecular point group: c1

    Geometry (in Angstrom), charge = 0, multiplicity = 1:

       Center              X                  Y                   Z               Mass
    ------------   -----------------  -----------------  -----------------  -----------------
         N            0.826661257335    -0.269257154558    -0.038633514538    14.003074004430
         N            1.329260357335    -1.406447454558    -0.250884414538    14.003074004430
         N           -1.071220742665     1.017325845442    -0.454378514538    14.003074004430
         N           -1.258067742665    -1.213425154558     0.428473485462    14.003074004430
         C            1.770277257335     0.724875845442     0.132966485462    12.000000000000
         C            2.989176257335     0.082981845442     0.007350485462    12.000000000000
         C           -0.579788742665    -0.149749154558    -0.019103514538    12.000000000000
         C            1.464503257335     2.154471845442     0.437405485462    12.000000000000
         C            2.689952257335    -1.269514154558    -0.240571514538    12.000000000000
         C           -2.410523742665     1.122584845442    -0.432485514538    12.000000000000
         C           -2.593354742665    -1.087756154558     0.402980485462    12.000000000000
         C           -3.230900742665     0.076687845442    -0.021878514538    12.000000000000
         H            3.963423257335     0.544688845442     0.098669485462     1.007825032230
         H            1.023753257335     2.668471845442    -0.418718514538     1.007825032230
         H            0.765008257335     2.250092845442     1.272759485462     1.007825032230
         H            2.396992257335     2.654294845442     0.712769485462     1.007825032230
         H            3.366715257335    -2.097438154558    -0.410496514538     1.007825032230
         H           -2.819919742665     2.071285845442    -0.773955514538     1.007825032230
         H           -3.157874742665    -1.950350154558     0.751884485462     1.007825032230
         H           -4.312114742665     0.165619845442    -0.025436514538     1.007825032230

  Basis Set: AUG-CC-PVTZ
    Blend: AUG-CC-PVTZ
  Basis Set: (AUG-CC-PVTZ AUX)
    Blend: AUG-CC-PVTZ-JKFIT
	 Reference Energy          =    -525.5355238806382658 [Eh]
	 Singles Energy            =      -0.0000000000000000 [Eh]
	 Same-Spin Energy          =      -0.5787666615451743 [Eh]
	 Opposite-Spin Energy      =      -1.7382444305140881 [Eh]
	 Correlation Energy        =      -2.3170110920592624 [Eh]
	 Total Energy              =    -527.8525349726975264 [Eh]

	 ================> DF-SCS-MP2 Energies <==================
	-----------------------------------------------------------
	 SCS Same-Spin Scale       =       0.3333333333333333 [-]
	 SCS Opposite-Spin Scale   =       1.2000000000000000 [-]
	 SCS Same-Spin Energy      =      -0.1929222205150581 [Eh]
	 SCS Opposite-Spin Energy  =      -2.0858933166169056 [Eh]
	 SCS Correlation Energy    =      -2.2788155371319636 [Eh]
	 SCS Total Energy          =    -527.8143394177702703 [Eh]
	-----------------------------------------------------------

  Dipole Moment: [D]
     X:    -2.8114      Y:     2.4413      Z:     0.4168     Total:     3.7467

*** Psi4 exiting successfully. Buy a developer a beer!
