                               Psi4 1.3.2 release

  ==> Input File <==

--------------------------------------------------------------------------
#psi4
#
memory 32 gb

molecule  {
0 1
  N        0.8160970    -0.2990240    -0.0443680
  N        1.3585440    -1.5263750    -0.2734470
  N       -1.0817850     0.9875590    -0.4601130
  N       -1.2686320    -1.2431920     0.4227390
  C        1.7597130     0.6951090     0.1272320
  C        2.9786120     0.0532150     0.0016160
  C       -0.5903530    -0.1795160    -0.0248380
  C        1.4539390     2.1247050     0.4316710
  C        2.6793880    -1.2992810    -0.2463060
  C       -2.4210880     1.0928180    -0.4382200
  C       -2.6039190    -1.1175230     0.3972460
  C       -3.2414650     0.0469210    -0.0276130
  H        3.9528590     0.5149220     0.0929350
  H        1.0131890     2.6387050    -0.4244530
  H        0.7544440     2.2203260     1.2670250
  H        2.3864280     2.6245280     0.7070350
  H        3.3561510    -2.1272050    -0.4162310
  H       -2.8304840     2.0415190    -0.7796900
  H       -3.1684390    -1.9801170     0.7461500
  H       -4.2230161     0.1276555    -0.0308430
units angstrom
no_reorient  #important for SAPT in psi4, default
symmetry c1  #important for SAPT in psi4, default
}

set PROPERTIES_ORIGIN ["COM"]
properties('MP2/aug-cc-pvtz', properties = ['dipole'])
--------------------------------------------------------------------------

    Molecular point group: c1
  Charge       = 0
  Multiplicity = 1
  Basis Set: AUG-CC-PVTZ
    Blend: AUG-CC-PVTZ
  Basis Set: (AUG-CC-PVTZ AUX)
    Blend: AUG-CC-PVTZ-JKFIT

    Orbital Energies [Eh]
    ---------------------

    Doubly Occupied:

       1A    -15.641942     2A    -15.581843     3A    -15.581314
       4A    -15.578059     5A    -11.367105     6A    -11.310905
       7A    -11.308843     8A    -11.286594     9A    -11.254393
      10A    -11.241135    11A    -11.234568    12A    -11.217179
      13A     -1.386101    14A     -1.312134    15A     -1.205527
      16A     -1.129986    17A     -1.084722    18A     -1.048530
      19A     -0.958690    20A     -0.908682    21A     -0.900405
      22A     -0.800237    23A     -0.795206    24A     -0.717524
      25A     -0.709924    26A     -0.692147    27A     -0.642454
      28A     -0.637455    29A     -0.606758    30A     -0.589749
      31A     -0.586423    32A     -0.574843    33A     -0.564051
      34A     -0.552499    35A     -0.535984    36A     -0.493512
      37A     -0.454913    38A     -0.430049    39A     -0.419838
      40A     -0.407495    41A     -0.337888    42A     -0.332230

  @DF-RHF Final Energy:  -525.53766272014309

   => Energetics <=

    Nuclear Repulsion Energy =            658.8414378941183713
    One-Electron Energy =               -2019.9185341235786382
    Two-Electron Energy =                 835.5394335093171776
    Total Energy =                       -525.5376627201430892
  Basis Set: (AUG-CC-PVTZ AUX)
    Blend: AUG-CC-PVTZ-RI
    Molecular point group: c1

    Geometry (in Angstrom), charge = 0, multiplicity = 1:

       Center              X                  Y                   Z               Mass
    ------------   -----------------  -----------------  -----------------  -----------------
         N            0.822547958664    -0.261318441933    -0.037163486642    14.003074004430
         N            1.364994958664    -1.488669441933    -0.266242486642    14.003074004430
         N           -1.075334041336     1.025264558067    -0.452908486642    14.003074004430
         N           -1.262181041336    -1.205486441933     0.429943513358    14.003074004430
         C            1.766163958664     0.732814558067     0.134436513358    12.000000000000
         C            2.985062958664     0.090920558067     0.008820513358    12.000000000000
         C           -0.583902041336    -0.141810441933    -0.017633486642    12.000000000000
         C            1.460389958664     2.162410558067     0.438875513358    12.000000000000
         C            2.685838958664    -1.261575441933    -0.239101486642    12.000000000000
         C           -2.414637041336     1.130523558067    -0.431015486642    12.000000000000
         C           -2.597468041336    -1.079817441933     0.404450513358    12.000000000000
         C           -3.235014041336     0.084626558067    -0.020408486642    12.000000000000
         H            3.959309958664     0.552627558067     0.100139513358     1.007825032230
         H            1.019639958664     2.676410558067    -0.417248486642     1.007825032230
         H            0.760894958664     2.258031558067     1.274229513358     1.007825032230
         H            2.392878958664     2.662233558067     0.714239513358     1.007825032230
         H            3.362601958664    -2.089499441933    -0.409026486642     1.007825032230
         H           -2.824033041336     2.079224558067    -0.772485486642     1.007825032230
         H           -3.161988041336    -1.942411441933     0.753354513358     1.007825032230
         H           -4.216565141336     0.165361058067    -0.023638486642     1.007825032230

  Basis Set: AUG-CC-PVTZ
    Blend: AUG-CC-PVTZ
  Basis Set: (AUG-CC-PVTZ AUX)
    Blend: AUG-CC-PVTZ-JKFIT
	 Reference Energy          =    -525.5376627201430892 [Eh]
	 Singles Energy            =      -0.0000000000000000 [Eh]
	 Same-Spin Energy          =      -0.5774070016021176 [Eh]
	 Opposite-Spin Energy      =      -1.7382039734370764 [Eh]
	 Correlation Energy        =      -2.3156109750391938 [Eh]
	 Total Energy              =    -527.8532736951823381 [Eh]

	 ================> DF-SCS-MP2 Energies <==================
	-----------------------------------------------------------
	 SCS Same-Spin Scale       =       0.3333333333333333 [-]
	 SCS Opposite-Spin Scale   =       1.2000000000000000 [-]
	 SCS Same-Spin Energy      =      -0.1924690005340392 [Eh]
	 SCS Opposite-Spin Energy  =      -2.0858447681244918 [Eh]
	 SCS Correlation Energy    =      -2.2783137686585309 [Eh]
	 SCS Total Energy          =    -527.8159764888016525 [Eh]
	-----------------------------------------------------------

  Dipole Moment: [D]
     X:    -2.5893      Y:     2.5557      Z:     0.4396     Total:     3.6646

*** Psi4 exiting successfully. Buy a developer a beer!
