                               Psi4 1.4a3.dev225

  ==> Input File <==

--------------------------------------------------------------------------
#psi4
#
memory 32 gb

molecule  {
0 1
  N        0.8160970    -0.2990240    -0.0443680
  N        1.3585440    -1.5263750    -0.2734470
  N       -1.0817850     0.9875590    -0.4601130
  N       -1.2686320    -1.2431920     0.4227390
  C        1.7597130     0.6951090     0.1272320
  C        2.9786120     0.0532150     0.0016160
  C       -0.5903530    -0.1795160    -0.0248380
  C        1.4437008     2.1725722     0.4418645
  C        2.6793880    -1.2992810    -0.2463060
  C       -2.4210880     1.0928180    -0.4382200
  C       -2.6039190    -1.1175230     0.3972460
  C       -3.2414650     0.0469210    -0.0276130
  H        3.9528590     0.5149220     0.0929350
  H        1.0131890     2.6387050    -0.4244530
  H        0.7544440     2.2203260     1.2670250
  H        2.3864280     2.6245280     0.7070350
  H        3.3561510    -2.1272050    -0.4162310
  H       -2.8304840     2.0415190    -0.7796900
  H       -3.1684390    -1.9801170     0.7461500
  H       -4.3226790     0.1358530    -0.0311710
units angstrom
no_reorient  #important for SAPT in psi4, default
symmetry c1  #important for SAPT in psi4, default
}

set PROPERTIES_ORIGIN ["COM"]
properties('MP2/aug-cc-pvtz', properties = ['dipole'])
--------------------------------------------------------------------------

    Molecular point group: c1
  Charge       = 0
  Multiplicity = 1
  Basis Set: AUG-CC-PVTZ
    Blend: AUG-CC-PVTZ
  Basis Set: (AUG-CC-PVTZ AUX)
    Blend: AUG-CC-PVTZ-JKFIT

    Orbital Energies [Eh]
    ---------------------

    Doubly Occupied:

       1A    -15.641967     2A    -15.582470     3A    -15.581042
       4A    -15.578587     5A    -11.367335     6A    -11.311559
       7A    -11.309483     8A    -11.288092     9A    -11.254280
      10A    -11.252651    11A    -11.234610    12A    -11.216970
      13A     -1.385806    14A     -1.312415    15A     -1.205980
      16A     -1.128762    17A     -1.079479    18A     -1.044507
      19A     -0.959388    20A     -0.908990    21A     -0.896614
      22A     -0.799552    23A     -0.794640    24A     -0.712771
      25A     -0.706046    26A     -0.680101    27A     -0.637713
      28A     -0.632895    29A     -0.607526    30A     -0.589297
      31A     -0.588852    32A     -0.578286    33A     -0.562650
      34A     -0.557075    35A     -0.530014    36A     -0.492856
      37A     -0.454853    38A     -0.430606    39A     -0.420337
      40A     -0.407542    41A     -0.337885    42A     -0.333139

  @DF-RHF Final Energy:  -525.54212948291149

   => Energetics <=

    Nuclear Repulsion Energy =            657.3943139879588671
    One-Electron Energy =               -2017.0816428490859380
    Two-Electron Energy =                 834.1451993782155796
    Total Energy =                       -525.5421294829114913
  Basis Set: (AUG-CC-PVTZ AUX)
    Blend: AUG-CC-PVTZ-RI
    Molecular point group: c1

    Geometry (in Angstrom), charge = 0, multiplicity = 1:

       Center              X                  Y                   Z               Mass
    ------------   -----------------  -----------------  -----------------  -----------------
         N            0.823942937956    -0.264958413342    -0.037925576365    14.003074004430
         N            1.366389937956    -1.492309413342    -0.267004576365    14.003074004430
         N           -1.073939062044     1.021624586658    -0.453670576365    14.003074004430
         N           -1.260786062044    -1.209126413342     0.429181423635    14.003074004430
         C            1.767558937956     0.729174586658     0.133674423635    12.000000000000
         C            2.986457937956     0.087280586658     0.008058423635    12.000000000000
         C           -0.582507062044    -0.145450413342    -0.018395576365    12.000000000000
         C            1.451546737956     2.206637786658     0.448306923635    12.000000000000
         C            2.687233937956    -1.265215413342    -0.239863576365    12.000000000000
         C           -2.413242062044     1.126883586658    -0.431777576365    12.000000000000
         C           -2.596073062044    -1.083457413342     0.403688423635    12.000000000000
         C           -3.233619062044     0.080986586658    -0.021170576365    12.000000000000
         H            3.960704937956     0.548987586658     0.099377423635     1.007825032230
         H            1.021034937956     2.672770586658    -0.418010576365     1.007825032230
         H            0.762289937956     2.254391586658     1.273467423635     1.007825032230
         H            2.394273937956     2.658593586658     0.713477423635     1.007825032230
         H            3.363996937956    -2.093139413342    -0.409788576365     1.007825032230
         H           -2.822638062044     2.075584586658    -0.773247576365     1.007825032230
         H           -3.160593062044    -1.946051413342     0.752592423635     1.007825032230
         H           -4.314833062044     0.169918586658    -0.024728576365     1.007825032230

  Basis Set: AUG-CC-PVTZ
    Blend: AUG-CC-PVTZ
  Basis Set: (AUG-CC-PVTZ AUX)
    Blend: AUG-CC-PVTZ-JKFIT
	 Reference Energy          =    -525.5421294829114913 [Eh]
	 Singles Energy            =      -0.0000000000000000 [Eh]
	 Same-Spin Energy          =      -0.5771467045505299 [Eh]
	 Opposite-Spin Energy      =      -1.7383351057727645 [Eh]
	 Correlation Energy        =      -2.3154818103232944 [Eh]
	 Total Energy              =    -527.8576112932347542 [Eh]

	 ================> DF-SCS-MP2 Energies <==================
	-----------------------------------------------------------
	 SCS Same-Spin Scale       =       0.3333333333333333 [-]
	 SCS Opposite-Spin Scale   =       1.2000000000000000 [-]
	 SCS Same-Spin Energy      =      -0.1923822348501766 [Eh]
	 SCS Opposite-Spin Energy  =      -2.0860021269273172 [Eh]
	 SCS Correlation Energy    =      -2.2783843617774937 [Eh]
	 SCS Total Energy          =    -527.8205138446890032 [Eh]
	-----------------------------------------------------------

  Dipole Moment: [D]
     X:    -2.5797      Y:     2.5567      Z:     0.4426     Total:     3.6589

*** Psi4 exiting successfully. Buy a developer a beer!
