                               Psi4 1.3.2 release

  ==> Input File <==

--------------------------------------------------------------------------
#psi4
#
memory 32 gb

molecule  {
0 1
  N        0.8160970    -0.2990240    -0.0443680
  N        1.3585440    -1.5263750    -0.2734470
  N       -1.0817850     0.9875590    -0.4601130
  N       -1.2686320    -1.2431920     0.4227390
  C        1.7597130     0.6951090     0.1272320
  C        3.0006911     0.0951474     0.0108637
  C       -0.5903530    -0.1795160    -0.0248380
  C        1.4539390     2.1247050     0.4316710
  C        2.6793880    -1.2992810    -0.2463060
  C       -2.4210880     1.0928180    -0.4382200
  C       -2.6039190    -1.1175230     0.3972460
  C       -3.2414650     0.0469210    -0.0276130
  H        3.9528590     0.5149220     0.0929350
  H        1.0131890     2.6387050    -0.4244530
  H        0.7544440     2.2203260     1.2670250
  H        2.3864280     2.6245280     0.7070350
  H        3.3561510    -2.1272050    -0.4162310
  H       -2.8304840     2.0415190    -0.7796900
  H       -3.1684390    -1.9801170     0.7461500
  H       -4.3226790     0.1358530    -0.0311710
units angstrom
no_reorient  #important for SAPT in psi4, default
symmetry c1  #important for SAPT in psi4, default
}

set PROPERTIES_ORIGIN ["COM"]
properties('MP2/aug-cc-pvtz', properties = ['dipole'])
--------------------------------------------------------------------------

    Molecular point group: c1
  Charge       = 0
  Multiplicity = 1
  Basis Set: AUG-CC-PVTZ
    Blend: AUG-CC-PVTZ
  Basis Set: (AUG-CC-PVTZ AUX)
    Blend: AUG-CC-PVTZ-JKFIT

    Orbital Energies [Eh]
    ---------------------

    Doubly Occupied:

       1A    -15.641336     2A    -15.584129     3A    -15.582063
       4A    -15.578496     5A    -11.367539     6A    -11.311363
       7A    -11.309416     8A    -11.288119     9A    -11.260036
      10A    -11.252393    11A    -11.233293    12A    -11.219109
      13A     -1.385415    14A     -1.311886    15A     -1.205873
      16A     -1.127764    17A     -1.084677    18A     -1.043151
      19A     -0.956493    20A     -0.909099    21A     -0.895325
      22A     -0.802221    23A     -0.796388    24A     -0.712611
      25A     -0.706191    26A     -0.680710    27A     -0.638371
      28A     -0.635069    29A     -0.611312    30A     -0.593042
      31A     -0.586793    32A     -0.575757    33A     -0.564112
      34A     -0.551749    35A     -0.530227    36A     -0.491646
      37A     -0.455018    38A     -0.430435    39A     -0.420116
      40A     -0.405852    41A     -0.336935    42A     -0.333769

  @DF-RHF Final Energy:  -525.54132940214765

   => Energetics <=

    Nuclear Repulsion Energy =            657.5536390582079775
    One-Electron Energy =               -2017.3793413803186922
    Two-Electron Energy =                 834.2843729199631753
    Total Energy =                       -525.5413294021476531
  Basis Set: (AUG-CC-PVTZ AUX)
    Blend: AUG-CC-PVTZ-RI
    Molecular point group: c1

    Geometry (in Angstrom), charge = 0, multiplicity = 1:

       Center              X                  Y                   Z               Mass
    ------------   -----------------  -----------------  -----------------  -----------------
         N            0.821520274509    -0.264513511601    -0.037854674554    14.003074004430
         N            1.363967274509    -1.491864511601    -0.266933674554    14.003074004430
         N           -1.076361725491     1.022069488399    -0.453599674554    14.003074004430
         N           -1.263208725491    -1.208681511601     0.429252325446    14.003074004430
         C            1.765136274509     0.729619488399     0.133745325446    12.000000000000
         C            3.006114374509     0.129657888399     0.017377025446    12.000000000000
         C           -0.584929725491    -0.145005511601    -0.018324674554    12.000000000000
         C            1.459362274509     2.159215488399     0.438184325446    12.000000000000
         C            2.684811274509    -1.264770511601    -0.239792674554    12.000000000000
         C           -2.415664725491     1.127328488399    -0.431706674554    12.000000000000
         C           -2.598495725491    -1.083012511601     0.403759325446    12.000000000000
         C           -3.236041725491     0.081431488399    -0.021099674554    12.000000000000
         H            3.958282274509     0.549432488399     0.099448325446     1.007825032230
         H            1.018612274509     2.673215488399    -0.417939674554     1.007825032230
         H            0.759867274509     2.254836488399     1.273538325446     1.007825032230
         H            2.391851274509     2.659038488399     0.713548325446     1.007825032230
         H            3.361574274509    -2.092694511601    -0.409717674554     1.007825032230
         H           -2.825060725491     2.076029488399    -0.773176674554     1.007825032230
         H           -3.163015725491    -1.945606511601     0.752663325446     1.007825032230
         H           -4.317255725491     0.170363488399    -0.024657674554     1.007825032230

  Basis Set: AUG-CC-PVTZ
    Blend: AUG-CC-PVTZ
  Basis Set: (AUG-CC-PVTZ AUX)
    Blend: AUG-CC-PVTZ-JKFIT
	 Reference Energy          =    -525.5413294021476531 [Eh]
	 Singles Energy            =      -0.0000000000000000 [Eh]
	 Same-Spin Energy          =      -0.5769506935214999 [Eh]
	 Opposite-Spin Energy      =      -1.7383948287484261 [Eh]
	 Correlation Energy        =      -2.3153455222699257 [Eh]
	 Total Energy              =    -527.8566749244175753 [Eh]

	 ================> DF-SCS-MP2 Energies <==================
	-----------------------------------------------------------
	 SCS Same-Spin Scale       =       0.3333333333333333 [-]
	 SCS Opposite-Spin Scale   =       1.2000000000000000 [-]
	 SCS Same-Spin Energy      =      -0.1923168978404999 [Eh]
	 SCS Opposite-Spin Energy  =      -2.0860737944981111 [Eh]
	 SCS Correlation Energy    =      -2.2783906923386112 [Eh]
	 SCS Total Energy          =    -527.8197200944862288 [Eh]
	-----------------------------------------------------------

  Dipole Moment: [D]
     X:    -2.5407      Y:     2.5239      Z:     0.4305     Total:     3.6070

*** Psi4 exiting successfully. Buy a developer a beer!
