                               Psi4 1.4a3.dev225

  ==> Input File <==

--------------------------------------------------------------------------
#psi4
#
memory 32 gb

molecule  {
0 1
  N        0.8160970    -0.2990240    -0.0443680
  N        1.3585440    -1.5263750    -0.2734470
  N       -1.0817850     0.9875590    -0.4601130
  N       -1.2686320    -1.2431920     0.4227390
  C        1.7597130     0.6951090     0.1272320
  C        2.9786120     0.0532150     0.0016160
  C       -0.5903530    -0.1795160    -0.0248380
  C        1.4539390     2.1247050     0.4316710
  C        2.6793880    -1.2992810    -0.2463060
  C       -2.4210880     1.0928180    -0.4382200
  C       -2.6039190    -1.1175230     0.3972460
  C       -3.2532586     0.0318854    -0.0217102
  H        3.9528590     0.5149220     0.0929350
  H        1.0131890     2.6387050    -0.4244530
  H        0.7544440     2.2203260     1.2670250
  H        2.3864280     2.6245280     0.7070350
  H        3.3561510    -2.1272050    -0.4162310
  H       -2.8304840     2.0415190    -0.7796900
  H       -3.1684390    -1.9801170     0.7461500
  H       -4.3226790     0.1358530    -0.0311710
units angstrom
no_reorient  #important for SAPT in psi4, default
symmetry c1  #important for SAPT in psi4, default
}

set PROPERTIES_ORIGIN ["COM"]
properties('MP2/aug-cc-pvtz', properties = ['dipole'])
--------------------------------------------------------------------------

    Molecular point group: c1
  Charge       = 0
  Multiplicity = 1
  Basis Set: AUG-CC-PVTZ
    Blend: AUG-CC-PVTZ
  Basis Set: (AUG-CC-PVTZ AUX)
    Blend: AUG-CC-PVTZ-JKFIT

    Orbital Energies [Eh]
    ---------------------

    Doubly Occupied:

       1A    -15.642260     2A    -15.583403     3A    -15.581540
       4A    -15.577938     5A    -11.367620     6A    -11.314893
       7A    -11.307367     8A    -11.286874     9A    -11.254629
      10A    -11.252949    11A    -11.234904    12A    -11.217435
      13A     -1.386393    14A     -1.312211    15A     -1.205931
      16A     -1.128962    17A     -1.084302    18A     -1.044649
      19A     -0.958979    20A     -0.908563    21A     -0.896641
      22A     -0.800282    23A     -0.794995    24A     -0.713280
      25A     -0.706645    26A     -0.683631    27A     -0.638051
      28A     -0.635832    29A     -0.606243    30A     -0.589533
      31A     -0.585644    32A     -0.574947    33A     -0.564212
      34A     -0.552639    35A     -0.536101    36A     -0.492624
      37A     -0.455060    38A     -0.430690    39A     -0.419948
      40A     -0.406940    41A     -0.337857    42A     -0.332471

  @DF-RHF Final Energy:  -525.54304674890341

   => Energetics <=

    Nuclear Repulsion Energy =            658.0377557283353553
    One-Electron Energy =               -2018.3494762419613835
    Two-Electron Energy =                 834.7686737647225073
    Total Energy =                       -525.5430467489034072
  Basis Set: (AUG-CC-PVTZ AUX)
    Blend: AUG-CC-PVTZ-RI
    Molecular point group: c1

    Geometry (in Angstrom), charge = 0, multiplicity = 1:

       Center              X                  Y                   Z               Mass
    ------------   -----------------  -----------------  -----------------  -----------------
         N            0.824059538375    -0.260242910676    -0.037603924431    14.003074004430
         N            1.366506538375    -1.487593910676    -0.266682924431    14.003074004430
         N           -1.073822461625     1.026340089324    -0.453348924431    14.003074004430
         N           -1.260669461625    -1.204410910676     0.429503075569    14.003074004430
         C            1.767675538375     0.733890089324     0.133996075569    12.000000000000
         C            2.986574538375     0.091996089324     0.008380075569    12.000000000000
         C           -0.582390461625    -0.140734910676    -0.018073924431    12.000000000000
         C            1.461901538375     2.163486089324     0.438435075569    12.000000000000
         C            2.687350538375    -1.260499910676    -0.239541924431    12.000000000000
         C           -2.413125461625     1.131599089324    -0.431455924431    12.000000000000
         C           -2.595956461625    -1.078741910676     0.404010075569    12.000000000000
         C           -3.245296061625     0.070666489324    -0.014946124431    12.000000000000
         H            3.960821538375     0.553703089324     0.099699075569     1.007825032230
         H            1.021151538375     2.677486089324    -0.417688924431     1.007825032230
         H            0.762406538375     2.259107089324     1.273789075569     1.007825032230
         H            2.394390538375     2.663309089324     0.713799075569     1.007825032230
         H            3.364113538375    -2.088423910676    -0.409466924431     1.007825032230
         H           -2.822521461625     2.080300089324    -0.772925924431     1.007825032230
         H           -3.160476461625    -1.941335910676     0.752914075569     1.007825032230
         H           -4.314716461625     0.174634089324    -0.024406924431     1.007825032230

  Basis Set: AUG-CC-PVTZ
    Blend: AUG-CC-PVTZ
  Basis Set: (AUG-CC-PVTZ AUX)
    Blend: AUG-CC-PVTZ-JKFIT
	 Reference Energy          =    -525.5430467489034072 [Eh]
	 Singles Energy            =      -0.0000000000000000 [Eh]
	 Same-Spin Energy          =      -0.5775275441855048 [Eh]
	 Opposite-Spin Energy      =      -1.7386714110365267 [Eh]
	 Correlation Energy        =      -2.3161989552220312 [Eh]
	 Total Energy              =    -527.8592457041254420 [Eh]

	 ================> DF-SCS-MP2 Energies <==================
	-----------------------------------------------------------
	 SCS Same-Spin Scale       =       0.3333333333333333 [-]
	 SCS Opposite-Spin Scale   =       1.2000000000000000 [-]
	 SCS Same-Spin Energy      =      -0.1925091813951683 [Eh]
	 SCS Opposite-Spin Energy  =      -2.0864056932438317 [Eh]
	 SCS Correlation Energy    =      -2.2789148746389998 [Eh]
	 SCS Total Energy          =    -527.8219616235423928 [Eh]
	-----------------------------------------------------------

  Dipole Moment: [D]
     X:    -2.5719      Y:     2.5839      Z:     0.4285     Total:     3.6708

*** Psi4 exiting successfully. Buy a developer a beer!
