                               Psi4 1.3.2 release

  ==> Input File <==

--------------------------------------------------------------------------
#psi4
#
memory 32 gb

molecule  {
0 1
  N        0.8160970    -0.2990240    -0.0443680
  N        1.3585440    -1.5263750    -0.2734470
  N       -1.0817850     0.9875590    -0.4601130
  N       -1.2686320    -1.2431920     0.4227390
  C        1.7597130     0.6951090     0.1272320
  C        2.9786120     0.0532150     0.0016160
  C       -0.6916961    -0.3384421     0.0420354
  C        1.4539390     2.1247050     0.4316710
  C        2.6793880    -1.2992810    -0.2463060
  C       -2.4210880     1.0928180    -0.4382200
  C       -2.6039190    -1.1175230     0.3972460
  C       -3.2414650     0.0469210    -0.0276130
  H        3.9528590     0.5149220     0.0929350
  H        1.0131890     2.6387050    -0.4244530
  H        0.7544440     2.2203260     1.2670250
  H        2.3864280     2.6245280     0.7070350
  H        3.3561510    -2.1272050    -0.4162310
  H       -2.8304840     2.0415190    -0.7796900
  H       -3.1684390    -1.9801170     0.7461500
  H       -4.3226790     0.1358530    -0.0311710
units angstrom
no_reorient  #important for SAPT in psi4, default
symmetry c1  #important for SAPT in psi4, default
}

set PROPERTIES_ORIGIN ["COM"]
properties('MP2/aug-cc-pvtz', properties = ['dipole'])
--------------------------------------------------------------------------

    Molecular point group: c1
  Charge       = 0
  Multiplicity = 1
  Basis Set: AUG-CC-PVTZ
    Blend: AUG-CC-PVTZ
  Basis Set: (AUG-CC-PVTZ AUX)
    Blend: AUG-CC-PVTZ-JKFIT

    Orbital Energies [Eh]
    ---------------------

    Doubly Occupied:

       1A    -15.628536     2A    -15.593895     3A    -15.575139
       4A    -15.569964     5A    -11.359662     6A    -11.323394
       7A    -11.314539     8A    -11.277621     9A    -11.263386
      10A    -11.242266    11A    -11.228020    12A    -11.207708
      13A     -1.392869    14A     -1.339217    15A     -1.220010
      16A     -1.111684    17A     -1.077830    18A     -1.040790
      19A     -0.949714    20A     -0.935165    21A     -0.880174
      22A     -0.790251    23A     -0.784984    24A     -0.730239
      25A     -0.703699    26A     -0.673956    27A     -0.640648
      28A     -0.634163    29A     -0.615813    30A     -0.591425
      31A     -0.582631    32A     -0.573065    33A     -0.553824
      34A     -0.545604    35A     -0.527711    36A     -0.493917
      37A     -0.457910    38A     -0.443504    39A     -0.429296
      40A     -0.397419    41A     -0.337662    42A     -0.322917

  @DF-RHF Final Energy:  -525.48163779469019

   => Energetics <=

    Nuclear Repulsion Energy =            658.3321677661973581
    One-Electron Energy =               -2018.9031710435372133
    Two-Electron Energy =                 835.0893654826497823
    Total Energy =                       -525.4816377946901866
  Basis Set: (AUG-CC-PVTZ AUX)
    Blend: AUG-CC-PVTZ-RI
    Molecular point group: c1

    Geometry (in Angstrom), charge = 0, multiplicity = 1:

       Center              X                  Y                   Z               Mass
    ------------   -----------------  -----------------  -----------------  -----------------
         N            0.830772608475    -0.249456172467    -0.042174579899    14.003074004430
         N            1.373219608475    -1.476807172467    -0.271253579899    14.003074004430
         N           -1.067109391525     1.037126827533    -0.457919579899    14.003074004430
         N           -1.253956391525    -1.193624172467     0.424932420101    14.003074004430
         C            1.774388608475     0.744676827533     0.129425420101    12.000000000000
         C            2.993287608475     0.102782827533     0.003809420101    12.000000000000
         C           -0.677020491525    -0.288874272467     0.044228820101    12.000000000000
         C            1.468614608475     2.174272827533     0.433864420101    12.000000000000
         C            2.694063608475    -1.249713172467    -0.244112579899    12.000000000000
         C           -2.406412391525     1.142385827533    -0.436026579899    12.000000000000
         C           -2.589243391525    -1.067955172467     0.399439420101    12.000000000000
         C           -3.226789391525     0.096488827533    -0.025419579899    12.000000000000
         H            3.967534608475     0.564489827533     0.095128420101     1.007825032230
         H            1.027864608475     2.688272827533    -0.422259579899     1.007825032230
         H            0.769119608475     2.269893827533     1.269218420101     1.007825032230
         H            2.401103608475     2.674095827533     0.709228420101     1.007825032230
         H            3.370826608475    -2.077637172467    -0.414037579899     1.007825032230
         H           -2.815808391525     2.091086827533    -0.777496579899     1.007825032230
         H           -3.153763391525    -1.930549172467     0.748343420101     1.007825032230
         H           -4.308003391525     0.185420827533    -0.028977579899     1.007825032230

  Basis Set: AUG-CC-PVTZ
    Blend: AUG-CC-PVTZ
  Basis Set: (AUG-CC-PVTZ AUX)
    Blend: AUG-CC-PVTZ-JKFIT
	 Reference Energy          =    -525.4816377946901866 [Eh]
	 Singles Energy            =      -0.0000000000000000 [Eh]
	 Same-Spin Energy          =      -0.5769809218552610 [Eh]
	 Opposite-Spin Energy      =      -1.7408557609666175 [Eh]
	 Correlation Energy        =      -2.3178366828218784 [Eh]
	 Total Energy              =    -527.7994744775120353 [Eh]

	 ================> DF-SCS-MP2 Energies <==================
	-----------------------------------------------------------
	 SCS Same-Spin Scale       =       0.3333333333333333 [-]
	 SCS Opposite-Spin Scale   =       1.2000000000000000 [-]
	 SCS Same-Spin Energy      =      -0.1923269739517536 [Eh]
	 SCS Opposite-Spin Energy  =      -2.0890269131599410 [Eh]
	 SCS Correlation Energy    =      -2.2813538871116945 [Eh]
	 SCS Total Energy          =    -527.7629916818018501 [Eh]
	-----------------------------------------------------------

  Dipole Moment: [D]
     X:    -3.6315      Y:     2.3535      Z:     0.5936     Total:     4.3680

*** Psi4 exiting successfully. Buy a developer a beer!
