                               Psi4 1.3.2 release

  ==> Input File <==

--------------------------------------------------------------------------
#psi4
#
memory 32 gb

molecule  {
0 1
  N        0.8160970    -0.2990240    -0.0443680
  N        1.3585440    -1.5263750    -0.2734470
  N       -1.0817850     0.9875590    -0.4601130
  N       -1.2686320    -1.2431920     0.4227390
  C        1.7597130     0.6951090     0.1272320
  C        2.9786120     0.0532150     0.0016160
  C       -0.5903530    -0.1795160    -0.0248380
  C        1.4539390     2.1247050     0.4316710
  C        2.6793880    -1.2992810    -0.2463060
  C       -2.4016131     1.0790576    -0.4336424
  C       -2.6039190    -1.1175230     0.3972460
  C       -3.2414650     0.0469210    -0.0276130
  H        3.9528590     0.5149220     0.0929350
  H        1.0131890     2.6387050    -0.4244530
  H        0.7544440     2.2203260     1.2670250
  H        2.3864280     2.6245280     0.7070350
  H        3.3561510    -2.1272050    -0.4162310
  H       -2.8304840     2.0415190    -0.7796900
  H       -3.1684390    -1.9801170     0.7461500
  H       -4.3226790     0.1358530    -0.0311710
units angstrom
no_reorient  #important for SAPT in psi4, default
symmetry c1  #important for SAPT in psi4, default
}

set PROPERTIES_ORIGIN ["COM"]
properties('MP2/aug-cc-pvtz', properties = ['dipole'])
--------------------------------------------------------------------------

    Molecular point group: c1
  Charge       = 0
  Multiplicity = 1
  Basis Set: AUG-CC-PVTZ
    Blend: AUG-CC-PVTZ
  Basis Set: (AUG-CC-PVTZ AUX)
    Blend: AUG-CC-PVTZ-JKFIT

    Orbital Energies [Eh]
    ---------------------

    Doubly Occupied:

       1A    -15.642573     2A    -15.581949     3A    -15.581815
       4A    -15.578375     5A    -11.368176     6A    -11.310769
       7A    -11.308761     8A    -11.287182     9A    -11.254929
      10A    -11.251789    11A    -11.235183    12A    -11.217735
      13A     -1.387235    14A     -1.316043    15A     -1.209936
      16A     -1.130069    17A     -1.084575    18A     -1.045013
      19A     -0.959281    20A     -0.906884    21A     -0.898483
      22A     -0.799510    23A     -0.795882    24A     -0.713899
      25A     -0.708098    26A     -0.682996    27A     -0.639225
      28A     -0.632398    29A     -0.605455    30A     -0.589430
      31A     -0.584606    32A     -0.575961    33A     -0.564626
      34A     -0.553680    35A     -0.536480    36A     -0.493686
      37A     -0.455402    38A     -0.433440    39A     -0.419760
      40A     -0.407512    41A     -0.337981    42A     -0.332768

  @DF-RHF Final Energy:  -525.54370315081849

   => Energetics <=

    Nuclear Repulsion Energy =            658.8157315484338596
    One-Electron Energy =               -2019.8797768255992651
    Two-Electron Energy =                 835.5203421263469181
    Total Energy =                       -525.5437031508184873
  Basis Set: (AUG-CC-PVTZ AUX)
    Blend: AUG-CC-PVTZ-RI
    Molecular point group: c1

    Geometry (in Angstrom), charge = 0, multiplicity = 1:

       Center              X                  Y                   Z               Mass
    ------------   -----------------  -----------------  -----------------  -----------------
         N            0.821715498124    -0.260338505928    -0.037504580934    14.003074004430
         N            1.364162498124    -1.487689505928    -0.266583580934    14.003074004430
         N           -1.076166501876     1.026244494072    -0.453249580934    14.003074004430
         N           -1.263013501876    -1.204506505928     0.429602419066    14.003074004430
         C            1.765331498124     0.733794494072     0.134095419066    12.000000000000
         C            2.984230498124     0.091900494072     0.008479419066    12.000000000000
         C           -0.584734501876    -0.140830505928    -0.017974580934    12.000000000000
         C            1.459557498124     2.163390494072     0.438534419066    12.000000000000
         C            2.685006498124    -1.260595505928    -0.239442580934    12.000000000000
         C           -2.395994601876     1.117743094072    -0.426778980934    12.000000000000
         C           -2.598300501876    -1.078837505928     0.404109419066    12.000000000000
         C           -3.235846501876     0.085606494072    -0.020749580934    12.000000000000
         H            3.958477498124     0.553607494072     0.099798419066     1.007825032230
         H            1.018807498124     2.677390494072    -0.417589580934     1.007825032230
         H            0.760062498124     2.259011494072     1.273888419066     1.007825032230
         H            2.392046498124     2.663213494072     0.713898419066     1.007825032230
         H            3.361769498124    -2.088519505928    -0.409367580934     1.007825032230
         H           -2.824865501876     2.080204494072    -0.772826580934     1.007825032230
         H           -3.162820501876    -1.941431505928     0.753013419066     1.007825032230
         H           -4.317060501876     0.174538494072    -0.024307580934     1.007825032230

  Basis Set: AUG-CC-PVTZ
    Blend: AUG-CC-PVTZ
  Basis Set: (AUG-CC-PVTZ AUX)
    Blend: AUG-CC-PVTZ-JKFIT
	 Reference Energy          =    -525.5437031508184873 [Eh]
	 Singles Energy            =      -0.0000000000000000 [Eh]
	 Same-Spin Energy          =      -0.5774010068122113 [Eh]
	 Opposite-Spin Energy      =      -1.7381604793373606 [Eh]
	 Correlation Energy        =      -2.3155614861495719 [Eh]
	 Total Energy              =    -527.8592646369680779 [Eh]

	 ================> DF-SCS-MP2 Energies <==================
	-----------------------------------------------------------
	 SCS Same-Spin Scale       =       0.3333333333333333 [-]
	 SCS Opposite-Spin Scale   =       1.2000000000000000 [-]
	 SCS Same-Spin Energy      =      -0.1924670022707371 [Eh]
	 SCS Opposite-Spin Energy  =      -2.0857925752048327 [Eh]
	 SCS Correlation Energy    =      -2.2782595774755698 [Eh]
	 SCS Total Energy          =    -527.8219627282940110 [Eh]
	-----------------------------------------------------------

  Dipole Moment: [D]
     X:    -2.5300      Y:     2.5326      Z:     0.4468     Total:     3.6076

*** Psi4 exiting successfully. Buy a developer a beer!
