                               Psi4 1.3.2 release

  ==> Input File <==

--------------------------------------------------------------------------
#psi4
#
memory 32 gb

molecule  {
0 1
  N        0.8192741    -0.1614801    -0.0982637
  N        1.3585440    -1.5263750    -0.2734470
  N       -1.0817850     0.9875590    -0.4601130
  N       -1.2686320    -1.2431920     0.4227390
  C        1.7597130     0.6951090     0.1272320
  C        2.9786120     0.0532150     0.0016160
  C       -0.5903530    -0.1795160    -0.0248380
  C        1.4539390     2.1247050     0.4316710
  C        2.6793880    -1.2992810    -0.2463060
  C       -2.4210880     1.0928180    -0.4382200
  C       -2.6039190    -1.1175230     0.3972460
  C       -3.2414650     0.0469210    -0.0276130
  H        3.9528590     0.5149220     0.0929350
  H        1.0131890     2.6387050    -0.4244530
  H        0.7544440     2.2203260     1.2670250
  H        2.3864280     2.6245280     0.7070350
  H        3.3561510    -2.1272050    -0.4162310
  H       -2.8304840     2.0415190    -0.7796900
  H       -3.1684390    -1.9801170     0.7461500
  H       -4.3226790     0.1358530    -0.0311710
units angstrom
no_reorient  #important for SAPT in psi4, default
symmetry c1  #important for SAPT in psi4, default
}

set PROPERTIES_ORIGIN ["COM"]
properties('MP2/aug-cc-pvtz', properties = ['dipole'])
--------------------------------------------------------------------------

    Molecular point group: c1
  Charge       = 0
  Multiplicity = 1
  Basis Set: AUG-CC-PVTZ
    Blend: AUG-CC-PVTZ
  Basis Set: (AUG-CC-PVTZ AUX)
    Blend: AUG-CC-PVTZ-JKFIT

    Orbital Energies [Eh]
    ---------------------

    Doubly Occupied:

       1A    -15.635610     2A    -15.581824     3A    -15.579632
       4A    -15.579359     5A    -11.370128     6A    -11.310867
       7A    -11.309822     8A    -11.287503     9A    -11.261592
      10A    -11.252989    11A    -11.233439    12A    -11.210932
      13A     -1.374808    14A     -1.307350    15A     -1.206831
      16A     -1.135448    17A     -1.089707    18A     -1.039244
      19A     -0.958506    20A     -0.909836    21A     -0.901330
      22A     -0.800076    23A     -0.795024    24A     -0.714650
      25A     -0.703573    26A     -0.680860    27A     -0.640538
      28A     -0.631180    29A     -0.607554    30A     -0.595712
      31A     -0.583686    32A     -0.573903    33A     -0.549532
      34A     -0.545346    35A     -0.536598    36A     -0.494073
      37A     -0.449763    38A     -0.430327    39A     -0.419675
      40A     -0.411960    41A     -0.355315    42A     -0.319909

  @DF-RHF Final Energy:  -525.52348435808790

   => Energetics <=

    Nuclear Repulsion Energy =            658.3297257805055551
    One-Electron Energy =               -2018.9544027228066625
    Two-Electron Energy =                 835.1011925842130950
    Total Energy =                       -525.5234843580878987
  Basis Set: (AUG-CC-PVTZ AUX)
    Blend: AUG-CC-PVTZ-RI
    Molecular point group: c1

    Geometry (in Angstrom), charge = 0, multiplicity = 1:

       Center              X                  Y                   Z               Mass
    ------------   -----------------  -----------------  -----------------  -----------------
         N            0.826074605035    -0.135858254628    -0.086342419305    14.003074004430
         N            1.365344505035    -1.500753154628    -0.261525719305    14.003074004430
         N           -1.074984494965     1.013180845372    -0.448191719305    14.003074004430
         N           -1.261831494965    -1.217570154628     0.434660280695    14.003074004430
         C            1.766513505035     0.720730845372     0.139153280695    12.000000000000
         C            2.985412505035     0.078836845372     0.013537280695    12.000000000000
         C           -0.583552494965    -0.153894154628    -0.012916719305    12.000000000000
         C            1.460739505035     2.150326845372     0.443592280695    12.000000000000
         C            2.686188505035    -1.273659154628    -0.234384719305    12.000000000000
         C           -2.414287494965     1.118439845372    -0.426298719305    12.000000000000
         C           -2.597118494965    -1.091901154628     0.409167280695    12.000000000000
         C           -3.234664494965     0.072542845372    -0.015691719305    12.000000000000
         H            3.959659505035     0.540543845372     0.104856280695     1.007825032230
         H            1.019989505035     2.664326845372    -0.412531719305     1.007825032230
         H            0.761244505035     2.245947845372     1.278946280695     1.007825032230
         H            2.393228505035     2.650149845372     0.718956280695     1.007825032230
         H            3.362951505035    -2.101583154628    -0.404309719305     1.007825032230
         H           -2.823683494965     2.067140845372    -0.767768719305     1.007825032230
         H           -3.161638494965    -1.954495154628     0.758071280695     1.007825032230
         H           -4.315878494965     0.161474845372    -0.019249719305     1.007825032230

  Basis Set: AUG-CC-PVTZ
    Blend: AUG-CC-PVTZ
  Basis Set: (AUG-CC-PVTZ AUX)
    Blend: AUG-CC-PVTZ-JKFIT
	 Reference Energy          =    -525.5234843580878987 [Eh]
	 Singles Energy            =      -0.0000000000000000 [Eh]
	 Same-Spin Energy          =      -0.5776038657728033 [Eh]
	 Opposite-Spin Energy      =      -1.7403488179869036 [Eh]
	 Correlation Energy        =      -2.3179526837597066 [Eh]
	 Total Energy              =    -527.8414370418475983 [Eh]

	 ================> DF-SCS-MP2 Energies <==================
	-----------------------------------------------------------
	 SCS Same-Spin Scale       =       0.3333333333333333 [-]
	 SCS Opposite-Spin Scale   =       1.2000000000000000 [-]
	 SCS Same-Spin Energy      =      -0.1925346219242678 [Eh]
	 SCS Opposite-Spin Energy  =      -2.0884185815842842 [Eh]
	 SCS Correlation Energy    =      -2.2809532035085520 [Eh]
	 SCS Total Energy          =    -527.8044375615965009 [Eh]
	-----------------------------------------------------------

  Dipole Moment: [D]
     X:    -2.5960      Y:     2.4551      Z:     0.4560     Total:     3.6020

*** Psi4 exiting successfully. Buy a developer a beer!
