                               Psi4 1.3.2 release

  ==> Input File <==

--------------------------------------------------------------------------
#psi4
#
memory 32 gb

molecule  {
0 1
  N        0.8160970    -0.2990240    -0.0443680
  N        1.3585440    -1.5263750    -0.2734470
  N       -1.0817850     0.9875590    -0.4601130
  N       -1.2686320    -1.2431920     0.4227390
  C        1.7597130     0.6951090     0.1272320
  C        2.8023815     0.1460211     0.0197778
  C       -0.5903530    -0.1795160    -0.0248380
  C        1.4539390     2.1247050     0.4316710
  C        2.6793880    -1.2992810    -0.2463060
  C       -2.4210880     1.0928180    -0.4382200
  C       -2.6039190    -1.1175230     0.3972460
  C       -3.2414650     0.0469210    -0.0276130
  H        3.9528590     0.5149220     0.0929350
  H        1.0131890     2.6387050    -0.4244530
  H        0.7544440     2.2203260     1.2670250
  H        2.3864280     2.6245280     0.7070350
  H        3.3561510    -2.1272050    -0.4162310
  H       -2.8304840     2.0415190    -0.7796900
  H       -3.1684390    -1.9801170     0.7461500
  H       -4.3226790     0.1358530    -0.0311710
units angstrom
no_reorient  #important for SAPT in psi4, default
symmetry c1  #important for SAPT in psi4, default
}

set PROPERTIES_ORIGIN ["COM"]
properties('MP2/aug-cc-pvtz', properties = ['dipole'])
--------------------------------------------------------------------------

    Molecular point group: c1
  Charge       = 0
  Multiplicity = 1
  Basis Set: AUG-CC-PVTZ
    Blend: AUG-CC-PVTZ
  Basis Set: (AUG-CC-PVTZ AUX)
    Blend: AUG-CC-PVTZ-JKFIT

    Orbital Energies [Eh]
    ---------------------

    Doubly Occupied:

       1A    -15.628918     2A    -15.594610     3A    -15.577474
       4A    -15.573965     5A    -11.362947     6A    -11.308362
       7A    -11.306389     8A    -11.261645     9A    -11.253611
      10A    -11.248355    11A    -11.231091    12A    -11.211752
      13A     -1.391339    14A     -1.312259    15A     -1.202209
      16A     -1.126382    17A     -1.116008    18A     -1.042299
      19A     -0.961385    20A     -0.906633    21A     -0.887739
      22A     -0.811833    23A     -0.779900    24A     -0.718172
      25A     -0.705712    26A     -0.683361    27A     -0.642831
      28A     -0.629086    29A     -0.602974    30A     -0.589080
      31A     -0.586283    32A     -0.577474    33A     -0.557467
      34A     -0.552129    35A     -0.520448    36A     -0.488376
      37A     -0.450015    38A     -0.427523    39A     -0.416867
      40A     -0.407752    41A     -0.369221    42A     -0.329736

  @DF-RHF Final Energy:  -525.48321355364897

   => Energetics <=

    Nuclear Repulsion Energy =            662.3042307130043582
    One-Electron Energy =               -2026.8716685960691848
    Two-Electron Energy =                 839.0842243294159744
    Total Energy =                       -525.4832135536489659
  Basis Set: (AUG-CC-PVTZ AUX)
    Blend: AUG-CC-PVTZ-RI
    Molecular point group: c1

    Geometry (in Angstrom), charge = 0, multiplicity = 1:

       Center              X                  Y                   Z               Mass
    ------------   -----------------  -----------------  -----------------  -----------------
         N            0.836386535586    -0.268327253881    -0.038522919248    14.003074004430
         N            1.378833535586    -1.495678253881    -0.267601919248    14.003074004430
         N           -1.061495464414     1.018255746119    -0.454267919248    14.003074004430
         N           -1.248342464414    -1.212495253881     0.428584080752    14.003074004430
         C            1.780002535586     0.725805746119     0.133077080752    12.000000000000
         C            2.822671035586     0.176717846119     0.025622880752    12.000000000000
         C           -0.570063464414    -0.148819253881    -0.018992919248    12.000000000000
         C            1.474228535586     2.155401746119     0.437516080752    12.000000000000
         C            2.699677535586    -1.268584253881    -0.240460919248    12.000000000000
         C           -2.400798464414     1.123514746119    -0.432374919248    12.000000000000
         C           -2.583629464414    -1.086826253881     0.403091080752    12.000000000000
         C           -3.221175464414     0.077617746119    -0.021767919248    12.000000000000
         H            3.973148535586     0.545618746119     0.098780080752     1.007825032230
         H            1.033478535586     2.669401746119    -0.418607919248     1.007825032230
         H            0.774733535586     2.251022746119     1.272870080752     1.007825032230
         H            2.406717535586     2.655224746119     0.712880080752     1.007825032230
         H            3.376440535586    -2.096508253881    -0.410385919248     1.007825032230
         H           -2.810194464414     2.072215746119    -0.773844919248     1.007825032230
         H           -3.148149464414    -1.949420253881     0.751995080752     1.007825032230
         H           -4.302389464414     0.166549746119    -0.025325919248     1.007825032230

  Basis Set: AUG-CC-PVTZ
    Blend: AUG-CC-PVTZ
  Basis Set: (AUG-CC-PVTZ AUX)
    Blend: AUG-CC-PVTZ-JKFIT
	 Reference Energy          =    -525.4832135536489659 [Eh]
	 Singles Energy            =      -0.0000000000000000 [Eh]
	 Same-Spin Energy          =      -0.5756099993406045 [Eh]
	 Opposite-Spin Energy      =      -1.7371051800076074 [Eh]
	 Correlation Energy        =      -2.3127151793482117 [Eh]
	 Total Energy              =    -527.7959287329971403 [Eh]

	 ================> DF-SCS-MP2 Energies <==================
	-----------------------------------------------------------
	 SCS Same-Spin Scale       =       0.3333333333333333 [-]
	 SCS Opposite-Spin Scale   =       1.2000000000000000 [-]
	 SCS Same-Spin Energy      =      -0.1918699997802015 [Eh]
	 SCS Opposite-Spin Energy  =      -2.0845262160091287 [Eh]
	 SCS Correlation Energy    =      -2.2763962157893300 [Eh]
	 SCS Total Energy          =    -527.7596097694382706 [Eh]
	-----------------------------------------------------------

  Dipole Moment: [D]
     X:    -2.1054      Y:     2.3677      Z:     0.3983     Total:     3.1933

*** Psi4 exiting successfully. Buy a developer a beer!
