                               Psi4 1.4a3.dev225

  ==> Input File <==

--------------------------------------------------------------------------
#psi4
#
memory 32 gb

molecule  {
0 1
  N        0.8160970    -0.2990240    -0.0443680
  N        1.3585440    -1.5263750    -0.2734470
  N       -1.0817850     0.9875590    -0.4601130
  N       -1.2686320    -1.2431920     0.4227390
  C        1.7597130     0.6951090     0.1272320
  C        2.9786120     0.0532150     0.0016160
  C       -0.5903530    -0.1795160    -0.0248380
  C        1.4539390     2.1247050     0.4316710
  C        2.6793880    -1.2992810    -0.2463060
  C       -2.4210880     1.0928180    -0.4382200
  C       -2.6039190    -1.1175230     0.3972460
  C       -3.2643345     0.0886909    -0.0428532
  H        3.9528590     0.5149220     0.0929350
  H        1.0131890     2.6387050    -0.4244530
  H        0.7544440     2.2203260     1.2670250
  H        2.3864280     2.6245280     0.7070350
  H        3.3561510    -2.1272050    -0.4162310
  H       -2.8304840     2.0415190    -0.7796900
  H       -3.1684390    -1.9801170     0.7461500
  H       -4.3226790     0.1358530    -0.0311710
units angstrom
no_reorient  #important for SAPT in psi4, default
symmetry c1  #important for SAPT in psi4, default
}

set PROPERTIES_ORIGIN ["COM"]
properties('MP2/aug-cc-pvtz', properties = ['dipole'])
--------------------------------------------------------------------------

    Molecular point group: c1
  Charge       = 0
  Multiplicity = 1
  Basis Set: AUG-CC-PVTZ
    Blend: AUG-CC-PVTZ
  Basis Set: (AUG-CC-PVTZ AUX)
    Blend: AUG-CC-PVTZ-JKFIT

    Orbital Energies [Eh]
    ---------------------

    Doubly Occupied:

       1A    -15.642549     2A    -15.581817     3A    -15.580815
       4A    -15.580503     5A    -11.368407     6A    -11.317349
       7A    -11.306194     8A    -11.287020     9A    -11.254944
      10A    -11.253189    11A    -11.234530    12A    -11.217585
      13A     -1.386627    14A     -1.311655    15A     -1.205744
      16A     -1.128856    17A     -1.083738    18A     -1.044807
      19A     -0.958780    20A     -0.908059    21A     -0.896245
      22A     -0.799682    23A     -0.795584    24A     -0.710931
      25A     -0.708659    26A     -0.685465    27A     -0.640478
      28A     -0.635844    29A     -0.602536    30A     -0.590250
      31A     -0.585236    32A     -0.574424    33A     -0.564032
      34A     -0.552282    35A     -0.536158    36A     -0.493604
      37A     -0.455426    38A     -0.430807    39A     -0.419185
      40A     -0.406411    41A     -0.337932    42A     -0.332663

  @DF-RHF Final Energy:  -525.54071351252321

   => Energetics <=

    Nuclear Repulsion Energy =            657.7230790462105006
    One-Electron Energy =               -2017.7135775063720757
    Two-Electron Energy =                 834.4497849476384772
    Total Energy =                       -525.5407135125232116
  Basis Set: (AUG-CC-PVTZ AUX)
    Blend: AUG-CC-PVTZ-RI
    Molecular point group: c1

    Geometry (in Angstrom), charge = 0, multiplicity = 1:

       Center              X                  Y                   Z               Mass
    ------------   -----------------  -----------------  -----------------  -----------------
         N            0.824889842208    -0.264501329803    -0.036018941364    14.003074004430
         N            1.367336842208    -1.491852329803    -0.265097941364    14.003074004430
         N           -1.072992157792     1.022081670197    -0.451763941364    14.003074004430
         N           -1.259839157792    -1.208669329803     0.431088058636    14.003074004430
         C            1.768505842208     0.729631670197     0.135581058636    12.000000000000
         C            2.987404842208     0.087737670197     0.009965058636    12.000000000000
         C           -0.581560157792    -0.144993329803    -0.016488941364    12.000000000000
         C            1.462731842208     2.159227670197     0.440020058636    12.000000000000
         C            2.688180842208    -1.264758329803    -0.237956941364    12.000000000000
         C           -2.412295157792     1.127340670197    -0.429870941364    12.000000000000
         C           -2.595126157792    -1.083000329803     0.405595058636    12.000000000000
         C           -3.255541657792     0.123213570197    -0.034504141364    12.000000000000
         H            3.961651842208     0.549444670197     0.101284058636     1.007825032230
         H            1.021981842208     2.673227670197    -0.416103941364     1.007825032230
         H            0.763236842208     2.254848670197     1.275374058636     1.007825032230
         H            2.395220842208     2.659050670197     0.715384058636     1.007825032230
         H            3.364943842208    -2.092682329803    -0.407881941364     1.007825032230
         H           -2.821691157792     2.076041670197    -0.771340941364     1.007825032230
         H           -3.159646157792    -1.945594329803     0.754499058636     1.007825032230
         H           -4.313886157792     0.170375670197    -0.022821941364     1.007825032230

  Basis Set: AUG-CC-PVTZ
    Blend: AUG-CC-PVTZ
  Basis Set: (AUG-CC-PVTZ AUX)
    Blend: AUG-CC-PVTZ-JKFIT
	 Reference Energy          =    -525.5407135125232116 [Eh]
	 Singles Energy            =      -0.0000000000000000 [Eh]
	 Same-Spin Energy          =      -0.5773301500767706 [Eh]
	 Opposite-Spin Energy      =      -1.7386441260908598 [Eh]
	 Correlation Energy        =      -2.3159742761676303 [Eh]
	 Total Energy              =    -527.8566877886908060 [Eh]

	 ================> DF-SCS-MP2 Energies <==================
	-----------------------------------------------------------
	 SCS Same-Spin Scale       =       0.3333333333333333 [-]
	 SCS Opposite-Spin Scale   =       1.2000000000000000 [-]
	 SCS Same-Spin Energy      =      -0.1924433833589235 [Eh]
	 SCS Opposite-Spin Energy  =      -2.0863729513090319 [Eh]
	 SCS Correlation Energy    =      -2.2788163346679555 [Eh]
	 SCS Total Energy          =    -527.8195298471911201 [Eh]
	-----------------------------------------------------------

  Dipole Moment: [D]
     X:    -2.5682      Y:     2.4811      Z:     0.4689     Total:     3.6016

*** Psi4 exiting successfully. Buy a developer a beer!
