                               Psi4 1.3.2 release

  ==> Input File <==

--------------------------------------------------------------------------
#psi4
#
memory 32 gb

molecule  {
0 1
  N        0.8160970    -0.2990240    -0.0443680
  N        1.3585440    -1.5263750    -0.2734470
  N       -1.0817850     0.9875590    -0.4601130
  N       -1.2686320    -1.2431920     0.4227390
  C        1.7597130     0.6951090     0.1272320
  C        3.1206703     0.0156112    -0.0084528
  C       -0.5903530    -0.1795160    -0.0248380
  C        1.4539390     2.1247050     0.4316710
  C        2.6793880    -1.2992810    -0.2463060
  C       -2.4210880     1.0928180    -0.4382200
  C       -2.6039190    -1.1175230     0.3972460
  C       -3.2414650     0.0469210    -0.0276130
  H        3.9528590     0.5149220     0.0929350
  H        1.0131890     2.6387050    -0.4244530
  H        0.7544440     2.2203260     1.2670250
  H        2.3864280     2.6245280     0.7070350
  H        3.3561510    -2.1272050    -0.4162310
  H       -2.8304840     2.0415190    -0.7796900
  H       -3.1684390    -1.9801170     0.7461500
  H       -4.3226790     0.1358530    -0.0311710
units angstrom
no_reorient  #important for SAPT in psi4, default
symmetry c1  #important for SAPT in psi4, default
}

set PROPERTIES_ORIGIN ["COM"]
properties('MP2/aug-cc-pvtz', properties = ['dipole'])
--------------------------------------------------------------------------

    Molecular point group: c1
  Charge       = 0
  Multiplicity = 1
  Basis Set: AUG-CC-PVTZ
    Blend: AUG-CC-PVTZ
  Basis Set: (AUG-CC-PVTZ AUX)
    Blend: AUG-CC-PVTZ-JKFIT

    Orbital Energies [Eh]
    ---------------------

    Doubly Occupied:

       1A    -15.651360     2A    -15.585831     3A    -15.582010
       4A    -15.574555     5A    -11.370783     6A    -11.313826
       7A    -11.311791     8A    -11.305862     9A    -11.257057
      10A    -11.255676    11A    -11.236788    12A    -11.222838
      13A     -1.384997    14A     -1.312823    15A     -1.208857
      16A     -1.129914    17A     -1.074826    18A     -1.043144
      19A     -0.958036    20A     -0.911519    21A     -0.900700
      22A     -0.808936    23A     -0.795109    24A     -0.716138
      25A     -0.704755    26A     -0.684670    27A     -0.642677
      28A     -0.636614    29A     -0.617530    30A     -0.597504
      31A     -0.586901    32A     -0.577880    33A     -0.571198
      34A     -0.553216    35A     -0.507737    36A     -0.489818
      37A     -0.455387    38A     -0.432737    39A     -0.422722
      40A     -0.408456    41A     -0.342816    42A     -0.314971

  @DF-RHF Final Energy:  -525.51155659911865

   => Energetics <=

    Nuclear Repulsion Energy =            655.2443632454525186
    One-Electron Energy =               -2012.5899129294198246
    Two-Electron Energy =                 831.8339930848487711
    Total Energy =                       -525.5115565991186486
  Basis Set: (AUG-CC-PVTZ AUX)
    Blend: AUG-CC-PVTZ-RI
    Molecular point group: c1

    Geometry (in Angstrom), charge = 0, multiplicity = 1:

       Center              X                  Y                   Z               Mass
    ------------   -----------------  -----------------  -----------------  -----------------
         N            0.812526044723    -0.258551087622    -0.036406614894    14.003074004430
         N            1.354973044723    -1.485902087622    -0.265485614894    14.003074004430
         N           -1.085355955277     1.028031912378    -0.452151614894    14.003074004430
         N           -1.272202955277    -1.202719087622     0.430700385106    14.003074004430
         C            1.756142044723     0.735581912378     0.135193385106    12.000000000000
         C            3.117099344723     0.056084112378    -0.000491414894    12.000000000000
         C           -0.593923955277    -0.139043087622    -0.016876614894    12.000000000000
         C            1.450368044723     2.165177912378     0.439632385106    12.000000000000
         C            2.675817044723    -1.258808087622    -0.238344614894    12.000000000000
         C           -2.424658955277     1.133290912378    -0.430258614894    12.000000000000
         C           -2.607489955277    -1.077050087622     0.405207385106    12.000000000000
         C           -3.245035955277     0.087393912378    -0.019651614894    12.000000000000
         H            3.949288044723     0.555394912378     0.100896385106     1.007825032230
         H            1.009618044723     2.679177912378    -0.416491614894     1.007825032230
         H            0.750873044723     2.260798912378     1.274986385106     1.007825032230
         H            2.382857044723     2.665000912378     0.714996385106     1.007825032230
         H            3.352580044723    -2.086732087622    -0.408269614894     1.007825032230
         H           -2.834054955277     2.081991912378    -0.771728614894     1.007825032230
         H           -3.172009955277    -1.939644087622     0.754111385106     1.007825032230
         H           -4.326249955277     0.176325912378    -0.023209614894     1.007825032230

  Basis Set: AUG-CC-PVTZ
    Blend: AUG-CC-PVTZ
  Basis Set: (AUG-CC-PVTZ AUX)
    Blend: AUG-CC-PVTZ-JKFIT
	 Reference Energy          =    -525.5115565991186486 [Eh]
	 Singles Energy            =      -0.0000000000000000 [Eh]
	 Same-Spin Energy          =      -0.5790230393763248 [Eh]
	 Opposite-Spin Energy      =      -1.7417543986987514 [Eh]
	 Correlation Energy        =      -2.3207774380750763 [Eh]
	 Total Energy              =    -527.8323340371937320 [Eh]

	 ================> DF-SCS-MP2 Energies <==================
	-----------------------------------------------------------
	 SCS Same-Spin Scale       =       0.3333333333333333 [-]
	 SCS Opposite-Spin Scale   =       1.2000000000000000 [-]
	 SCS Same-Spin Energy      =      -0.1930076797921083 [Eh]
	 SCS Opposite-Spin Energy  =      -2.0901052784385015 [Eh]
	 SCS Correlation Energy    =      -2.2831129582306096 [Eh]
	 SCS Total Energy          =    -527.7946695573492661 [Eh]
	-----------------------------------------------------------

  Dipole Moment: [D]
     X:    -2.8882      Y:     2.6057      Z:     0.4535     Total:     3.9163

*** Psi4 exiting successfully. Buy a developer a beer!
