                               Psi4 1.3.2 release

  ==> Input File <==

--------------------------------------------------------------------------
#psi4
#
memory 32 gb

molecule  {
0 1
  N        0.8160970    -0.2990240    -0.0443680
  N        1.3585440    -1.5263750    -0.2734470
  N       -1.0817850     0.9875590    -0.4601130
  N       -1.2686320    -1.2431920     0.4227390
  C        1.8083078     0.7769686     0.1433579
  C        2.9786120     0.0532150     0.0016160
  C       -0.5903530    -0.1795160    -0.0248380
  C        1.4539390     2.1247050     0.4316710
  C        2.6793880    -1.2992810    -0.2463060
  C       -2.4210880     1.0928180    -0.4382200
  C       -2.6039190    -1.1175230     0.3972460
  C       -3.2414650     0.0469210    -0.0276130
  H        3.9528590     0.5149220     0.0929350
  H        1.0131890     2.6387050    -0.4244530
  H        0.7544440     2.2203260     1.2670250
  H        2.3864280     2.6245280     0.7070350
  H        3.3561510    -2.1272050    -0.4162310
  H       -2.8304840     2.0415190    -0.7796900
  H       -3.1684390    -1.9801170     0.7461500
  H       -4.3226790     0.1358530    -0.0311710
units angstrom
no_reorient  #important for SAPT in psi4, default
symmetry c1  #important for SAPT in psi4, default
}

set PROPERTIES_ORIGIN ["COM"]
properties('MP2/aug-cc-pvtz', properties = ['dipole'])
--------------------------------------------------------------------------

    Molecular point group: c1
  Charge       = 0
  Multiplicity = 1
  Basis Set: AUG-CC-PVTZ
    Blend: AUG-CC-PVTZ
  Basis Set: (AUG-CC-PVTZ AUX)
    Blend: AUG-CC-PVTZ-JKFIT

    Orbital Energies [Eh]
    ---------------------

    Doubly Occupied:

       1A    -15.636500     2A    -15.590213     3A    -15.578504
       4A    -15.574518     5A    -11.362690     6A    -11.308841
       7A    -11.306692     8A    -11.292802     9A    -11.255692
      10A    -11.249177    11A    -11.233261    12A    -11.224670
      13A     -1.372951    14A     -1.306930    15A     -1.202449
      16A     -1.123946    17A     -1.091343    18A     -1.041451
      19A     -0.968725    20A     -0.905934    21A     -0.888067
      22A     -0.797971    23A     -0.782731    24A     -0.713447
      25A     -0.706680    26A     -0.683162    27A     -0.633504
      28A     -0.630002    29A     -0.606672    30A     -0.590202
      31A     -0.588543    32A     -0.577392    33A     -0.568045
      34A     -0.549958    35A     -0.543397    36A     -0.486660
      37A     -0.455132    38A     -0.428013    39A     -0.417492
      40A     -0.406027    41A     -0.338322    42A     -0.326778

  @DF-RHF Final Energy:  -525.52838143709459

   => Energetics <=

    Nuclear Repulsion Energy =            656.7969749040724992
    One-Electron Energy =               -2015.9597450925300564
    Two-Electron Energy =                 833.6343887513630762
    Total Energy =                       -525.5283814370945947
  Basis Set: (AUG-CC-PVTZ AUX)
    Blend: AUG-CC-PVTZ-RI
    Molecular point group: c1

    Geometry (in Angstrom), charge = 0, multiplicity = 1:

       Center              X                  Y                   Z               Mass
    ------------   -----------------  -----------------  -----------------  -----------------
         N            0.819532527477    -0.267506650507    -0.038370298190    14.003074004430
         N            1.361979527477    -1.494857650507    -0.267449298190    14.003074004430
         N           -1.078349472523     1.019076349493    -0.454115298190    14.003074004430
         N           -1.265196472523    -1.211674650507     0.428736701810    14.003074004430
         C            1.811743327477     0.808485949493     0.149355601810    12.000000000000
         C            2.982047527477     0.084732349493     0.007613701810    12.000000000000
         C           -0.586917472523    -0.147998650507    -0.018840298190    12.000000000000
         C            1.457374527477     2.156222349493     0.437668701810    12.000000000000
         C            2.682823527477    -1.267763650507    -0.240308298190    12.000000000000
         C           -2.417652472523     1.124335349493    -0.432222298190    12.000000000000
         C           -2.600483472523    -1.086005650507     0.403243701810    12.000000000000
         C           -3.238029472523     0.078438349493    -0.021615298190    12.000000000000
         H            3.956294527477     0.546439349493     0.098932701810     1.007825032230
         H            1.016624527477     2.670222349493    -0.418455298190     1.007825032230
         H            0.757879527477     2.251843349493     1.273022701810     1.007825032230
         H            2.389863527477     2.656045349493     0.713032701810     1.007825032230
         H            3.359586527477    -2.095687650507    -0.410233298190     1.007825032230
         H           -2.827048472523     2.073036349493    -0.773692298190     1.007825032230
         H           -3.165003472523    -1.948599650507     0.752147701810     1.007825032230
         H           -4.319243472523     0.167370349493    -0.025173298190     1.007825032230

  Basis Set: AUG-CC-PVTZ
    Blend: AUG-CC-PVTZ
  Basis Set: (AUG-CC-PVTZ AUX)
    Blend: AUG-CC-PVTZ-JKFIT
	 Reference Energy          =    -525.5283814370945947 [Eh]
	 Singles Energy            =      -0.0000000000000000 [Eh]
	 Same-Spin Energy          =      -0.5791262265884609 [Eh]
	 Opposite-Spin Energy      =      -1.7417481375448340 [Eh]
	 Correlation Energy        =      -2.3208743641332950 [Eh]
	 Total Energy              =    -527.8492558012278550 [Eh]

	 ================> DF-SCS-MP2 Energies <==================
	-----------------------------------------------------------
	 SCS Same-Spin Scale       =       0.3333333333333333 [-]
	 SCS Opposite-Spin Scale   =       1.2000000000000000 [-]
	 SCS Same-Spin Energy      =      -0.1930420755294870 [Eh]
	 SCS Opposite-Spin Energy  =      -2.0900977650538008 [Eh]
	 SCS Correlation Energy    =      -2.2831398405832877 [Eh]
	 SCS Total Energy          =    -527.8115212776779117 [Eh]
	-----------------------------------------------------------

  Dipole Moment: [D]
     X:    -2.2734      Y:     2.6450      Z:     0.4622     Total:     3.5182

*** Psi4 exiting successfully. Buy a developer a beer!
