                               Psi4 1.4a3.dev225

  ==> Input File <==

--------------------------------------------------------------------------
#psi4
#
memory 32 gb

molecule  {
0 1
  N        0.8160970    -0.2990240    -0.0443680
  N        1.3585440    -1.5263750    -0.2734470
  N       -1.0817850     0.9875590    -0.4601130
  N       -1.2686320    -1.2431920     0.4227390
  C        1.7597130     0.6951090     0.1272320
  C        2.9786120     0.0532150     0.0016160
  C       -0.5903530    -0.1795160    -0.0248380
  C        1.4539390     2.1247050     0.4316710
  C        2.6596812    -1.3026692    -0.2467109
  C       -2.4210880     1.0928180    -0.4382200
  C       -2.6039190    -1.1175230     0.3972460
  C       -3.2414650     0.0469210    -0.0276130
  H        3.9528590     0.5149220     0.0929350
  H        1.0131890     2.6387050    -0.4244530
  H        0.7544440     2.2203260     1.2670250
  H        2.3864280     2.6245280     0.7070350
  H        3.3561510    -2.1272050    -0.4162310
  H       -2.8304840     2.0415190    -0.7796900
  H       -3.1684390    -1.9801170     0.7461500
  H       -4.3226790     0.1358530    -0.0311710
units angstrom
no_reorient  #important for SAPT in psi4, default
symmetry c1  #important for SAPT in psi4, default
}

set PROPERTIES_ORIGIN ["COM"]
properties('MP2/aug-cc-pvtz', properties = ['dipole'])
--------------------------------------------------------------------------

    Molecular point group: c1
  Charge       = 0
  Multiplicity = 1
  Basis Set: AUG-CC-PVTZ
    Blend: AUG-CC-PVTZ
  Basis Set: (AUG-CC-PVTZ AUX)
    Blend: AUG-CC-PVTZ-JKFIT

    Orbital Energies [Eh]
    ---------------------

    Doubly Occupied:

       1A    -15.640778     2A    -15.582003     3A    -15.580608
       4A    -15.578292     5A    -11.367062     6A    -11.311303
       7A    -11.309283     8A    -11.286982     9A    -11.254205
      10A    -11.252331    11A    -11.234682    12A    -11.217182
      13A     -1.388097    14A     -1.313300    15A     -1.205748
      16A     -1.132319    17A     -1.085007    18A     -1.044485
      19A     -0.959260    20A     -0.908943    21A     -0.895574
      22A     -0.798617    23A     -0.795637    24A     -0.713123
      25A     -0.707613    26A     -0.682540    27A     -0.638734
      28A     -0.633073    29A     -0.607188    30A     -0.589091
      31A     -0.586702    32A     -0.575093    33A     -0.564372
      34A     -0.553650    35A     -0.534556    36A     -0.491383
      37A     -0.455235    38A     -0.430339    39A     -0.420037
      40A     -0.408247    41A     -0.339200    42A     -0.333351

  @DF-RHF Final Energy:  -525.54497192672102

   => Energetics <=

    Nuclear Repulsion Energy =            658.6290217734315320
    One-Electron Energy =               -2019.5375399172712605
    Two-Electron Energy =                 835.3635462171187100
    Total Energy =                       -525.5449719267210185
  Basis Set: (AUG-CC-PVTZ AUX)
    Blend: AUG-CC-PVTZ-RI
    Molecular point group: c1

    Geometry (in Angstrom), charge = 0, multiplicity = 1:

       Center              X                  Y                   Z               Mass
    ------------   -----------------  -----------------  -----------------  -----------------
         N            0.824652750691    -0.261116056955    -0.037131068276    14.003074004430
         N            1.367099750691    -1.488467056955    -0.266210068276    14.003074004430
         N           -1.073229249309     1.025466943045    -0.452876068276    14.003074004430
         N           -1.260076249309    -1.205284056955     0.429975931724    14.003074004430
         C            1.768268750691     0.733016943045     0.134468931724    12.000000000000
         C            2.987167750691     0.091122943045     0.008852931724    12.000000000000
         C           -0.581797249309    -0.141608056955    -0.017601068276    12.000000000000
         C            1.462494750691     2.162612943045     0.438907931724    12.000000000000
         C            2.668236950691    -1.264761256955    -0.239473968276    12.000000000000
         C           -2.412532249309     1.130725943045    -0.430983068276    12.000000000000
         C           -2.595363249309    -1.079615056955     0.404482931724    12.000000000000
         C           -3.232909249309     0.084828943045    -0.020376068276    12.000000000000
         H            3.961414750691     0.552829943045     0.100171931724     1.007825032230
         H            1.021744750691     2.676612943045    -0.417216068276     1.007825032230
         H            0.762999750691     2.258233943045     1.274261931724     1.007825032230
         H            2.394983750691     2.662435943045     0.714271931724     1.007825032230
         H            3.364706750691    -2.089297056955    -0.408994068276     1.007825032230
         H           -2.821928249309     2.079426943045    -0.772453068276     1.007825032230
         H           -3.159883249309    -1.942209056955     0.753386931724     1.007825032230
         H           -4.314123249309     0.173760943045    -0.023934068276     1.007825032230

  Basis Set: AUG-CC-PVTZ
    Blend: AUG-CC-PVTZ
  Basis Set: (AUG-CC-PVTZ AUX)
    Blend: AUG-CC-PVTZ-JKFIT
	 Reference Energy          =    -525.5449719267210185 [Eh]
	 Singles Energy            =      -0.0000000000000000 [Eh]
	 Same-Spin Energy          =      -0.5769278108311583 [Eh]
	 Opposite-Spin Energy      =      -1.7375423194088127 [Eh]
	 Correlation Energy        =      -2.3144701302399708 [Eh]
	 Total Energy              =    -527.8594420569610293 [Eh]

	 ================> DF-SCS-MP2 Energies <==================
	-----------------------------------------------------------
	 SCS Same-Spin Scale       =       0.3333333333333333 [-]
	 SCS Opposite-Spin Scale   =       1.2000000000000000 [-]
	 SCS Same-Spin Energy      =      -0.1923092702770527 [Eh]
	 SCS Opposite-Spin Energy  =      -2.0850507832905749 [Eh]
	 SCS Correlation Energy    =      -2.2773600535676275 [Eh]
	 SCS Total Energy          =    -527.8223319802885953 [Eh]
	-----------------------------------------------------------

  Dipole Moment: [D]
     X:    -2.5439      Y:     2.5432      Z:     0.4371     Total:     3.6236

*** Psi4 exiting successfully. Buy a developer a beer!
