                               Psi4 1.3.2 release

  ==> Input File <==

--------------------------------------------------------------------------
#psi4
#
memory 32 gb

molecule  {
0 1
  N        0.8160970    -0.2990240    -0.0443680
  N        1.3627257    -1.5489597    -0.2778978
  N       -1.0817850     0.9875590    -0.4601130
  N       -1.2686320    -1.2431920     0.4227390
  C        1.7597130     0.6951090     0.1272320
  C        2.9786120     0.0532150     0.0016160
  C       -0.5903530    -0.1795160    -0.0248380
  C        1.4539390     2.1247050     0.4316710
  C        2.6793880    -1.2992810    -0.2463060
  C       -2.4210880     1.0928180    -0.4382200
  C       -2.6039190    -1.1175230     0.3972460
  C       -3.2414650     0.0469210    -0.0276130
  H        3.9528590     0.5149220     0.0929350
  H        1.0131890     2.6387050    -0.4244530
  H        0.7544440     2.2203260     1.2670250
  H        2.3864280     2.6245280     0.7070350
  H        3.3561510    -2.1272050    -0.4162310
  H       -2.8304840     2.0415190    -0.7796900
  H       -3.1684390    -1.9801170     0.7461500
  H       -4.3226790     0.1358530    -0.0311710
units angstrom
no_reorient  #important for SAPT in psi4, default
symmetry c1  #important for SAPT in psi4, default
}

set PROPERTIES_ORIGIN ["COM"]
properties('MP2/aug-cc-pvtz', properties = ['dipole'])
--------------------------------------------------------------------------

    Molecular point group: c1
  Charge       = 0
  Multiplicity = 1
  Basis Set: AUG-CC-PVTZ
    Blend: AUG-CC-PVTZ
  Basis Set: (AUG-CC-PVTZ AUX)
    Blend: AUG-CC-PVTZ-JKFIT

    Orbital Energies [Eh]
    ---------------------

    Doubly Occupied:

       1A    -15.640484     2A    -15.583798     3A    -15.581645
       4A    -15.577839     5A    -11.366688     6A    -11.311014
       7A    -11.308942     8A    -11.289416     9A    -11.256362
      10A    -11.252006    11A    -11.235749    12A    -11.217611
      13A     -1.379670    14A     -1.310156    15A     -1.205362
      16A     -1.129576    17A     -1.084443    18A     -1.043703
      19A     -0.960279    20A     -0.908458    21A     -0.895197
      22A     -0.798777    23A     -0.792906    24A     -0.713055
      25A     -0.706674    26A     -0.682422    27A     -0.636103
      28A     -0.632553    29A     -0.606783    30A     -0.588586
      31A     -0.585555    32A     -0.573999    33A     -0.564049
      34A     -0.551233    35A     -0.536571    36A     -0.491177
      37A     -0.457585    38A     -0.430054    39A     -0.419999
      40A     -0.408035    41A     -0.339035    42A     -0.332612

  @DF-RHF Final Energy:  -525.54222938334976

   => Energetics <=

    Nuclear Repulsion Energy =            657.5958699861917012
    One-Electron Energy =               -2017.5038769178561324
    Two-Electron Energy =                 834.3657775483146679
    Total Energy =                       -525.5422293833497633
  Basis Set: (AUG-CC-PVTZ AUX)
    Blend: AUG-CC-PVTZ-RI
    Molecular point group: c1

    Geometry (in Angstrom), charge = 0, multiplicity = 1:

       Center              X                  Y                   Z               Mass
    ------------   -----------------  -----------------  -----------------  -----------------
         N            0.822809624371    -0.259394382715    -0.036772073311    14.003074004430
         N            1.369438324371    -1.509330082715    -0.270301873311    14.003074004430
         N           -1.075072375629     1.027188617285    -0.452517073311    14.003074004430
         N           -1.261919375629    -1.203562382715     0.430334926689    14.003074004430
         C            1.766425624371     0.734738617285     0.134827926689    12.000000000000
         C            2.985324624371     0.092844617285     0.009211926689    12.000000000000
         C           -0.583640375629    -0.139886382715    -0.017242073311    12.000000000000
         C            1.460651624371     2.164334617285     0.439266926689    12.000000000000
         C            2.686100624371    -1.259651382715    -0.238710073311    12.000000000000
         C           -2.414375375629     1.132447617285    -0.430624073311    12.000000000000
         C           -2.597206375629    -1.077893382715     0.404841926689    12.000000000000
         C           -3.234752375629     0.086550617285    -0.020017073311    12.000000000000
         H            3.959571624371     0.554551617285     0.100530926689     1.007825032230
         H            1.019901624371     2.678334617285    -0.416857073311     1.007825032230
         H            0.761156624371     2.259955617285     1.274620926689     1.007825032230
         H            2.393140624371     2.664157617285     0.714630926689     1.007825032230
         H            3.362863624371    -2.087575382715    -0.408635073311     1.007825032230
         H           -2.823771375629     2.081148617285    -0.772094073311     1.007825032230
         H           -3.161726375629    -1.940487382715     0.753745926689     1.007825032230
         H           -4.315966375629     0.175482617285    -0.023575073311     1.007825032230

  Basis Set: AUG-CC-PVTZ
    Blend: AUG-CC-PVTZ
  Basis Set: (AUG-CC-PVTZ AUX)
    Blend: AUG-CC-PVTZ-JKFIT
	 Reference Energy          =    -525.5422293833497633 [Eh]
	 Singles Energy            =      -0.0000000000000000 [Eh]
	 Same-Spin Energy          =      -0.5775026877891298 [Eh]
	 Opposite-Spin Energy      =      -1.7391376506949938 [Eh]
	 Correlation Energy        =      -2.3166403384841239 [Eh]
	 Total Energy              =    -527.8588697218339121 [Eh]

	 ================> DF-SCS-MP2 Energies <==================
	-----------------------------------------------------------
	 SCS Same-Spin Scale       =       0.3333333333333333 [-]
	 SCS Opposite-Spin Scale   =       1.2000000000000000 [-]
	 SCS Same-Spin Energy      =      -0.1925008959297099 [Eh]
	 SCS Opposite-Spin Energy  =      -2.0869651808339924 [Eh]
	 SCS Correlation Energy    =      -2.2794660767637023 [Eh]
	 SCS Total Energy          =    -527.8216954601134603 [Eh]
	-----------------------------------------------------------

  Dipole Moment: [D]
     X:    -2.5242      Y:     2.5826      Z:     0.4460     Total:     3.6387

*** Psi4 exiting successfully. Buy a developer a beer!
