                               Psi4 1.3.2 release

  ==> Input File <==

--------------------------------------------------------------------------
#psi4
#
memory 32 gb

molecule  {
0 1
  N        0.8160970    -0.2990240    -0.0443680
  N        1.3585440    -1.5263750    -0.2734470
  N       -1.0817850     0.9875590    -0.4601130
  N       -1.2686320    -1.2431920     0.4227390
  C        1.7597130     0.6951090     0.1272320
  C        2.9786120     0.0532150     0.0016160
  C       -0.5903530    -0.1795160    -0.0248380
  C        1.4539390     2.1247050     0.4316710
  C        2.6793880    -1.2992810    -0.2463060
  C       -2.4210880     1.0928180    -0.4382200
  C       -2.6918999    -1.1554675     0.4141334
  C       -3.2414650     0.0469210    -0.0276130
  H        3.9528590     0.5149220     0.0929350
  H        1.0131890     2.6387050    -0.4244530
  H        0.7544440     2.2203260     1.2670250
  H        2.3864280     2.6245280     0.7070350
  H        3.3561510    -2.1272050    -0.4162310
  H       -2.8304840     2.0415190    -0.7796900
  H       -3.1684390    -1.9801170     0.7461500
  H       -4.3226790     0.1358530    -0.0311710
units angstrom
no_reorient  #important for SAPT in psi4, default
symmetry c1  #important for SAPT in psi4, default
}

set PROPERTIES_ORIGIN ["COM"]
properties('MP2/aug-cc-pvtz', properties = ['dipole'])
--------------------------------------------------------------------------

    Molecular point group: c1
  Charge       = 0
  Multiplicity = 1
  Basis Set: AUG-CC-PVTZ
    Blend: AUG-CC-PVTZ
  Basis Set: (AUG-CC-PVTZ AUX)
    Blend: AUG-CC-PVTZ-JKFIT

    Orbital Energies [Eh]
    ---------------------

    Doubly Occupied:

       1A    -15.640370     2A    -15.583957     3A    -15.580783
       4A    -15.579816     5A    -11.363909     6A    -11.314803
       7A    -11.313387     8A    -11.285284     9A    -11.257227
      10A    -11.252745    11A    -11.233951    12A    -11.215848
      13A     -1.383257    14A     -1.302885    15A     -1.188899
      16A     -1.127848    17A     -1.083379    18A     -1.044691
      19A     -0.957722    20A     -0.919044    21A     -0.890007
      22A     -0.801925    23A     -0.796005    24A     -0.712574
      25A     -0.702317    26A     -0.681220    27A     -0.643389
      28A     -0.632005    29A     -0.617597    30A     -0.592154
      31A     -0.585901    32A     -0.571124    33A     -0.562934
      34A     -0.550075    35A     -0.534502    36A     -0.482449
      37A     -0.453600    38A     -0.421126    39A     -0.416857
      40A     -0.408972    41A     -0.338157    42A     -0.330812

  @DF-RHF Final Energy:  -525.52715989803357

   => Energetics <=

    Nuclear Repulsion Energy =            656.2095411304925392
    One-Electron Energy =               -2014.7623839853645222
    Two-Electron Energy =                 833.0256829568382955
    Total Energy =                       -525.5271598980335739
  Basis Set: (AUG-CC-PVTZ AUX)
    Blend: AUG-CC-PVTZ-RI
    Molecular point group: c1

    Geometry (in Angstrom), charge = 0, multiplicity = 1:

       Center              X                  Y                   Z               Mass
    ------------   -----------------  -----------------  -----------------  -----------------
         N            0.829770912371    -0.258525547077    -0.038427383968    14.003074004430
         N            1.372217912371    -1.485876547077    -0.267506383968    14.003074004430
         N           -1.068111087629     1.028057452923    -0.454172383968    14.003074004430
         N           -1.254958087629    -1.202693547077     0.428679616032    14.003074004430
         C            1.773386912371     0.735607452923     0.133172616032    12.000000000000
         C            2.992285912371     0.093713452923     0.007556616032    12.000000000000
         C           -0.576679087629    -0.139017547077    -0.018897383968    12.000000000000
         C            1.467612912371     2.165203452923     0.437611616032    12.000000000000
         C            2.693061912371    -1.258782547077    -0.240365383968    12.000000000000
         C           -2.407414087629     1.133316452923    -0.432279383968    12.000000000000
         C           -2.678225987629    -1.114969047077     0.420074016032    12.000000000000
         C           -3.227791087629     0.087419452923    -0.021672383968    12.000000000000
         H            3.966532912371     0.555420452923     0.098875616032     1.007825032230
         H            1.026862912371     2.679203452923    -0.418512383968     1.007825032230
         H            0.768117912371     2.260824452923     1.272965616032     1.007825032230
         H            2.400101912371     2.665026452923     0.712975616032     1.007825032230
         H            3.369824912371    -2.086706547077    -0.410290383968     1.007825032230
         H           -2.816810087629     2.082017452923    -0.773749383968     1.007825032230
         H           -3.154765087629    -1.939618547077     0.752090616032     1.007825032230
         H           -4.309005087629     0.176351452923    -0.025230383968     1.007825032230

  Basis Set: AUG-CC-PVTZ
    Blend: AUG-CC-PVTZ
  Basis Set: (AUG-CC-PVTZ AUX)
    Blend: AUG-CC-PVTZ-JKFIT
	 Reference Energy          =    -525.5271598980335739 [Eh]
	 Singles Energy            =      -0.0000000000000000 [Eh]
	 Same-Spin Energy          =      -0.5785200110021442 [Eh]
	 Opposite-Spin Energy      =      -1.7415715795950046 [Eh]
	 Correlation Energy        =      -2.3200915905971486 [Eh]
	 Total Energy              =    -527.8472514886307181 [Eh]

	 ================> DF-SCS-MP2 Energies <==================
	-----------------------------------------------------------
	 SCS Same-Spin Scale       =       0.3333333333333333 [-]
	 SCS Opposite-Spin Scale   =       1.2000000000000000 [-]
	 SCS Same-Spin Energy      =      -0.1928400036673814 [Eh]
	 SCS Opposite-Spin Energy  =      -2.0898858955140054 [Eh]
	 SCS Correlation Energy    =      -2.2827258991813868 [Eh]
	 SCS Total Energy          =    -527.8098857972149744 [Eh]
	-----------------------------------------------------------

  Dipole Moment: [D]
     X:    -2.7447      Y:     2.5142      Z:     0.4554     Total:     3.7499

*** Psi4 exiting successfully. Buy a developer a beer!
