                               Psi4 1.3.2 release

  ==> Input File <==

--------------------------------------------------------------------------
#psi4
#
memory 32 gb

molecule  {
0 1
  N        0.8160970    -0.2990240    -0.0443680
  N        1.3776714    -1.6162301    -0.2911870
  N       -1.0817850     0.9875590    -0.4601130
  N       -1.2686320    -1.2431920     0.4227390
  C        1.7597130     0.6951090     0.1272320
  C        2.9786120     0.0532150     0.0016160
  C       -0.5903530    -0.1795160    -0.0248380
  C        1.4539390     2.1247050     0.4316710
  C        2.6793880    -1.2992810    -0.2463060
  C       -2.4210880     1.0928180    -0.4382200
  C       -2.6039190    -1.1175230     0.3972460
  C       -3.2414650     0.0469210    -0.0276130
  H        3.9528590     0.5149220     0.0929350
  H        1.0131890     2.6387050    -0.4244530
  H        0.7544440     2.2203260     1.2670250
  H        2.3864280     2.6245280     0.7070350
  H        3.3561510    -2.1272050    -0.4162310
  H       -2.8304840     2.0415190    -0.7796900
  H       -3.1684390    -1.9801170     0.7461500
  H       -4.3226790     0.1358530    -0.0311710
units angstrom
no_reorient  #important for SAPT in psi4, default
symmetry c1  #important for SAPT in psi4, default
}

set PROPERTIES_ORIGIN ["COM"]
properties('MP2/aug-cc-pvtz', properties = ['dipole'])
--------------------------------------------------------------------------

    Molecular point group: c1
  Charge       = 0
  Multiplicity = 1
  Basis Set: AUG-CC-PVTZ
    Blend: AUG-CC-PVTZ
  Basis Set: (AUG-CC-PVTZ AUX)
    Blend: AUG-CC-PVTZ-JKFIT

    Orbital Energies [Eh]
    ---------------------

    Doubly Occupied:

       1A    -15.635239     2A    -15.591162     3A    -15.579395
       4A    -15.575531     5A    -11.364519     6A    -11.309524
       7A    -11.307395     8A    -11.296739     9A    -11.261892
      10A    -11.250049    11A    -11.238571    12A    -11.218494
      13A     -1.363584    14A     -1.302264    15A     -1.203419
      16A     -1.130714    17A     -1.085047    18A     -1.040008
      19A     -0.964681    20A     -0.906651    21A     -0.891554
      22A     -0.796449    23A     -0.785095    24A     -0.713161
      25A     -0.704473    26A     -0.682074    27A     -0.630998
      28A     -0.630220    29A     -0.605833    30A     -0.588046
      31A     -0.582765    32A     -0.571056    33A     -0.560299
      34A     -0.546702    35A     -0.537825    36A     -0.490220
      37A     -0.464074    38A     -0.428719    39A     -0.419098
      40A     -0.409273    41A     -0.345146    42A     -0.329817

  @DF-RHF Final Energy:  -525.53383325587458

   => Energetics <=

    Nuclear Repulsion Energy =            655.6152830789505970
    One-Electron Energy =               -2013.6226898731995334
    Two-Electron Energy =                 832.4735735383743531
    Total Energy =                       -525.5338332558745833
  Basis Set: (AUG-CC-PVTZ AUX)
    Blend: AUG-CC-PVTZ-RI
    Molecular point group: c1

    Geometry (in Angstrom), charge = 0, multiplicity = 1:

       Center              X                  Y                   Z               Mass
    ------------   -----------------  -----------------  -----------------  -----------------
         N            0.821502200484    -0.253509684917    -0.035609557167    14.003074004430
         N            1.383076600484    -1.570715784917    -0.282428557167    14.003074004430
         N           -1.076379799516     1.033073315083    -0.451354557167    14.003074004430
         N           -1.263226799516    -1.197677684917     0.431497442833    14.003074004430
         C            1.765118200484     0.740623315083     0.135990442833    12.000000000000
         C            2.984017200484     0.098729315083     0.010374442833    12.000000000000
         C           -0.584947799516    -0.134001684917    -0.016079557167    12.000000000000
         C            1.459344200484     2.170219315083     0.440429442833    12.000000000000
         C            2.684793200484    -1.253766684917    -0.237547557167    12.000000000000
         C           -2.415682799516     1.138332315083    -0.429461557167    12.000000000000
         C           -2.598513799516    -1.072008684917     0.406004442833    12.000000000000
         C           -3.236059799516     0.092435315083    -0.018854557167    12.000000000000
         H            3.958264200484     0.560436315083     0.101693442833     1.007825032230
         H            1.018594200484     2.684219315083    -0.415694557167     1.007825032230
         H            0.759849200484     2.265840315083     1.275783442833     1.007825032230
         H            2.391833200484     2.670042315083     0.715793442833     1.007825032230
         H            3.361556200484    -2.081690684917    -0.407472557167     1.007825032230
         H           -2.825078799516     2.087033315083    -0.770931557167     1.007825032230
         H           -3.163033799516    -1.934602684917     0.754908442833     1.007825032230
         H           -4.317273799516     0.181367315083    -0.022412557167     1.007825032230

  Basis Set: AUG-CC-PVTZ
    Blend: AUG-CC-PVTZ
  Basis Set: (AUG-CC-PVTZ AUX)
    Blend: AUG-CC-PVTZ-JKFIT
	 Reference Energy          =    -525.5338332558745833 [Eh]
	 Singles Energy            =      -0.0000000000000000 [Eh]
	 Same-Spin Energy          =      -0.5774167724841799 [Eh]
	 Opposite-Spin Energy      =      -1.7407761075863051 [Eh]
	 Correlation Energy        =      -2.3181928800704847 [Eh]
	 Total Energy              =    -527.8520261359450387 [Eh]

	 ================> DF-SCS-MP2 Energies <==================
	-----------------------------------------------------------
	 SCS Same-Spin Scale       =       0.3333333333333333 [-]
	 SCS Opposite-Spin Scale   =       1.2000000000000000 [-]
	 SCS Same-Spin Energy      =      -0.1924722574947266 [Eh]
	 SCS Opposite-Spin Energy  =      -2.0889313291035658 [Eh]
	 SCS Correlation Energy    =      -2.2814035865982927 [Eh]
	 SCS Total Energy          =    -527.8152368424729275 [Eh]
	-----------------------------------------------------------

  Dipole Moment: [D]
     X:    -2.3677      Y:     2.6515      Z:     0.4609     Total:     3.5845

*** Psi4 exiting successfully. Buy a developer a beer!
