                               Psi4 1.3.2 release

  ==> Input File <==

--------------------------------------------------------------------------
#psi4
#
memory 32 gb

molecule  {
0 1
  N        0.8160970    -0.2990240    -0.0443680
  N        1.3585440    -1.5263750    -0.2734470
  N       -1.0817850     0.9875590    -0.4601130
  N       -1.2686320    -1.2431920     0.4227390
  C        1.7597130     0.6951090     0.1272320
  C        2.9786120     0.0532150     0.0016160
  C       -0.5903530    -0.1795160    -0.0248380
  C        1.4539390     2.1247050     0.4316710
  C        2.6793880    -1.2992810    -0.2463060
  C       -2.4210880     1.0928180    -0.4382200
  C       -2.6039190    -1.1175230     0.3972460
  C       -3.2414650     0.0469210    -0.0276130
  H        3.9528590     0.5149220     0.0929350
  H        1.0131890     2.6387050    -0.4244530
  H        0.7544440     2.2203260     1.2670250
  H        2.3864280     2.6245280     0.7070350
  H        3.2311425    -1.9742747    -0.3848432
  H       -2.8304840     2.0415190    -0.7796900
  H       -3.1684390    -1.9801170     0.7461500
  H       -4.3226790     0.1358530    -0.0311710
units angstrom
no_reorient  #important for SAPT in psi4, default
symmetry c1  #important for SAPT in psi4, default
}

set PROPERTIES_ORIGIN ["COM"]
properties('MP2/aug-cc-pvtz', properties = ['dipole'])
--------------------------------------------------------------------------

    Molecular point group: c1
  Charge       = 0
  Multiplicity = 1
  Basis Set: AUG-CC-PVTZ
    Blend: AUG-CC-PVTZ
  Basis Set: (AUG-CC-PVTZ AUX)
    Blend: AUG-CC-PVTZ-JKFIT

    Orbital Energies [Eh]
    ---------------------

    Doubly Occupied:

       1A    -15.641621     2A    -15.582234     3A    -15.581172
       4A    -15.578518     5A    -11.367091     6A    -11.311378
       7A    -11.309360     8A    -11.285830     9A    -11.252568
      10A    -11.234215    11A    -11.231606    12A    -11.216109
      13A     -1.385764    14A     -1.312323    15A     -1.205874
      16A     -1.132088    17A     -1.083734    18A     -1.047594
      19A     -0.958107    20A     -0.910219    21A     -0.905079
      22A     -0.826595    23A     -0.794989    24A     -0.715488
      25A     -0.707153    26A     -0.687287    27A     -0.645091
      28A     -0.635657    29A     -0.612946    30A     -0.595937
      31A     -0.587789    32A     -0.577711    33A     -0.563406
      34A     -0.552227    35A     -0.540625    36A     -0.491470
      37A     -0.455850    38A     -0.430369    39A     -0.420138
      40A     -0.407490    41A     -0.337935    42A     -0.331623

  @DF-RHF Final Energy:  -525.50750691704309

   => Energetics <=

    Nuclear Repulsion Energy =            659.5161596929957568
    One-Electron Energy =               -2021.1468143033696379
    Two-Electron Energy =                 836.1231476933306794
    Total Energy =                       -525.5075069170430879
  Basis Set: (AUG-CC-PVTZ AUX)
    Blend: AUG-CC-PVTZ-RI
    Molecular point group: c1

    Geometry (in Angstrom), charge = 0, multiplicity = 1:

       Center              X                  Y                   Z               Mass
    ------------   -----------------  -----------------  -----------------  -----------------
         N            0.823962480655    -0.262332896004    -0.037359037879    14.003074004430
         N            1.366409480655    -1.489683896004    -0.266438037879    14.003074004430
         N           -1.073919519345     1.024250103996    -0.453104037879    14.003074004430
         N           -1.260766519345    -1.206500896004     0.429747962121    14.003074004430
         C            1.767578480655     0.731800103996     0.134240962121    12.000000000000
         C            2.986477480655     0.089906103996     0.008624962121    12.000000000000
         C           -0.582487519345    -0.142824896004    -0.017829037879    12.000000000000
         C            1.461804480655     2.161396103996     0.438679962121    12.000000000000
         C            2.687253480655    -1.262589896004    -0.239297037879    12.000000000000
         C           -2.413222519345     1.129509103996    -0.431211037879    12.000000000000
         C           -2.596053519345    -1.080831896004     0.404254962121    12.000000000000
         C           -3.233599519345     0.083612103996    -0.020604037879    12.000000000000
         H            3.960724480655     0.551613103996     0.099943962121     1.007825032230
         H            1.021054480655     2.675396103996    -0.417444037879     1.007825032230
         H            0.762309480655     2.257017103996     1.274033962121     1.007825032230
         H            2.394293480655     2.661219103996     0.714043962121     1.007825032230
         H            3.239007980655    -1.937583596004    -0.377834237879     1.007825032230
         H           -2.822618519345     2.078210103996    -0.772681037879     1.007825032230
         H           -3.160573519345    -1.943425896004     0.753158962121     1.007825032230
         H           -4.314813519345     0.172544103996    -0.024162037879     1.007825032230

  Basis Set: AUG-CC-PVTZ
    Blend: AUG-CC-PVTZ
  Basis Set: (AUG-CC-PVTZ AUX)
    Blend: AUG-CC-PVTZ-JKFIT
	 Reference Energy          =    -525.5075069170430879 [Eh]
	 Singles Energy            =      -0.0000000000000000 [Eh]
	 Same-Spin Energy          =      -0.5774370864747045 [Eh]
	 Opposite-Spin Energy      =      -1.7382935283118741 [Eh]
	 Correlation Energy        =      -2.3157306147865784 [Eh]
	 Total Energy              =    -527.8232375318297045 [Eh]

	 ================> DF-SCS-MP2 Energies <==================
	-----------------------------------------------------------
	 SCS Same-Spin Scale       =       0.3333333333333333 [-]
	 SCS Opposite-Spin Scale   =       1.2000000000000000 [-]
	 SCS Same-Spin Energy      =      -0.1924790288249015 [Eh]
	 SCS Opposite-Spin Energy  =      -2.0859522339742487 [Eh]
	 SCS Correlation Energy    =      -2.2784312627991503 [Eh]
	 SCS Total Energy          =    -527.7859381798422191 [Eh]
	-----------------------------------------------------------

  Dipole Moment: [D]
     X:    -2.5735      Y:     2.5563      Z:     0.4399     Total:     3.6539

*** Psi4 exiting successfully. Buy a developer a beer!
