                               Psi4 1.3.2 release

  ==> Input File <==

--------------------------------------------------------------------------
#psi4
#
memory 32 gb

molecule  {
0 1
  N        0.8160970    -0.2990240    -0.0443680
  N        1.3896348    -1.6608326    -0.2987877
  N       -1.0817850     0.9875590    -0.4601130
  N       -1.2686320    -1.2431920     0.4227390
  C        1.7597130     0.6951090     0.1272320
  C        2.9786120     0.0532150     0.0016160
  C       -0.5903530    -0.1795160    -0.0248380
  C        1.4539390     2.1247050     0.4316710
  C        2.6793880    -1.2992810    -0.2463060
  C       -2.4210880     1.0928180    -0.4382200
  C       -2.6039190    -1.1175230     0.3972460
  C       -3.2414650     0.0469210    -0.0276130
  H        3.9528590     0.5149220     0.0929350
  H        1.0131890     2.6387050    -0.4244530
  H        0.7544440     2.2203260     1.2670250
  H        2.3864280     2.6245280     0.7070350
  H        3.3561510    -2.1272050    -0.4162310
  H       -2.8304840     2.0415190    -0.7796900
  H       -3.1684390    -1.9801170     0.7461500
  H       -4.3226790     0.1358530    -0.0311710
units angstrom
no_reorient  #important for SAPT in psi4, default
symmetry c1  #important for SAPT in psi4, default
}

set PROPERTIES_ORIGIN ["COM"]
properties('MP2/aug-cc-pvtz', properties = ['dipole'])
--------------------------------------------------------------------------

    Molecular point group: c1
  Charge       = 0
  Multiplicity = 1
  Basis Set: AUG-CC-PVTZ
    Blend: AUG-CC-PVTZ
  Basis Set: (AUG-CC-PVTZ AUX)
    Blend: AUG-CC-PVTZ-JKFIT

    Orbital Energies [Eh]
    ---------------------

    Doubly Occupied:

       1A    -15.631418     2A    -15.596348     3A    -15.577933
       4A    -15.574069     5A    -11.363025     6A    -11.308547
       7A    -11.306400     8A    -11.301045     9A    -11.265642
      10A    -11.248794    11A    -11.240184    12A    -11.219067
      13A     -1.355630    14A     -1.296592    15A     -1.202154
      16A     -1.131955    17A     -1.085328    18A     -1.037741
      19A     -0.967518    20A     -0.905452    21A     -0.889418
      22A     -0.795508    23A     -0.780057    24A     -0.713374
      25A     -0.703027    26A     -0.681751    27A     -0.629521
      28A     -0.627771    29A     -0.605276    30A     -0.587964
      31A     -0.581989    32A     -0.571056    33A     -0.554786
      34A     -0.543741    35A     -0.537708    36A     -0.490066
      37A     -0.467114    38A     -0.427839    39A     -0.418371
      40A     -0.410349    41A     -0.349262    42A     -0.327549

  @DF-RHF Final Energy:  -525.52553808336779

   => Energetics <=

    Nuclear Repulsion Energy =            654.3418997527408010
    One-Electron Energy =               -2011.1181973592551913
    Two-Electron Energy =                 831.2507595231465984
    Total Energy =                       -525.5255380833677918
  Basis Set: (AUG-CC-PVTZ AUX)
    Blend: AUG-CC-PVTZ-RI
    Molecular point group: c1

    Geometry (in Angstrom), charge = 0, multiplicity = 1:

       Center              X                  Y                   Z               Mass
    ------------   -----------------  -----------------  -----------------  -----------------
         N            0.820455663023    -0.249607935656    -0.034944661128    14.003074004430
         N            1.393993463023    -1.611416535656    -0.289364361128    14.003074004430
         N           -1.077426336977     1.036975064344    -0.450689661128    14.003074004430
         N           -1.264273336977    -1.193775935656     0.432162338872    14.003074004430
         C            1.764071663023     0.744525064344     0.136655338872    12.000000000000
         C            2.982970663023     0.102631064344     0.011039338872    12.000000000000
         C           -0.585994336977    -0.130099935656    -0.015414661128    12.000000000000
         C            1.458297663023     2.174121064344     0.441094338872    12.000000000000
         C            2.683746663023    -1.249864935656    -0.236882661128    12.000000000000
         C           -2.416729336977     1.142234064344    -0.428796661128    12.000000000000
         C           -2.599560336977    -1.068106935656     0.406669338872    12.000000000000
         C           -3.237106336977     0.096337064344    -0.018189661128    12.000000000000
         H            3.957217663023     0.564338064344     0.102358338872     1.007825032230
         H            1.017547663023     2.688121064344    -0.415029661128     1.007825032230
         H            0.758802663023     2.269742064344     1.276448338872     1.007825032230
         H            2.390786663023     2.673944064344     0.716458338872     1.007825032230
         H            3.360509663023    -2.077788935656    -0.406807661128     1.007825032230
         H           -2.826125336977     2.090935064344    -0.770266661128     1.007825032230
         H           -3.164080336977    -1.930700935656     0.755573338872     1.007825032230
         H           -4.318320336977     0.185269064344    -0.021747661128     1.007825032230

  Basis Set: AUG-CC-PVTZ
    Blend: AUG-CC-PVTZ
  Basis Set: (AUG-CC-PVTZ AUX)
    Blend: AUG-CC-PVTZ-JKFIT
	 Reference Energy          =    -525.5255380833677918 [Eh]
	 Singles Energy            =      -0.0000000000000000 [Eh]
	 Same-Spin Energy          =      -0.5774192274361623 [Eh]
	 Opposite-Spin Energy      =      -1.7419271069247144 [Eh]
	 Correlation Energy        =      -2.3193463343608767 [Eh]
	 Total Energy              =    -527.8448844177286219 [Eh]

	 ================> DF-SCS-MP2 Energies <==================
	-----------------------------------------------------------
	 SCS Same-Spin Scale       =       0.3333333333333333 [-]
	 SCS Opposite-Spin Scale   =       1.2000000000000000 [-]
	 SCS Same-Spin Energy      =      -0.1924730758120541 [Eh]
	 SCS Opposite-Spin Energy  =      -2.0903125283096573 [Eh]
	 SCS Correlation Energy    =      -2.2827856041217114 [Eh]
	 SCS Total Energy          =    -527.8083236874895192 [Eh]
	-----------------------------------------------------------

  Dipole Moment: [D]
     X:    -2.2727      Y:     2.6895      Z:     0.4679     Total:     3.5521

*** Psi4 exiting successfully. Buy a developer a beer!
