                               Psi4 1.3.2 release

  ==> Input File <==

--------------------------------------------------------------------------
#psi4
#
memory 32 gb

molecule  {
0 1
  N        0.8160970    -0.2990240    -0.0443680
  N        1.3585440    -1.5263750    -0.2734470
  N       -1.0817850     0.9875590    -0.4601130
  N       -1.2686320    -1.2431920     0.4227390
  C        1.8599956     0.5924418     0.1096533
  C        2.9786120     0.0532150     0.0016160
  C       -0.5903530    -0.1795160    -0.0248380
  C        1.4539390     2.1247050     0.4316710
  C        2.6793880    -1.2992810    -0.2463060
  C       -2.4210880     1.0928180    -0.4382200
  C       -2.6039190    -1.1175230     0.3972460
  C       -3.2414650     0.0469210    -0.0276130
  H        3.9528590     0.5149220     0.0929350
  H        1.0131890     2.6387050    -0.4244530
  H        0.7544440     2.2203260     1.2670250
  H        2.3864280     2.6245280     0.7070350
  H        3.3561510    -2.1272050    -0.4162310
  H       -2.8304840     2.0415190    -0.7796900
  H       -3.1684390    -1.9801170     0.7461500
  H       -4.3226790     0.1358530    -0.0311710
units angstrom
no_reorient  #important for SAPT in psi4, default
symmetry c1  #important for SAPT in psi4, default
}

set PROPERTIES_ORIGIN ["COM"]
properties('MP2/aug-cc-pvtz', properties = ['dipole'])
--------------------------------------------------------------------------

    Molecular point group: c1
  Charge       = 0
  Multiplicity = 1
  Basis Set: AUG-CC-PVTZ
    Blend: AUG-CC-PVTZ
  Basis Set: (AUG-CC-PVTZ AUX)
    Blend: AUG-CC-PVTZ-JKFIT

    Orbital Energies [Eh]
    ---------------------

    Doubly Occupied:

       1A    -15.633691     2A    -15.583688     3A    -15.580447
       4A    -15.578001     5A    -11.368948     6A    -11.310119
       7A    -11.308712     8A    -11.273164     9A    -11.256047
      10A    -11.251346    11A    -11.235041    12A    -11.205772
      13A     -1.389753    14A     -1.314445    15A     -1.204679
      16A     -1.130529    17A     -1.089966    18A     -1.050029
      19A     -0.945210    20A     -0.908344    21A     -0.897007
      22A     -0.806904    23A     -0.795967    24A     -0.716650
      25A     -0.706161    26A     -0.683255    27A     -0.639872
      28A     -0.638122    29A     -0.607084    30A     -0.599265
      31A     -0.583321    32A     -0.571627    33A     -0.553760
      34A     -0.549968    35A     -0.510237    36A     -0.491007
      37A     -0.453690    38A     -0.429319    39A     -0.419014
      40A     -0.412873    41A     -0.357386    42A     -0.334563

  @DF-RHF Final Energy:  -525.51662886338943

   => Energetics <=

    Nuclear Repulsion Energy =            658.8707591713030070
    One-Electron Energy =               -2020.0248155947479063
    Two-Electron Energy =                 835.6374275600554711
    Total Energy =                       -525.5166288633894283
  Basis Set: (AUG-CC-PVTZ AUX)
    Blend: AUG-CC-PVTZ-RI
    Molecular point group: c1

    Geometry (in Angstrom), charge = 0, multiplicity = 1:

       Center              X                  Y                   Z               Mass
    ------------   -----------------  -----------------  -----------------  -----------------
         N            0.815657756264    -0.253673615775    -0.035843635925    14.003074004430
         N            1.358104756264    -1.481024615775    -0.264922635925    14.003074004430
         N           -1.082224243736     1.032909384225    -0.451588635925    14.003074004430
         N           -1.269071243736    -1.197841615775     0.431263364075    14.003074004430
         C            1.859556356264     0.637792184225     0.118177664075    12.000000000000
         C            2.978172756264     0.098565384225     0.010140364075    12.000000000000
         C           -0.590792243736    -0.134165615775    -0.016313635925    12.000000000000
         C            1.453499756264     2.170055384225     0.440195364075    12.000000000000
         C            2.678948756264    -1.253930615775    -0.237781635925    12.000000000000
         C           -2.421527243736     1.138168384225    -0.429695635925    12.000000000000
         C           -2.604358243736    -1.072172615775     0.405770364075    12.000000000000
         C           -3.241904243736     0.092271384225    -0.019088635925    12.000000000000
         H            3.952419756264     0.560272384225     0.101459364075     1.007825032230
         H            1.012749756264     2.684055384225    -0.415928635925     1.007825032230
         H            0.754004756264     2.265676384225     1.275549364075     1.007825032230
         H            2.385988756264     2.669878384225     0.715559364075     1.007825032230
         H            3.355711756264    -2.081854615775    -0.407706635925     1.007825032230
         H           -2.830923243736     2.086869384225    -0.771165635925     1.007825032230
         H           -3.168878243736    -1.934766615775     0.754674364075     1.007825032230
         H           -4.323118243736     0.181203384225    -0.022646635925     1.007825032230

  Basis Set: AUG-CC-PVTZ
    Blend: AUG-CC-PVTZ
  Basis Set: (AUG-CC-PVTZ AUX)
    Blend: AUG-CC-PVTZ-JKFIT
	 Reference Energy          =    -525.5166288633894283 [Eh]
	 Singles Energy            =      -0.0000000000000000 [Eh]
	 Same-Spin Energy          =      -0.5754198699804797 [Eh]
	 Opposite-Spin Energy      =      -1.7366116259012054 [Eh]
	 Correlation Energy        =      -2.3120314958816852 [Eh]
	 Total Energy              =    -527.8286603592711117 [Eh]

	 ================> DF-SCS-MP2 Energies <==================
	-----------------------------------------------------------
	 SCS Same-Spin Scale       =       0.3333333333333333 [-]
	 SCS Opposite-Spin Scale   =       1.2000000000000000 [-]
	 SCS Same-Spin Energy      =      -0.1918066233268265 [Eh]
	 SCS Opposite-Spin Energy  =      -2.0839339510814465 [Eh]
	 SCS Correlation Energy    =      -2.2757405744082733 [Eh]
	 SCS Total Energy          =    -527.7923694377976744 [Eh]
	-----------------------------------------------------------

  Dipole Moment: [D]
     X:    -2.3180      Y:     2.4372      Z:     0.4060     Total:     3.3879

*** Psi4 exiting successfully. Buy a developer a beer!
