                               Psi4 1.4a3.dev225

  ==> Input File <==

--------------------------------------------------------------------------
#psi4
#
memory 32 gb

molecule  {
0 1
  N        0.8160970    -0.2990240    -0.0443680
  N        1.3585440    -1.5263750    -0.2734470
  N       -1.0817850     0.9875590    -0.4601130
  N       -1.2686320    -1.2431920     0.4227390
  C        1.7733751     0.7095025     0.1297165
  C        2.9786120     0.0532150     0.0016160
  C       -0.5903530    -0.1795160    -0.0248380
  C        1.4539390     2.1247050     0.4316710
  C        2.6793880    -1.2992810    -0.2463060
  C       -2.4210880     1.0928180    -0.4382200
  C       -2.6039190    -1.1175230     0.3972460
  C       -3.2414650     0.0469210    -0.0276130
  H        3.9528590     0.5149220     0.0929350
  H        1.0131890     2.6387050    -0.4244530
  H        0.7544440     2.2203260     1.2670250
  H        2.3864280     2.6245280     0.7070350
  H        3.3561510    -2.1272050    -0.4162310
  H       -2.8304840     2.0415190    -0.7796900
  H       -3.1684390    -1.9801170     0.7461500
  H       -4.3226790     0.1358530    -0.0311710
units angstrom
no_reorient  #important for SAPT in psi4, default
symmetry c1  #important for SAPT in psi4, default
}

set PROPERTIES_ORIGIN ["COM"]
properties('MP2/aug-cc-pvtz', properties = ['dipole'])
--------------------------------------------------------------------------

    Molecular point group: c1
  Charge       = 0
  Multiplicity = 1
  Basis Set: AUG-CC-PVTZ
    Blend: AUG-CC-PVTZ
  Basis Set: (AUG-CC-PVTZ AUX)
    Blend: AUG-CC-PVTZ-JKFIT

    Orbital Energies [Eh]
    ---------------------

    Doubly Occupied:

       1A    -15.640821     2A    -15.583511     3A    -15.581493
       4A    -15.577731     5A    -11.366440     6A    -11.310894
       7A    -11.308854     8A    -11.287521     9A    -11.254841
      10A    -11.251874    11A    -11.234402    12A    -11.218471
      13A     -1.383193    14A     -1.311351    15A     -1.205204
      16A     -1.128031    17A     -1.085183    18A     -1.044552
      19A     -0.960624    20A     -0.908366    21A     -0.894596
      22A     -0.799745    23A     -0.792676    24A     -0.712870
      25A     -0.707521    26A     -0.682758    27A     -0.636749
      28A     -0.632876    29A     -0.606844    30A     -0.588988
      31A     -0.586740    32A     -0.575312    33A     -0.563084
      34A     -0.552107    35A     -0.540065    36A     -0.490724
      37A     -0.455363    38A     -0.429930    39A     -0.419616
      40A     -0.407439    41A     -0.337077    42A     -0.333011

  @DF-RHF Final Energy:  -525.54237479305948

   => Energetics <=

    Nuclear Repulsion Energy =            657.9584547662784644
    One-Electron Energy =               -2018.2227617491826095
    Two-Electron Energy =                 834.7219321898446651
    Total Energy =                       -525.5423747930594800
  Basis Set: (AUG-CC-PVTZ AUX)
    Blend: AUG-CC-PVTZ-RI
    Molecular point group: c1

    Geometry (in Angstrom), charge = 0, multiplicity = 1:

       Center              X                  Y                   Z               Mass
    ------------   -----------------  -----------------  -----------------  -----------------
         N            0.822151254146    -0.262449060474    -0.037347671883    14.003074004430
         N            1.364598254146    -1.489800060474    -0.266426671883    14.003074004430
         N           -1.075730745854     1.024133939526    -0.453092671883    14.003074004430
         N           -1.262577745854    -1.206617060474     0.429759328117    14.003074004430
         C            1.779429354146     0.746077439526     0.136736828117    12.000000000000
         C            2.984666254146     0.089789939526     0.008636328117    12.000000000000
         C           -0.584298745854    -0.142941060474    -0.017817671883    12.000000000000
         C            1.459993254146     2.161279939526     0.438691328117    12.000000000000
         C            2.685442254146    -1.262706060474    -0.239285671883    12.000000000000
         C           -2.415033745854     1.129392939526    -0.431199671883    12.000000000000
         C           -2.597864745854    -1.080948060474     0.404266328117    12.000000000000
         C           -3.235410745854     0.083495939526    -0.020592671883    12.000000000000
         H            3.958913254146     0.551496939526     0.099955328117     1.007825032230
         H            1.019243254146     2.675279939526    -0.417432671883     1.007825032230
         H            0.760498254146     2.256900939526     1.274045328117     1.007825032230
         H            2.392482254146     2.661102939526     0.714055328117     1.007825032230
         H            3.362205254146    -2.090630060474    -0.409210671883     1.007825032230
         H           -2.824429745854     2.078093939526    -0.772669671883     1.007825032230
         H           -3.162384745854    -1.943542060474     0.753170328117     1.007825032230
         H           -4.316624745854     0.172427939526    -0.024150671883     1.007825032230

  Basis Set: AUG-CC-PVTZ
    Blend: AUG-CC-PVTZ
  Basis Set: (AUG-CC-PVTZ AUX)
    Blend: AUG-CC-PVTZ-JKFIT
	 Reference Energy          =    -525.5423747930594800 [Eh]
	 Singles Energy            =      -0.0000000000000000 [Eh]
	 Same-Spin Energy          =      -0.5777350949921065 [Eh]
	 Opposite-Spin Energy      =      -1.7390810511581929 [Eh]
	 Correlation Energy        =      -2.3168161461502992 [Eh]
	 Total Energy              =    -527.8591909392097250 [Eh]

	 ================> DF-SCS-MP2 Energies <==================
	-----------------------------------------------------------
	 SCS Same-Spin Scale       =       0.3333333333333333 [-]
	 SCS Opposite-Spin Scale   =       1.2000000000000000 [-]
	 SCS Same-Spin Energy      =      -0.1925783649973688 [Eh]
	 SCS Opposite-Spin Energy  =      -2.0868972613898316 [Eh]
	 SCS Correlation Energy    =      -2.2794756263872005 [Eh]
	 SCS Total Energy          =    -527.8218504194467187 [Eh]
	-----------------------------------------------------------

  Dipole Moment: [D]
     X:    -2.5053      Y:     2.5672      Z:     0.4429     Total:     3.6143

*** Psi4 exiting successfully. Buy a developer a beer!
