                               Psi4 1.3.2 release

  ==> Input File <==

--------------------------------------------------------------------------
#psi4
#
memory 32 gb

molecule  {
0 1
  N        0.8160970    -0.2990240    -0.0443680
  N        1.3585440    -1.5263750    -0.2734470
  N       -1.0817850     0.9875590    -0.4601130
  N       -1.2627106    -1.1118124     0.3735524
  C        1.7597130     0.6951090     0.1272320
  C        2.9786120     0.0532150     0.0016160
  C       -0.5903530    -0.1795160    -0.0248380
  C        1.4539390     2.1247050     0.4316710
  C        2.6793880    -1.2992810    -0.2463060
  C       -2.4210880     1.0928180    -0.4382200
  C       -2.6039190    -1.1175230     0.3972460
  C       -3.2414650     0.0469210    -0.0276130
  H        3.9528590     0.5149220     0.0929350
  H        1.0131890     2.6387050    -0.4244530
  H        0.7544440     2.2203260     1.2670250
  H        2.3864280     2.6245280     0.7070350
  H        3.3561510    -2.1272050    -0.4162310
  H       -2.8304840     2.0415190    -0.7796900
  H       -3.1684390    -1.9801170     0.7461500
  H       -4.3226790     0.1358530    -0.0311710
units angstrom
no_reorient  #important for SAPT in psi4, default
symmetry c1  #important for SAPT in psi4, default
}

set PROPERTIES_ORIGIN ["COM"]
properties('MP2/aug-cc-pvtz', properties = ['dipole'])
--------------------------------------------------------------------------

    Molecular point group: c1
  Charge       = 0
  Multiplicity = 1
  Basis Set: AUG-CC-PVTZ
    Blend: AUG-CC-PVTZ
  Basis Set: (AUG-CC-PVTZ AUX)
    Blend: AUG-CC-PVTZ-JKFIT

    Orbital Energies [Eh]
    ---------------------

    Doubly Occupied:

       1A    -15.635903     2A    -15.578708     3A    -15.576541
       4A    -15.558799     5A    -11.347745     6A    -11.314911
       7A    -11.309470     8A    -11.283308     9A    -11.255108
      10A    -11.251260    11A    -11.232442    12A    -11.213983
      13A     -1.390812    14A     -1.329073    15A     -1.207745
      16A     -1.130158    17A     -1.083890    18A     -1.048578
      19A     -0.956082    20A     -0.924579    21A     -0.891881
      22A     -0.803370    23A     -0.794471    24A     -0.724581
      25A     -0.709495    26A     -0.681600    27A     -0.642152
      28A     -0.635002    29A     -0.608953    30A     -0.597267
      31A     -0.588599    32A     -0.578996    33A     -0.561505
      34A     -0.551600    35A     -0.533249    36A     -0.483569
      37A     -0.451138    38A     -0.430884    39A     -0.409152
      40A     -0.407077    41A     -0.340222    42A     -0.329418

  @DF-RHF Final Energy:  -525.53144099636268

   => Energetics <=

    Nuclear Repulsion Energy =            661.9856757771209459
    One-Electron Energy =               -2026.2676770161197055
    Two-Electron Energy =                 838.7505602426361975
    Total Energy =                       -525.5314409963626758
  Basis Set: (AUG-CC-PVTZ AUX)
    Blend: AUG-CC-PVTZ-RI
    Molecular point group: c1

    Geometry (in Angstrom), charge = 0, multiplicity = 1:

       Center              X                  Y                   Z               Mass
    ------------   -----------------  -----------------  -----------------  -----------------
         N            0.822657438435    -0.272862912366    -0.032858663197    14.003074004430
         N            1.365104438435    -1.500213912366    -0.261937663197    14.003074004430
         N           -1.075224561565     1.013720087634    -0.448603663197    14.003074004430
         N           -1.256150161565    -1.085651312366     0.385061736803    14.003074004430
         C            1.766273438435     0.721270087634     0.138741336803    12.000000000000
         C            2.985172438435     0.079376087634     0.013125336803    12.000000000000
         C           -0.583792561565    -0.153354912366    -0.013328663197    12.000000000000
         C            1.460499438435     2.150866087634     0.443180336803    12.000000000000
         C            2.685948438435    -1.273119912366    -0.234796663197    12.000000000000
         C           -2.414527561565     1.118979087634    -0.426710663197    12.000000000000
         C           -2.597358561565    -1.091361912366     0.408755336803    12.000000000000
         C           -3.234904561565     0.073082087634    -0.016103663197    12.000000000000
         H            3.959419438435     0.541083087634     0.104444336803     1.007825032230
         H            1.019749438435     2.664866087634    -0.412943663197     1.007825032230
         H            0.761004438435     2.246487087634     1.278534336803     1.007825032230
         H            2.392988438435     2.650689087634     0.718544336803     1.007825032230
         H            3.362711438435    -2.101043912366    -0.404721663197     1.007825032230
         H           -2.823923561565     2.067680087634    -0.768180663197     1.007825032230
         H           -3.161878561565    -1.953955912366     0.757659336803     1.007825032230
         H           -4.316118561565     0.162014087634    -0.019661663197     1.007825032230

  Basis Set: AUG-CC-PVTZ
    Blend: AUG-CC-PVTZ
  Basis Set: (AUG-CC-PVTZ AUX)
    Blend: AUG-CC-PVTZ-JKFIT
	 Reference Energy          =    -525.5314409963626758 [Eh]
	 Singles Energy            =      -0.0000000000000000 [Eh]
	 Same-Spin Energy          =      -0.5770298518464761 [Eh]
	 Opposite-Spin Energy      =      -1.7360953846786924 [Eh]
	 Correlation Energy        =      -2.3131252365251687 [Eh]
	 Total Energy              =    -527.8445662328878143 [Eh]

	 ================> DF-SCS-MP2 Energies <==================
	-----------------------------------------------------------
	 SCS Same-Spin Scale       =       0.3333333333333333 [-]
	 SCS Opposite-Spin Scale   =       1.2000000000000000 [-]
	 SCS Same-Spin Energy      =      -0.1923432839488254 [Eh]
	 SCS Opposite-Spin Energy  =      -2.0833144616144308 [Eh]
	 SCS Correlation Energy    =      -2.2756577455632563 [Eh]
	 SCS Total Energy          =    -527.8070987419259836 [Eh]
	-----------------------------------------------------------

  Dipole Moment: [D]
     X:    -2.8617      Y:     2.3204      Z:     0.5443     Total:     3.7242

*** Psi4 exiting successfully. Buy a developer a beer!
