                               Psi4 1.3.2 release

  ==> Input File <==

--------------------------------------------------------------------------
#psi4
#
memory 32 gb

molecule  {
0 1
  N        0.8160970    -0.2990240    -0.0443680
  N        1.3585440    -1.5263750    -0.2734470
  N       -1.0817850     0.9875590    -0.4601130
  N       -1.2686320    -1.2431920     0.4227390
  C        1.7597130     0.6951090     0.1272320
  C        2.9786120     0.0532150     0.0016160
  C       -0.6105922    -0.1685811    -0.0289127
  C        1.4539390     2.1247050     0.4316710
  C        2.6793880    -1.2992810    -0.2463060
  C       -2.4210880     1.0928180    -0.4382200
  C       -2.6039190    -1.1175230     0.3972460
  C       -3.2414650     0.0469210    -0.0276130
  H        3.9528590     0.5149220     0.0929350
  H        1.0131890     2.6387050    -0.4244530
  H        0.7544440     2.2203260     1.2670250
  H        2.3864280     2.6245280     0.7070350
  H        3.3561510    -2.1272050    -0.4162310
  H       -2.8304840     2.0415190    -0.7796900
  H       -3.1684390    -1.9801170     0.7461500
  H       -4.3226790     0.1358530    -0.0311710
units angstrom
no_reorient  #important for SAPT in psi4, default
symmetry c1  #important for SAPT in psi4, default
}

set PROPERTIES_ORIGIN ["COM"]
properties('MP2/aug-cc-pvtz', properties = ['dipole'])
--------------------------------------------------------------------------

    Molecular point group: c1
  Charge       = 0
  Multiplicity = 1
  Basis Set: AUG-CC-PVTZ
    Blend: AUG-CC-PVTZ
  Basis Set: (AUG-CC-PVTZ AUX)
    Blend: AUG-CC-PVTZ-JKFIT

    Orbital Energies [Eh]
    ---------------------

    Doubly Occupied:

       1A    -15.639953     2A    -15.583618     3A    -15.580723
       4A    -15.579635     5A    -11.367403     6A    -11.313528
       7A    -11.311027     8A    -11.284272     9A    -11.254600
      10A    -11.252191    11A    -11.233859    12A    -11.215140
      13A     -1.383012    14A     -1.316866    15A     -1.211238
      16A     -1.125856    17A     -1.082676    18A     -1.044459
      19A     -0.957335    20A     -0.912341    21A     -0.895621
      22A     -0.798203    23A     -0.792434    24A     -0.715288
      25A     -0.707638    26A     -0.681351    27A     -0.636971
      28A     -0.633720    29A     -0.608160    30A     -0.587032
      31A     -0.586737    32A     -0.576303    33A     -0.562563
      34A     -0.552290    35A     -0.534542    36A     -0.492550
      37A     -0.453967    38A     -0.433169    39A     -0.423998
      40A     -0.406999    41A     -0.338585    42A     -0.330395

  @DF-RHF Final Energy:  -525.54321060466907

   => Energetics <=

    Nuclear Repulsion Energy =            658.2607083629550289
    One-Electron Energy =               -2018.8113439745254709
    Two-Electron Energy =                 835.0074250069013715
    Total Energy =                       -525.5432106046690706
  Basis Set: (AUG-CC-PVTZ AUX)
    Blend: AUG-CC-PVTZ-RI
    Molecular point group: c1

    Geometry (in Angstrom), charge = 0, multiplicity = 1:

       Center              X                  Y                   Z               Mass
    ------------   -----------------  -----------------  -----------------  -----------------
         N            0.824692662009    -0.262189786840    -0.036855962053    14.003074004430
         N            1.367139662009    -1.489540786840    -0.265934962053    14.003074004430
         N           -1.073189337991     1.024393213160    -0.452600962053    14.003074004430
         N           -1.260036337991    -1.206357786840     0.430251037947    14.003074004430
         C            1.768308662009     0.731943213160     0.134744037947    12.000000000000
         C            2.987207662009     0.090049213160     0.009128037947    12.000000000000
         C           -0.601996537991    -0.131746886840    -0.021400662053    12.000000000000
         C            1.462534662009     2.161539213160     0.439183037947    12.000000000000
         C            2.687983662009    -1.262446786840    -0.238793962053    12.000000000000
         C           -2.412492337991     1.129652213160    -0.430707962053    12.000000000000
         C           -2.595323337991    -1.080688786840     0.404758037947    12.000000000000
         C           -3.232869337991     0.083755213160    -0.020100962053    12.000000000000
         H            3.961454662009     0.551756213160     0.100447037947     1.007825032230
         H            1.021784662009     2.675539213160    -0.416940962053     1.007825032230
         H            0.763039662009     2.257160213160     1.274537037947     1.007825032230
         H            2.395023662009     2.661362213160     0.714547037947     1.007825032230
         H            3.364746662009    -2.090370786840    -0.408718962053     1.007825032230
         H           -2.821888337991     2.078353213160    -0.772177962053     1.007825032230
         H           -3.159843337991    -1.943282786840     0.753662037947     1.007825032230
         H           -4.314083337991     0.172687213160    -0.023658962053     1.007825032230

  Basis Set: AUG-CC-PVTZ
    Blend: AUG-CC-PVTZ
  Basis Set: (AUG-CC-PVTZ AUX)
    Blend: AUG-CC-PVTZ-JKFIT
	 Reference Energy          =    -525.5432106046690706 [Eh]
	 Singles Energy            =      -0.0000000000000000 [Eh]
	 Same-Spin Energy          =      -0.5775001319409638 [Eh]
	 Opposite-Spin Energy      =      -1.7384956587000064 [Eh]
	 Correlation Energy        =      -2.3159957906409705 [Eh]
	 Total Energy              =    -527.8592063953100251 [Eh]

	 ================> DF-SCS-MP2 Energies <==================
	-----------------------------------------------------------
	 SCS Same-Spin Scale       =       0.3333333333333333 [-]
	 SCS Opposite-Spin Scale   =       1.2000000000000000 [-]
	 SCS Same-Spin Energy      =      -0.1925000439803213 [Eh]
	 SCS Opposite-Spin Energy  =      -2.0861947904400076 [Eh]
	 SCS Correlation Energy    =      -2.2786948344203291 [Eh]
	 SCS Total Energy          =    -527.8219054390893916 [Eh]
	-----------------------------------------------------------

  Dipole Moment: [D]
     X:    -2.8036      Y:     2.5760      Z:     0.4355     Total:     3.8322

*** Psi4 exiting successfully. Buy a developer a beer!
