                               Psi4 1.3.2 release

  ==> Input File <==

--------------------------------------------------------------------------
#psi4
#
memory 32 gb

molecule  {
0 1
  N        0.8160970    -0.2990240    -0.0443680
  N        1.3585440    -1.5263750    -0.2734470
  N       -1.0857996     0.9436197    -0.4442168
  N       -1.2686320    -1.2431920     0.4227390
  C        1.7597130     0.6951090     0.1272320
  C        2.9786120     0.0532150     0.0016160
  C       -0.5903530    -0.1795160    -0.0248380
  C        1.4539390     2.1247050     0.4316710
  C        2.6793880    -1.2992810    -0.2463060
  C       -2.4210880     1.0928180    -0.4382200
  C       -2.6039190    -1.1175230     0.3972460
  C       -3.2414650     0.0469210    -0.0276130
  H        3.9528590     0.5149220     0.0929350
  H        1.0131890     2.6387050    -0.4244530
  H        0.7544440     2.2203260     1.2670250
  H        2.3864280     2.6245280     0.7070350
  H        3.3561510    -2.1272050    -0.4162310
  H       -2.8304840     2.0415190    -0.7796900
  H       -3.1684390    -1.9801170     0.7461500
  H       -4.3226790     0.1358530    -0.0311710
units angstrom
no_reorient  #important for SAPT in psi4, default
symmetry c1  #important for SAPT in psi4, default
}

set PROPERTIES_ORIGIN ["COM"]
properties('MP2/aug-cc-pvtz', properties = ['dipole'])
--------------------------------------------------------------------------

    Molecular point group: c1
  Charge       = 0
  Multiplicity = 1
  Basis Set: AUG-CC-PVTZ
    Blend: AUG-CC-PVTZ
  Basis Set: (AUG-CC-PVTZ AUX)
    Blend: AUG-CC-PVTZ-JKFIT

    Orbital Energies [Eh]
    ---------------------

    Doubly Occupied:

       1A    -15.640294     2A    -15.580590     3A    -15.576826
       4A    -15.576248     5A    -11.361248     6A    -11.312734
       7A    -11.308486     8A    -11.285785     9A    -11.253508
      10A    -11.253394    11A    -11.234726    12A    -11.216413
      13A     -1.387191    14A     -1.318274    15A     -1.206532
      16A     -1.129561    17A     -1.084065    18A     -1.046286
      19A     -0.958381    20A     -0.913815    21A     -0.895419
      22A     -0.801476    23A     -0.794715    24A     -0.717969
      25A     -0.706759    26A     -0.682471    27A     -0.639325
      28A     -0.633646    29A     -0.607753    30A     -0.592524
      31A     -0.587402    32A     -0.577046    33A     -0.563202
      34A     -0.552857    35A     -0.535103    36A     -0.488927
      37A     -0.453981    38A     -0.429635    39A     -0.417146
      40A     -0.408109    41A     -0.338843    42A     -0.331552

  @DF-RHF Final Energy:  -525.54416123824990

   => Energetics <=

    Nuclear Repulsion Energy =            659.3888817334113810
    One-Electron Energy =               -2021.0656493682381551
    Two-Electron Energy =                 836.1326063965768753
    Total Energy =                       -525.5441612382498988
  Basis Set: (AUG-CC-PVTZ AUX)
    Blend: AUG-CC-PVTZ-RI
    Molecular point group: c1

    Geometry (in Angstrom), charge = 0, multiplicity = 1:

       Center              X                  Y                   Z               Mass
    ------------   -----------------  -----------------  -----------------  -----------------
         N            0.823526622465    -0.257526319382    -0.038551993544    14.003074004430
         N            1.365973622465    -1.484877319382    -0.267630993544    14.003074004430
         N           -1.078369977535     0.985117380618    -0.438400793544    14.003074004430
         N           -1.261202377535    -1.201694319382     0.428555006456    14.003074004430
         C            1.767142622465     0.736606680618     0.133048006456    12.000000000000
         C            2.986041622465     0.094712680618     0.007432006456    12.000000000000
         C           -0.582923377535    -0.138018319382    -0.019021993544    12.000000000000
         C            1.461368622465     2.166202680618     0.437487006456    12.000000000000
         C            2.686817622465    -1.257783319382    -0.240489993544    12.000000000000
         C           -2.413658377535     1.134315680618    -0.432403993544    12.000000000000
         C           -2.596489377535    -1.076025319382     0.403062006456    12.000000000000
         C           -3.234035377535     0.088418680618    -0.021796993544    12.000000000000
         H            3.960288622465     0.556419680618     0.098751006456     1.007825032230
         H            1.020618622465     2.680202680618    -0.418636993544     1.007825032230
         H            0.761873622465     2.261823680618     1.272841006456     1.007825032230
         H            2.393857622465     2.666025680618     0.712851006456     1.007825032230
         H            3.363580622465    -2.085707319382    -0.410414993544     1.007825032230
         H           -2.823054377535     2.083016680618    -0.773873993544     1.007825032230
         H           -3.161009377535    -1.938619319382     0.751966006456     1.007825032230
         H           -4.315249377535     0.177350680618    -0.025354993544     1.007825032230

  Basis Set: AUG-CC-PVTZ
    Blend: AUG-CC-PVTZ
  Basis Set: (AUG-CC-PVTZ AUX)
    Blend: AUG-CC-PVTZ-JKFIT
	 Reference Energy          =    -525.5441612382498988 [Eh]
	 Singles Energy            =      -0.0000000000000000 [Eh]
	 Same-Spin Energy          =      -0.5772598057249219 [Eh]
	 Opposite-Spin Energy      =      -1.7374887454090642 [Eh]
	 Correlation Energy        =      -2.3147485511339863 [Eh]
	 Total Energy              =    -527.8589097893839153 [Eh]

	 ================> DF-SCS-MP2 Energies <==================
	-----------------------------------------------------------
	 SCS Same-Spin Scale       =       0.3333333333333333 [-]
	 SCS Opposite-Spin Scale   =       1.2000000000000000 [-]
	 SCS Same-Spin Energy      =      -0.1924199352416406 [Eh]
	 SCS Opposite-Spin Energy  =      -2.0849864944908769 [Eh]
	 SCS Correlation Energy    =      -2.2774064297325176 [Eh]
	 SCS Total Energy          =    -527.8215676679824355 [Eh]
	-----------------------------------------------------------

  Dipole Moment: [D]
     X:    -2.6450      Y:     2.6428      Z:     0.4101     Total:     3.7615

*** Psi4 exiting successfully. Buy a developer a beer!
