                               Psi4 1.4a3.dev225

  ==> Input File <==

--------------------------------------------------------------------------
#psi4
#
memory 32 gb

molecule  {
0 1
  N        0.8160970    -0.2990240    -0.0443680
  N        1.3585440    -1.5263750    -0.2734470
  N       -1.0817850     0.9875590    -0.4601130
  N       -1.2686320    -1.2431920     0.4227390
  C        1.7597130     0.6951090     0.1272320
  C        2.9786120     0.0532150     0.0016160
  C       -0.5903530    -0.1795160    -0.0248380
  C        1.4539390     2.1247050     0.4316710
  C        2.6793880    -1.2992810    -0.2463060
  C       -2.4210880     1.0928180    -0.4382200
  C       -2.6039190    -1.1175230     0.3972460
  C       -3.2506128     0.0636290    -0.0337091
  H        3.9528590     0.5149220     0.0929350
  H        1.0131890     2.6387050    -0.4244530
  H        0.7544440     2.2203260     1.2670250
  H        2.3864280     2.6245280     0.7070350
  H        3.3561510    -2.1272050    -0.4162310
  H       -2.8304840     2.0415190    -0.7796900
  H       -3.1684390    -1.9801170     0.7461500
  H       -4.3226790     0.1358530    -0.0311710
units angstrom
no_reorient  #important for SAPT in psi4, default
symmetry c1  #important for SAPT in psi4, default
}

set PROPERTIES_ORIGIN ["COM"]
properties('MP2/aug-cc-pvtz', properties = ['dipole'])
--------------------------------------------------------------------------

    Molecular point group: c1
  Charge       = 0
  Multiplicity = 1
  Basis Set: AUG-CC-PVTZ
    Blend: AUG-CC-PVTZ
  Basis Set: (AUG-CC-PVTZ AUX)
    Blend: AUG-CC-PVTZ-JKFIT

    Orbital Energies [Eh]
    ---------------------

    Doubly Occupied:

       1A    -15.642284     2A    -15.581642     3A    -15.581598
       4A    -15.579541     5A    -11.367792     6A    -11.312768
       7A    -11.309367     8A    -11.286847     9A    -11.254692
      10A    -11.252902    11A    -11.234628    12A    -11.217415
      13A     -1.386440    14A     -1.312179    15A     -1.205896
      16A     -1.129156    17A     -1.083995    18A     -1.044857
      19A     -0.958781    20A     -0.908294    21A     -0.896800
      22A     -0.799943    23A     -0.795373    24A     -0.712247
      25A     -0.707761    26A     -0.683687    27A     -0.638700
      28A     -0.634741    29A     -0.605364    30A     -0.589830
      31A     -0.586263    32A     -0.574848    33A     -0.564015
      34A     -0.552516    35A     -0.536015    36A     -0.492587
      37A     -0.455224    38A     -0.430488    39A     -0.419859
      40A     -0.407228    41A     -0.337983    42A     -0.332485

  @DF-RHF Final Energy:  -525.54316342803338

   => Energetics <=

    Nuclear Repulsion Energy =            658.0511235586418479
    One-Electron Energy =               -2018.3785095538521546
    Two-Electron Energy =                 834.7842225671769256
    Total Energy =                       -525.5431634280333810
  Basis Set: (AUG-CC-PVTZ AUX)
    Blend: AUG-CC-PVTZ-RI
    Molecular point group: c1

    Geometry (in Angstrom), charge = 0, multiplicity = 1:

       Center              X                  Y                   Z               Mass
    ------------   -----------------  -----------------  -----------------  -----------------
         N            0.823861196219    -0.262622566755    -0.036704427987    14.003074004430
         N            1.366308196219    -1.489973566755    -0.265783427987    14.003074004430
         N           -1.074020803781     1.023960433245    -0.452449427987    14.003074004430
         N           -1.260867803781    -1.206790566755     0.430402572013    14.003074004430
         C            1.767477196219     0.731510433245     0.134895572013    12.000000000000
         C            2.986376196219     0.089616433245     0.009279572013    12.000000000000
         C           -0.582588803781    -0.143114566755    -0.017174427987    12.000000000000
         C            1.461703196219     2.161106433245     0.439334572013    12.000000000000
         C            2.687152196219    -1.262879566755    -0.238642427987    12.000000000000
         C           -2.413323803781     1.129219433245    -0.430556427987    12.000000000000
         C           -2.596154803781    -1.081121566755     0.404909572013    12.000000000000
         C           -3.242848603781     0.100030433245    -0.026045527987    12.000000000000
         H            3.960623196219     0.551323433245     0.100598572013     1.007825032230
         H            1.020953196219     2.675106433245    -0.416789427987     1.007825032230
         H            0.762208196219     2.256727433245     1.274688572013     1.007825032230
         H            2.394192196219     2.660929433245     0.714698572013     1.007825032230
         H            3.363915196219    -2.090803566755    -0.408567427987     1.007825032230
         H           -2.822719803781     2.077920433245    -0.772026427987     1.007825032230
         H           -3.160674803781    -1.943715566755     0.753813572013     1.007825032230
         H           -4.314914803781     0.172254433245    -0.023507427987     1.007825032230

  Basis Set: AUG-CC-PVTZ
    Blend: AUG-CC-PVTZ
  Basis Set: (AUG-CC-PVTZ AUX)
    Blend: AUG-CC-PVTZ-JKFIT
	 Reference Energy          =    -525.5431634280333810 [Eh]
	 Singles Energy            =      -0.0000000000000000 [Eh]
	 Same-Spin Energy          =      -0.5774727457133790 [Eh]
	 Opposite-Spin Energy      =      -1.7386087695677124 [Eh]
	 Correlation Energy        =      -2.3160815152810912 [Eh]
	 Total Energy              =    -527.8592449433144793 [Eh]

	 ================> DF-SCS-MP2 Energies <==================
	-----------------------------------------------------------
	 SCS Same-Spin Scale       =       0.3333333333333333 [-]
	 SCS Opposite-Spin Scale   =       1.2000000000000000 [-]
	 SCS Same-Spin Energy      =      -0.1924909152377930 [Eh]
	 SCS Opposite-Spin Energy  =      -2.0863305234812546 [Eh]
	 SCS Correlation Energy    =      -2.2788214387190475 [Eh]
	 SCS Total Energy          =    -527.8219848667524730 [Eh]
	-----------------------------------------------------------

  Dipole Moment: [D]
     X:    -2.5764      Y:     2.5256      Z:     0.4515     Total:     3.6359

*** Psi4 exiting successfully. Buy a developer a beer!
