                               Psi4 1.3.2 release

  ==> Input File <==

--------------------------------------------------------------------------
#psi4
#
memory 32 gb

molecule  {
0 1
  N        0.8160970    -0.2990240    -0.0443680
  N        1.3585440    -1.5263750    -0.2734470
  N       -1.0817850     0.9875590    -0.4601130
  N       -1.2686320    -1.2431920     0.4227390
  C        1.7597130     0.6951090     0.1272320
  C        2.9786120     0.0532150     0.0016160
  C       -0.5903530    -0.1795160    -0.0248380
  C        1.4539390     2.1247050     0.4316710
  C        2.7779218    -1.2823400    -0.2442813
  C       -2.4210880     1.0928180    -0.4382200
  C       -2.6039190    -1.1175230     0.3972460
  C       -3.2414650     0.0469210    -0.0276130
  H        3.9528590     0.5149220     0.0929350
  H        1.0131890     2.6387050    -0.4244530
  H        0.7544440     2.2203260     1.2670250
  H        2.3864280     2.6245280     0.7070350
  H        3.3561510    -2.1272050    -0.4162310
  H       -2.8304840     2.0415190    -0.7796900
  H       -3.1684390    -1.9801170     0.7461500
  H       -4.3226790     0.1358530    -0.0311710
units angstrom
no_reorient  #important for SAPT in psi4, default
symmetry c1  #important for SAPT in psi4, default
}

set PROPERTIES_ORIGIN ["COM"]
properties('MP2/aug-cc-pvtz', properties = ['dipole'])
--------------------------------------------------------------------------

    Molecular point group: c1
  Charge       = 0
  Multiplicity = 1
  Basis Set: AUG-CC-PVTZ
    Blend: AUG-CC-PVTZ
  Basis Set: (AUG-CC-PVTZ AUX)
    Blend: AUG-CC-PVTZ-JKFIT

    Orbital Energies [Eh]
    ---------------------

    Doubly Occupied:

       1A    -15.649254     2A    -15.584634     3A    -15.584351
       4A    -15.580617     5A    -11.369167     6A    -11.312739
       7A    -11.310598     8A    -11.285239     9A    -11.255999
      10A    -11.254600    11A    -11.234707    12A    -11.218527
      13A     -1.380290    14A     -1.309391    15A     -1.207588
      16A     -1.119399    17A     -1.078986    18A     -1.047359
      19A     -0.956383    20A     -0.909780    21A     -0.901418
      22A     -0.808074    23A     -0.793255    24A     -0.713951
      25A     -0.706517    26A     -0.683503    27A     -0.637121
      28A     -0.634235    29A     -0.607494    30A     -0.592504
      31A     -0.587410    32A     -0.577704    33A     -0.557869
      34A     -0.548630    35A     -0.542648    36A     -0.493114
      37A     -0.448829    38A     -0.431375    39A     -0.420434
      40A     -0.406804    41A     -0.343159    42A     -0.317274

  @DF-RHF Final Energy:  -525.52377753922974

   => Energetics <=

    Nuclear Repulsion Energy =            656.5915548921699383
    One-Electron Energy =               -2015.4248048835656846
    Two-Electron Energy =                 833.3094724521661192
    Total Energy =                       -525.5237775392297408
  Basis Set: (AUG-CC-PVTZ AUX)
    Blend: AUG-CC-PVTZ-RI
    Molecular point group: c1

    Geometry (in Angstrom), charge = 0, multiplicity = 1:

       Center              X                  Y                   Z               Mass
    ------------   -----------------  -----------------  -----------------  -----------------
         N            0.815788854896    -0.262640033579    -0.037313203018    14.003074004430
         N            1.358235854896    -1.489991033579    -0.266392203018    14.003074004430
         N           -1.082093145104     1.023942966421    -0.453058203018    14.003074004430
         N           -1.268940145104    -1.206808033579     0.429793796982    14.003074004430
         C            1.759404854896     0.731492966421     0.134286796982    12.000000000000
         C            2.978303854896     0.089598966421     0.008670796982    12.000000000000
         C           -0.590661145104    -0.143132033579    -0.017783203018    12.000000000000
         C            1.453630854896     2.161088966421     0.438725796982    12.000000000000
         C            2.777613654896    -1.245956033579    -0.237226503018    12.000000000000
         C           -2.421396145104     1.129201966421    -0.431165203018    12.000000000000
         C           -2.604227145104    -1.081139033579     0.404300796982    12.000000000000
         C           -3.241773145104     0.083304966421    -0.020558203018    12.000000000000
         H            3.952550854896     0.551305966421     0.099989796982     1.007825032230
         H            1.012880854896     2.675088966421    -0.417398203018     1.007825032230
         H            0.754135854896     2.256709966421     1.274079796982     1.007825032230
         H            2.386119854896     2.660911966421     0.714089796982     1.007825032230
         H            3.355842854896    -2.090821033579    -0.409176203018     1.007825032230
         H           -2.830792145104     2.077902966421    -0.772635203018     1.007825032230
         H           -3.168747145104    -1.943733033579     0.753204796982     1.007825032230
         H           -4.322987145104     0.172236966421    -0.024116203018     1.007825032230

  Basis Set: AUG-CC-PVTZ
    Blend: AUG-CC-PVTZ
  Basis Set: (AUG-CC-PVTZ AUX)
    Blend: AUG-CC-PVTZ-JKFIT
	 Reference Energy          =    -525.5237775392297408 [Eh]
	 Singles Energy            =      -0.0000000000000000 [Eh]
	 Same-Spin Energy          =      -0.5809306203312955 [Eh]
	 Opposite-Spin Energy      =      -1.7447687326348933 [Eh]
	 Correlation Energy        =      -2.3256993529661889 [Eh]
	 Total Energy              =    -527.8494768921959803 [Eh]

	 ================> DF-SCS-MP2 Energies <==================
	-----------------------------------------------------------
	 SCS Same-Spin Scale       =       0.3333333333333333 [-]
	 SCS Opposite-Spin Scale   =       1.2000000000000000 [-]
	 SCS Same-Spin Energy      =      -0.1936435401104318 [Eh]
	 SCS Opposite-Spin Energy  =      -2.0937224791618720 [Eh]
	 SCS Correlation Energy    =      -2.2873660192723038 [Eh]
	 SCS Total Energy          =    -527.8111435585020672 [Eh]
	-----------------------------------------------------------

  Dipole Moment: [D]
     X:    -2.7557      Y:     2.5974      Z:     0.4508     Total:     3.8136

*** Psi4 exiting successfully. Buy a developer a beer!
