                               Psi4 1.3.2 release

  ==> Input File <==

--------------------------------------------------------------------------
#psi4
#
memory 32 gb

molecule  {
0 1
  N        0.8160970    -0.2990240    -0.0443680
  N        1.3585440    -1.5263750    -0.2734470
  N       -1.0817850     0.9875590    -0.4601130
  N       -1.2686320    -1.2431920     0.4227390
  C        1.7597130     0.6951090     0.1272320
  C        2.9786120     0.0532150     0.0016160
  C       -0.5903530    -0.1795160    -0.0248380
  C        1.4539390     2.1247050     0.4316710
  C        2.6793880    -1.2992810    -0.2463060
  C       -2.4210880     1.0928180    -0.4382200
  C       -2.4048349    -1.1362596     0.4010469
  C       -3.2414650     0.0469210    -0.0276130
  H        3.9528590     0.5149220     0.0929350
  H        1.0131890     2.6387050    -0.4244530
  H        0.7544440     2.2203260     1.2670250
  H        2.3864280     2.6245280     0.7070350
  H        3.3561510    -2.1272050    -0.4162310
  H       -2.8304840     2.0415190    -0.7796900
  H       -3.1684390    -1.9801170     0.7461500
  H       -4.3226790     0.1358530    -0.0311710
units angstrom
no_reorient  #important for SAPT in psi4, default
symmetry c1  #important for SAPT in psi4, default
}

set PROPERTIES_ORIGIN ["COM"]
properties('MP2/aug-cc-pvtz', properties = ['dipole'])
--------------------------------------------------------------------------

    Molecular point group: c1
  Charge       = 0
  Multiplicity = 1
  Basis Set: AUG-CC-PVTZ
    Blend: AUG-CC-PVTZ
  Basis Set: (AUG-CC-PVTZ AUX)
    Blend: AUG-CC-PVTZ-JKFIT

    Orbital Energies [Eh]
    ---------------------

    Doubly Occupied:

       1A    -15.647886     2A    -15.586142     3A    -15.581121
       4A    -15.570710     5A    -11.378758     6A    -11.304935
       7A    -11.298203     8A    -11.290950     9A    -11.259590
      10A    -11.253330    11A    -11.236846    12A    -11.221493
      13A     -1.401917    14A     -1.353520    15A     -1.244616
      16A     -1.130170    17A     -1.086522    18A     -1.029928
      19A     -0.961810    20A     -0.922517    21A     -0.885054
      22A     -0.808221    23A     -0.796466    24A     -0.720842
      25A     -0.707739    26A     -0.680608    27A     -0.648705
      28A     -0.634809    29A     -0.607428    30A     -0.595919
      31A     -0.587667    32A     -0.581685    33A     -0.565879
      34A     -0.558449    35A     -0.538502    36A     -0.489957
      37A     -0.469565    38A     -0.457259    39A     -0.401233
      40A     -0.400077    41A     -0.336897    42A     -0.331216

  @DF-RHF Final Energy:  -525.48608633343383

   => Energetics <=

    Nuclear Repulsion Energy =            661.8683405592021245
    One-Electron Energy =               -2025.5785703120329799
    Two-Electron Energy =                 838.2241434193970235
    Total Energy =                       -525.4860863334338319
  Basis Set: (AUG-CC-PVTZ AUX)
    Blend: AUG-CC-PVTZ-RI
    Molecular point group: c1

    Geometry (in Angstrom), charge = 0, multiplicity = 1:

       Center              X                  Y                   Z               Mass
    ------------   -----------------  -----------------  -----------------  -----------------
         N            0.808251110827    -0.259965465549    -0.037446355689    14.003074004430
         N            1.350698110827    -1.487316465549    -0.266525355689    14.003074004430
         N           -1.089630889173     1.026617534451    -0.453191355689    14.003074004430
         N           -1.276477889173    -1.204133465549     0.429660644311    14.003074004430
         C            1.751867110827     0.734167534451     0.134153644311    12.000000000000
         C            2.970766110827     0.092273534451     0.008537644311    12.000000000000
         C           -0.598198889173    -0.140457465549    -0.017916355689    12.000000000000
         C            1.446093110827     2.163763534451     0.438592644311    12.000000000000
         C            2.671542110827    -1.260222465549    -0.239384355689    12.000000000000
         C           -2.428933889173     1.131876534451    -0.431298355689    12.000000000000
         C           -2.412680789173    -1.097201065549     0.407968544311    12.000000000000
         C           -3.249310889173     0.085979534451    -0.020691355689    12.000000000000
         H            3.945013110827     0.553980534451     0.099856644311     1.007825032230
         H            1.005343110827     2.677763534451    -0.417531355689     1.007825032230
         H            0.746598110827     2.259384534451     1.273946644311     1.007825032230
         H            2.378582110827     2.663586534451     0.713956644311     1.007825032230
         H            3.348305110827    -2.088146465549    -0.409309355689     1.007825032230
         H           -2.838329889173     2.080577534451    -0.772768355689     1.007825032230
         H           -3.176284889173    -1.941058465549     0.753071644311     1.007825032230
         H           -4.330524889173     0.174911534451    -0.024249355689     1.007825032230

  Basis Set: AUG-CC-PVTZ
    Blend: AUG-CC-PVTZ
  Basis Set: (AUG-CC-PVTZ AUX)
    Blend: AUG-CC-PVTZ-JKFIT
	 Reference Energy          =    -525.4860863334338319 [Eh]
	 Singles Energy            =      -0.0000000000000000 [Eh]
	 Same-Spin Energy          =      -0.5755796694478164 [Eh]
	 Opposite-Spin Energy      =      -1.7365740397145117 [Eh]
	 Correlation Energy        =      -2.3121537091623283 [Eh]
	 Total Energy              =    -527.7982400425961487 [Eh]

	 ================> DF-SCS-MP2 Energies <==================
	-----------------------------------------------------------
	 SCS Same-Spin Scale       =       0.3333333333333333 [-]
	 SCS Opposite-Spin Scale   =       1.2000000000000000 [-]
	 SCS Same-Spin Energy      =      -0.1918598898159388 [Eh]
	 SCS Opposite-Spin Energy  =      -2.0838888476574140 [Eh]
	 SCS Correlation Energy    =      -2.2757487374733527 [Eh]
	 SCS Total Energy          =    -527.7618350709071819 [Eh]
	-----------------------------------------------------------

  Dipole Moment: [D]
     X:    -2.0062      Y:     2.4835      Z:     0.4656     Total:     3.2264

*** Psi4 exiting successfully. Buy a developer a beer!
