                               Psi4 1.3.2 release

  ==> Input File <==

--------------------------------------------------------------------------
#psi4
#
memory 32 gb

molecule  {
0 1
  N        0.8160970    -0.2990240    -0.0443680
  N        1.3585440    -1.5263750    -0.2734470
  N       -1.0817850     0.9875590    -0.4601130
  N       -1.2686320    -1.2431920     0.4227390
  C        1.7597130     0.6951090     0.1272320
  C        2.9786120     0.0532150     0.0016160
  C       -0.5903530    -0.1795160    -0.0248380
  C        1.4539390     2.1247050     0.4316710
  C        2.6793880    -1.2992810    -0.2463060
  C       -2.4210880     1.0928180    -0.4382200
  C       -2.6475477    -1.1372166     0.4059538
  C       -3.2414650     0.0469210    -0.0276130
  H        3.9528590     0.5149220     0.0929350
  H        1.0131890     2.6387050    -0.4244530
  H        0.7544440     2.2203260     1.2670250
  H        2.3864280     2.6245280     0.7070350
  H        3.3561510    -2.1272050    -0.4162310
  H       -2.8304840     2.0415190    -0.7796900
  H       -3.1684390    -1.9801170     0.7461500
  H       -4.3226790     0.1358530    -0.0311710
units angstrom
no_reorient  #important for SAPT in psi4, default
symmetry c1  #important for SAPT in psi4, default
}

set PROPERTIES_ORIGIN ["COM"]
properties('MP2/aug-cc-pvtz', properties = ['dipole'])
--------------------------------------------------------------------------

    Molecular point group: c1
  Charge       = 0
  Multiplicity = 1
  Basis Set: AUG-CC-PVTZ
    Blend: AUG-CC-PVTZ
  Basis Set: (AUG-CC-PVTZ AUX)
    Blend: AUG-CC-PVTZ-JKFIT

    Orbital Energies [Eh]
    ---------------------

    Doubly Occupied:

       1A    -15.641203     2A    -15.583076     3A    -15.580600
       4A    -15.579778     5A    -11.365590     6A    -11.313093
       7A    -11.311371     8A    -11.285978     9A    -11.254712
      10A    -11.253600    11A    -11.234290    12A    -11.216544
      13A     -1.384648    14A     -1.307103    15A     -1.197290
      16A     -1.128583    17A     -1.083728    18A     -1.044791
      19A     -0.958218    20A     -0.913813    21A     -0.892982
      22A     -0.799863    23A     -0.796378    24A     -0.711734
      25A     -0.705699    26A     -0.681770    27A     -0.639049
      28A     -0.633215    29A     -0.613044    30A     -0.591907
      31A     -0.586446    32A     -0.572929    33A     -0.563437
      34A     -0.551324    35A     -0.535166    36A     -0.487097
      37A     -0.454309    38A     -0.424678    39A     -0.419910
      40A     -0.408240    41A     -0.338076    42A     -0.331557

  @DF-RHF Final Energy:  -525.53852638698777

   => Energetics <=

    Nuclear Repulsion Energy =            657.2217480486865497
    One-Electron Energy =               -2016.7669140961229459
    Two-Electron Energy =                 834.0066396604486272
    Total Energy =                       -525.5385263869877690
  Basis Set: (AUG-CC-PVTZ AUX)
    Blend: AUG-CC-PVTZ-RI
    Molecular point group: c1

    Geometry (in Angstrom), charge = 0, multiplicity = 1:

       Center              X                  Y                   Z               Mass
    ------------   -----------------  -----------------  -----------------  -----------------
         N            0.826446053743    -0.259893724131    -0.037814201000    14.003074004430
         N            1.368893053743    -1.487244724131    -0.266893201000    14.003074004430
         N           -1.071435946257     1.026689275869    -0.453559201000    14.003074004430
         N           -1.258282946257    -1.204061724131     0.429292799000    14.003074004430
         C            1.770062053743     0.734239275869     0.133785799000    12.000000000000
         C            2.988961053743     0.092345275869     0.008169799000    12.000000000000
         C           -0.580003946257    -0.140385724131    -0.018284201000    12.000000000000
         C            1.464288053743     2.163835275869     0.438224799000    12.000000000000
         C            2.689737053743    -1.260150724131    -0.239752201000    12.000000000000
         C           -2.410738946257     1.131948275869    -0.431666201000    12.000000000000
         C           -2.637198646257    -1.098086324131     0.412507599000    12.000000000000
         C           -3.231115946257     0.086051275869    -0.021059201000    12.000000000000
         H            3.963208053743     0.554052275869     0.099488799000     1.007825032230
         H            1.023538053743     2.677835275869    -0.417899201000     1.007825032230
         H            0.764793053743     2.259456275869     1.273578799000     1.007825032230
         H            2.396777053743     2.663658275869     0.713588799000     1.007825032230
         H            3.366500053743    -2.088074724131    -0.409677201000     1.007825032230
         H           -2.820134946257     2.080649275869    -0.773136201000     1.007825032230
         H           -3.158089946257    -1.940986724131     0.752703799000     1.007825032230
         H           -4.312329946257     0.174983275869    -0.024617201000     1.007825032230

  Basis Set: AUG-CC-PVTZ
    Blend: AUG-CC-PVTZ
  Basis Set: (AUG-CC-PVTZ AUX)
    Blend: AUG-CC-PVTZ-JKFIT
	 Reference Energy          =    -525.5385263869877690 [Eh]
	 Singles Energy            =      -0.0000000000000000 [Eh]
	 Same-Spin Energy          =      -0.5779958264806887 [Eh]
	 Opposite-Spin Energy      =      -1.7399018282373380 [Eh]
	 Correlation Energy        =      -2.3178976547180268 [Eh]
	 Total Energy              =    -527.8564240417058500 [Eh]

	 ================> DF-SCS-MP2 Energies <==================
	-----------------------------------------------------------
	 SCS Same-Spin Scale       =       0.3333333333333333 [-]
	 SCS Opposite-Spin Scale   =       1.2000000000000000 [-]
	 SCS Same-Spin Energy      =      -0.1926652754935629 [Eh]
	 SCS Opposite-Spin Energy  =      -2.0878821938848056 [Eh]
	 SCS Correlation Energy    =      -2.2805474693783685 [Eh]
	 SCS Total Energy          =    -527.8190738563661171 [Eh]
	-----------------------------------------------------------

  Dipole Moment: [D]
     X:    -2.6695      Y:     2.5282      Z:     0.4502     Total:     3.7042

*** Psi4 exiting successfully. Buy a developer a beer!
