                               Psi4 1.3.2 release

  ==> Input File <==

--------------------------------------------------------------------------
#psi4
#
memory 32 gb

molecule  {
0 1
  N        0.8160970    -0.2990240    -0.0443680
  N        1.3585440    -1.5263750    -0.2734470
  N       -1.0817850     0.9875590    -0.4601130
  N       -1.2686320    -1.2431920     0.4227390
  C        1.6980214     0.5665849     0.1019210
  C        2.9786120     0.0532150     0.0016160
  C       -0.5903530    -0.1795160    -0.0248380
  C        1.4539390     2.1247050     0.4316710
  C        2.6793880    -1.2992810    -0.2463060
  C       -2.4210880     1.0928180    -0.4382200
  C       -2.6039190    -1.1175230     0.3972460
  C       -3.2414650     0.0469210    -0.0276130
  H        3.9528590     0.5149220     0.0929350
  H        1.0131890     2.6387050    -0.4244530
  H        0.7544440     2.2203260     1.2670250
  H        2.3864280     2.6245280     0.7070350
  H        3.3561510    -2.1272050    -0.4162310
  H       -2.8304840     2.0415190    -0.7796900
  H       -3.1684390    -1.9801170     0.7461500
  H       -4.3226790     0.1358530    -0.0311710
units angstrom
no_reorient  #important for SAPT in psi4, default
symmetry c1  #important for SAPT in psi4, default
}

set PROPERTIES_ORIGIN ["COM"]
properties('MP2/aug-cc-pvtz', properties = ['dipole'])
--------------------------------------------------------------------------

    Molecular point group: c1
  Charge       = 0
  Multiplicity = 1
  Basis Set: AUG-CC-PVTZ
    Blend: AUG-CC-PVTZ
  Basis Set: (AUG-CC-PVTZ AUX)
    Blend: AUG-CC-PVTZ-JKFIT

    Orbital Energies [Eh]
    ---------------------

    Doubly Occupied:

       1A    -15.645785     2A    -15.588612     3A    -15.585180
       4A    -15.567162     5A    -11.374457     6A    -11.315638
       7A    -11.313740     8A    -11.278082     9A    -11.258235
      10A    -11.252592    11A    -11.236907    12A    -11.207630
      13A     -1.415835    14A     -1.321882    15A     -1.211586
      16A     -1.139598    17A     -1.085147    18A     -1.046209
      19A     -0.943438    20A     -0.914251    21A     -0.911869
      22A     -0.813049    23A     -0.803755    24A     -0.718680
      25A     -0.705788    26A     -0.679041    27A     -0.652787
      28A     -0.638299    29A     -0.609793    30A     -0.602438
      31A     -0.586647    32A     -0.574662    33A     -0.561463
      34A     -0.553176    35A     -0.503458    36A     -0.490619
      37A     -0.450705    38A     -0.434229    39A     -0.423354
      40A     -0.410878    41A     -0.352447    42A     -0.325699

  @DF-RHF Final Energy:  -525.52230077413151

   => Energetics <=

    Nuclear Repulsion Energy =            660.7689302387228736
    One-Electron Energy =               -2023.5728601857636022
    Two-Electron Energy =                 837.2816291729091063
    Total Energy =                       -525.5223007741315087
  Basis Set: (AUG-CC-PVTZ AUX)
    Blend: AUG-CC-PVTZ-RI
    Molecular point group: c1

    Geometry (in Angstrom), charge = 0, multiplicity = 1:

       Center              X                  Y                   Z               Mass
    ------------   -----------------  -----------------  -----------------  -----------------
         N            0.827800137394    -0.251735255624    -0.035263984761    14.003074004430
         N            1.370247137394    -1.479086255624    -0.264342984761    14.003074004430
         N           -1.070081862606     1.034847744376    -0.451008984761    14.003074004430
         N           -1.256928862606    -1.195903255624     0.431843015239    14.003074004430
         C            1.709724537394     0.613873644376     0.111025015239    12.000000000000
         C            2.990315137394     0.100503744376     0.010720015239    12.000000000000
         C           -0.578649862606    -0.132227255624    -0.015733984761    12.000000000000
         C            1.465642137394     2.171993744376     0.440775015239    12.000000000000
         C            2.691091137394    -1.251992255624    -0.237201984761    12.000000000000
         C           -2.409384862606     1.140106744376    -0.429115984761    12.000000000000
         C           -2.592215862606    -1.070234255624     0.406350015239    12.000000000000
         C           -3.229761862606     0.094209744376    -0.018508984761    12.000000000000
         H            3.964562137394     0.562210744376     0.102039015239     1.007825032230
         H            1.024892137394     2.685993744376    -0.415348984761     1.007825032230
         H            0.766147137394     2.267614744376     1.276129015239     1.007825032230
         H            2.398131137394     2.671816744376     0.716139015239     1.007825032230
         H            3.367854137394    -2.079916255624    -0.407126984761     1.007825032230
         H           -2.818780862606     2.088807744376    -0.770585984761     1.007825032230
         H           -3.156735862606    -1.932828255624     0.755254015239     1.007825032230
         H           -4.310975862606     0.183141744376    -0.022066984761     1.007825032230

  Basis Set: AUG-CC-PVTZ
    Blend: AUG-CC-PVTZ
  Basis Set: (AUG-CC-PVTZ AUX)
    Blend: AUG-CC-PVTZ-JKFIT
	 Reference Energy          =    -525.5223007741315087 [Eh]
	 Singles Energy            =      -0.0000000000000000 [Eh]
	 Same-Spin Energy          =      -0.5762572457578716 [Eh]
	 Opposite-Spin Energy      =      -1.7359435337679670 [Eh]
	 Correlation Energy        =      -2.3122007795258384 [Eh]
	 Total Energy              =    -527.8345015536573328 [Eh]

	 ================> DF-SCS-MP2 Energies <==================
	-----------------------------------------------------------
	 SCS Same-Spin Scale       =       0.3333333333333333 [-]
	 SCS Opposite-Spin Scale   =       1.2000000000000000 [-]
	 SCS Same-Spin Energy      =      -0.1920857485859572 [Eh]
	 SCS Opposite-Spin Energy  =      -2.0831322405215604 [Eh]
	 SCS Correlation Energy    =      -2.2752179891075177 [Eh]
	 SCS Total Energy          =    -527.7975187632390544 [Eh]
	-----------------------------------------------------------

  Dipole Moment: [D]
     X:    -3.0462      Y:     2.4871      Z:     0.4238     Total:     3.9553

*** Psi4 exiting successfully. Buy a developer a beer!
