                               Psi4 1.3.2 release

  ==> Input File <==

--------------------------------------------------------------------------
#psi4
#
memory 32 gb

molecule  {
0 1
  N        0.8160970    -0.2990240    -0.0443680
  N        1.3585440    -1.5263750    -0.2734470
  N       -1.0817850     0.9875590    -0.4601130
  N       -1.2630764    -1.1562305     0.3884826
  C        1.7597130     0.6951090     0.1272320
  C        2.9786120     0.0532150     0.0016160
  C       -0.5903530    -0.1795160    -0.0248380
  C        1.4539390     2.1247050     0.4316710
  C        2.6793880    -1.2992810    -0.2463060
  C       -2.4210880     1.0928180    -0.4382200
  C       -2.6039190    -1.1175230     0.3972460
  C       -3.2414650     0.0469210    -0.0276130
  H        3.9528590     0.5149220     0.0929350
  H        1.0131890     2.6387050    -0.4244530
  H        0.7544440     2.2203260     1.2670250
  H        2.3864280     2.6245280     0.7070350
  H        3.3561510    -2.1272050    -0.4162310
  H       -2.8304840     2.0415190    -0.7796900
  H       -3.1684390    -1.9801170     0.7461500
  H       -4.3226790     0.1358530    -0.0311710
units angstrom
no_reorient  #important for SAPT in psi4, default
symmetry c1  #important for SAPT in psi4, default
}

set PROPERTIES_ORIGIN ["COM"]
properties('MP2/aug-cc-pvtz', properties = ['dipole'])
--------------------------------------------------------------------------

    Molecular point group: c1
  Charge       = 0
  Multiplicity = 1
  Basis Set: AUG-CC-PVTZ
    Blend: AUG-CC-PVTZ
  Basis Set: (AUG-CC-PVTZ AUX)
    Blend: AUG-CC-PVTZ-JKFIT

    Orbital Energies [Eh]
    ---------------------

    Doubly Occupied:

       1A    -15.638096     2A    -15.579599     3A    -15.578654
       4A    -15.565481     5A    -11.354606     6A    -11.313078
       7A    -11.310294     8A    -11.284482     9A    -11.254220
      10A    -11.252329    11A    -11.233213    12A    -11.215095
      13A     -1.388547    14A     -1.323373    15A     -1.207658
      16A     -1.129775    17A     -1.083904    18A     -1.047325
      19A     -0.956997    20A     -0.919312    21A     -0.893877
      22A     -0.801671    23A     -0.795260    24A     -0.719239
      25A     -0.710160    26A     -0.682152    27A     -0.640365
      28A     -0.634258    29A     -0.608517    30A     -0.595046
      31A     -0.587808    32A     -0.577834    33A     -0.562387
      34A     -0.552051    35A     -0.534151    36A     -0.485845
      37A     -0.452508    38A     -0.430073    39A     -0.412916
      40A     -0.408678    41A     -0.339563    42A     -0.330397

  @DF-RHF Final Energy:  -525.54037745912376

   => Energetics <=

    Nuclear Repulsion Energy =            660.7371445886857373
    One-Electron Energy =               -2023.7734503904291614
    Two-Electron Energy =                 837.4959283426195498
    Total Energy =                       -525.5403774591237607
  Basis Set: (AUG-CC-PVTZ AUX)
    Blend: AUG-CC-PVTZ-RI
    Molecular point group: c1

    Geometry (in Angstrom), charge = 0, multiplicity = 1:

       Center              X                  Y                   Z               Mass
    ------------   -----------------  -----------------  -----------------  -----------------
         N            0.822689437984    -0.268977294097    -0.034164731171    14.003074004430
         N            1.365136437984    -1.496328294097    -0.263243731171    14.003074004430
         N           -1.075192562016     1.017605705903    -0.449909731171    14.003074004430
         N           -1.256483962016    -1.126183794097     0.398685868829    14.003074004430
         C            1.766305437984     0.725155705903     0.137435268829    12.000000000000
         C            2.985204437984     0.083261705903     0.011819268829    12.000000000000
         C           -0.583760562016    -0.149469294097    -0.014634731171    12.000000000000
         C            1.460531437984     2.154751705903     0.441874268829    12.000000000000
         C            2.685980437984    -1.269234294097    -0.236102731171    12.000000000000
         C           -2.414495562016     1.122864705903    -0.428016731171    12.000000000000
         C           -2.597326562016    -1.087476294097     0.407449268829    12.000000000000
         C           -3.234872562016     0.076967705903    -0.017409731171    12.000000000000
         H            3.959451437984     0.544968705903     0.103138268829     1.007825032230
         H            1.019781437984     2.668751705903    -0.414249731171     1.007825032230
         H            0.761036437984     2.250372705903     1.277228268829     1.007825032230
         H            2.393020437984     2.654574705903     0.717238268829     1.007825032230
         H            3.362743437984    -2.097158294097    -0.406027731171     1.007825032230
         H           -2.823891562016     2.071565705903    -0.769486731171     1.007825032230
         H           -3.161846562016    -1.950070294097     0.756353268829     1.007825032230
         H           -4.316086562016     0.165899705903    -0.020967731171     1.007825032230

  Basis Set: AUG-CC-PVTZ
    Blend: AUG-CC-PVTZ
  Basis Set: (AUG-CC-PVTZ AUX)
    Blend: AUG-CC-PVTZ-JKFIT
	 Reference Energy          =    -525.5403774591237607 [Eh]
	 Singles Energy            =      -0.0000000000000000 [Eh]
	 Same-Spin Energy          =      -0.5771366066391078 [Eh]
	 Opposite-Spin Energy      =      -1.7366562542277464 [Eh]
	 Correlation Energy        =      -2.3137928608668541 [Eh]
	 Total Energy              =    -527.8541703199906578 [Eh]

	 ================> DF-SCS-MP2 Energies <==================
	-----------------------------------------------------------
	 SCS Same-Spin Scale       =       0.3333333333333333 [-]
	 SCS Opposite-Spin Scale   =       1.2000000000000000 [-]
	 SCS Same-Spin Energy      =      -0.1923788688797026 [Eh]
	 SCS Opposite-Spin Energy  =      -2.0839875050732957 [Eh]
	 SCS Correlation Energy    =      -2.2763663739529982 [Eh]
	 SCS Total Energy          =    -527.8167438330767709 [Eh]
	-----------------------------------------------------------

  Dipole Moment: [D]
     X:    -2.7681      Y:     2.4083      Z:     0.5063     Total:     3.7039

*** Psi4 exiting successfully. Buy a developer a beer!
