                               Psi4 1.3.2 release

  ==> Input File <==

--------------------------------------------------------------------------
#psi4
#
memory 32 gb

molecule  {
0 1
  N        0.8160970    -0.2990240    -0.0443680
  N        1.3585440    -1.5263750    -0.2734470
  N       -1.0817850     0.9875590    -0.4601130
  N       -1.2686320    -1.2431920     0.4227390
  C        1.7597130     0.6951090     0.1272320
  C        2.9786120     0.0532150     0.0016160
  C       -0.6121424    -0.1869798    -0.0208770
  C        1.4539390     2.1247050     0.4316710
  C        2.6793880    -1.2992810    -0.2463060
  C       -2.4210880     1.0928180    -0.4382200
  C       -2.6039190    -1.1175230     0.3972460
  C       -3.2414650     0.0469210    -0.0276130
  H        3.9528590     0.5149220     0.0929350
  H        1.0131890     2.6387050    -0.4244530
  H        0.7544440     2.2203260     1.2670250
  H        2.3864280     2.6245280     0.7070350
  H        3.3561510    -2.1272050    -0.4162310
  H       -2.8304840     2.0415190    -0.7796900
  H       -3.1684390    -1.9801170     0.7461500
  H       -4.3226790     0.1358530    -0.0311710
units angstrom
no_reorient  #important for SAPT in psi4, default
symmetry c1  #important for SAPT in psi4, default
}

set PROPERTIES_ORIGIN ["COM"]
properties('MP2/aug-cc-pvtz', properties = ['dipole'])
--------------------------------------------------------------------------

    Molecular point group: c1
  Charge       = 0
  Multiplicity = 1
  Basis Set: AUG-CC-PVTZ
    Blend: AUG-CC-PVTZ
  Basis Set: (AUG-CC-PVTZ AUX)
    Blend: AUG-CC-PVTZ-JKFIT

    Orbital Energies [Eh]
    ---------------------

    Doubly Occupied:

       1A    -15.639891     2A    -15.584364     3A    -15.579823
       4A    -15.579369     5A    -11.367378     6A    -11.313181
       7A    -11.311728     8A    -11.284541     9A    -11.254538
      10A    -11.252055    11A    -11.233609    12A    -11.215203
      13A     -1.383066    14A     -1.316574    15A     -1.211492
      16A     -1.125522    17A     -1.082754    18A     -1.044463
      19A     -0.957125    20A     -0.912308    21A     -0.895724
      22A     -0.797536    23A     -0.793129    24A     -0.714359
      25A     -0.708651    26A     -0.681325    27A     -0.636846
      28A     -0.633764    29A     -0.608009    30A     -0.587126
      31A     -0.586514    32A     -0.576096    33A     -0.562402
      34A     -0.552002    35A     -0.534426    36A     -0.492628
      37A     -0.453755    38A     -0.433198    39A     -0.424318
      40A     -0.407059    41A     -0.338570    42A     -0.330386

  @DF-RHF Final Energy:  -525.54319948158934

   => Energetics <=

    Nuclear Repulsion Energy =            658.2351526120775134
    One-Electron Energy =               -2018.7630880405354219
    Two-Electron Energy =                 834.9847359468686818
    Total Energy =                       -525.5431994815893404
  Basis Set: (AUG-CC-PVTZ AUX)
    Blend: AUG-CC-PVTZ-RI
    Molecular point group: c1

    Geometry (in Angstrom), charge = 0, multiplicity = 1:

       Center              X                  Y                   Z               Mass
    ------------   -----------------  -----------------  -----------------  -----------------
         N            0.824808872610    -0.260810529973    -0.037458357571    14.003074004430
         N            1.367255872610    -1.488161529973    -0.266537357571    14.003074004430
         N           -1.073073127390     1.025772470027    -0.453203357571    14.003074004430
         N           -1.259920127390    -1.204978529973     0.429648642429    14.003074004430
         C            1.768424872610     0.733322470027     0.134141642429    12.000000000000
         C            2.987323872610     0.091428470027     0.008525642429    12.000000000000
         C           -0.603430527390    -0.148766329973    -0.013967357571    12.000000000000
         C            1.462650872610     2.162918470027     0.438580642429    12.000000000000
         C            2.688099872610    -1.261067529973    -0.239396357571    12.000000000000
         C           -2.412376127390     1.131031470027    -0.431310357571    12.000000000000
         C           -2.595207127390    -1.079309529973     0.404155642429    12.000000000000
         C           -3.232753127390     0.085134470027    -0.020703357571    12.000000000000
         H            3.961570872610     0.553135470027     0.099844642429     1.007825032230
         H            1.021900872610     2.676918470027    -0.417543357571     1.007825032230
         H            0.763155872610     2.258539470027     1.273934642429     1.007825032230
         H            2.395139872610     2.662741470027     0.713944642429     1.007825032230
         H            3.364862872610    -2.088991529973    -0.409321357571     1.007825032230
         H           -2.821772127390     2.079732470027    -0.772780357571     1.007825032230
         H           -3.159727127390    -1.941903529973     0.753059642429     1.007825032230
         H           -4.313967127390     0.174066470027    -0.024261357571     1.007825032230

  Basis Set: AUG-CC-PVTZ
    Blend: AUG-CC-PVTZ
  Basis Set: (AUG-CC-PVTZ AUX)
    Blend: AUG-CC-PVTZ-JKFIT
	 Reference Energy          =    -525.5431994815893404 [Eh]
	 Singles Energy            =      -0.0000000000000000 [Eh]
	 Same-Spin Energy          =      -0.5775138425707131 [Eh]
	 Opposite-Spin Energy      =      -1.7385046059848528 [Eh]
	 Correlation Energy        =      -2.3160184485555657 [Eh]
	 Total Energy              =    -527.8592179301449505 [Eh]

	 ================> DF-SCS-MP2 Energies <==================
	-----------------------------------------------------------
	 SCS Same-Spin Scale       =       0.3333333333333333 [-]
	 SCS Opposite-Spin Scale   =       1.2000000000000000 [-]
	 SCS Same-Spin Energy      =      -0.1925046141902377 [Eh]
	 SCS Opposite-Spin Energy  =      -2.0862055271818232 [Eh]
	 SCS Correlation Energy    =      -2.2787101413720610 [Eh]
	 SCS Total Energy          =    -527.8219096229613569 [Eh]
	-----------------------------------------------------------

  Dipole Moment: [D]
     X:    -2.8101      Y:     2.5564      Z:     0.4485     Total:     3.8253

*** Psi4 exiting successfully. Buy a developer a beer!
