                               Psi4 1.3.2 release

  ==> Input File <==

--------------------------------------------------------------------------
#psi4
#
memory 32 gb

molecule  {
0 1
  N        0.8116071    -0.3446552    -0.0263259
  N        1.3585440    -1.5263750    -0.2734470
  N       -1.0817850     0.9875590    -0.4601130
  N       -1.2686320    -1.2431920     0.4227390
  C        1.7597130     0.6951090     0.1272320
  C        2.9786120     0.0532150     0.0016160
  C       -0.5903530    -0.1795160    -0.0248380
  C        1.4539390     2.1247050     0.4316710
  C        2.6793880    -1.2992810    -0.2463060
  C       -2.4210880     1.0928180    -0.4382200
  C       -2.6039190    -1.1175230     0.3972460
  C       -3.2414650     0.0469210    -0.0276130
  H        3.9528590     0.5149220     0.0929350
  H        1.0131890     2.6387050    -0.4244530
  H        0.7544440     2.2203260     1.2670250
  H        2.3864280     2.6245280     0.7070350
  H        3.3561510    -2.1272050    -0.4162310
  H       -2.8304840     2.0415190    -0.7796900
  H       -3.1684390    -1.9801170     0.7461500
  H       -4.3226790     0.1358530    -0.0311710
units angstrom
no_reorient  #important for SAPT in psi4, default
symmetry c1  #important for SAPT in psi4, default
}

set PROPERTIES_ORIGIN ["COM"]
properties('MP2/aug-cc-pvtz', properties = ['dipole'])
--------------------------------------------------------------------------

    Molecular point group: c1
  Charge       = 0
  Multiplicity = 1
  Basis Set: AUG-CC-PVTZ
    Blend: AUG-CC-PVTZ
  Basis Set: (AUG-CC-PVTZ AUX)
    Blend: AUG-CC-PVTZ-JKFIT

    Orbital Energies [Eh]
    ---------------------

    Doubly Occupied:

       1A    -15.644000     2A    -15.583592     3A    -15.582475
       4A    -15.577848     5A    -11.367069     6A    -11.312195
       7A    -11.309137     8A    -11.285941     9A    -11.252828
      10A    -11.251979    11A    -11.234686    12A    -11.219432
      13A     -1.393256    14A     -1.314781    15A     -1.206066
      16A     -1.127906    17A     -1.082447    18A     -1.046000
      19A     -0.958771    20A     -0.909318    21A     -0.895255
      22A     -0.801806    23A     -0.793725    24A     -0.712744
      25A     -0.708821    26A     -0.682835    27A     -0.638695
      28A     -0.634040    29A     -0.607206    30A     -0.591965
      31A     -0.585735    32A     -0.575812    33A     -0.564324
      34A     -0.555185    35A     -0.535235    36A     -0.491216
      37A     -0.454276    38A     -0.430728    39A     -0.420352
      40A     -0.407012    41A     -0.339919    42A     -0.328142

  @DF-RHF Final Energy:  -525.54113838341902

   => Energetics <=

    Nuclear Repulsion Energy =            658.2485391965283270
    One-Electron Energy =               -2018.7498482858291027
    Two-Electron Energy =                 834.9601707058817510
    Total Energy =                       -525.5411383834190246
  Basis Set: (AUG-CC-PVTZ AUX)
    Blend: AUG-CC-PVTZ-RI
    Molecular point group: c1

    Geometry (in Angstrom), charge = 0, multiplicity = 1:

       Center              X                  Y                   Z               Mass
    ------------   -----------------  -----------------  -----------------  -----------------
         N            0.819078300883    -0.303009514908    -0.020697613151    14.003074004430
         N            1.366015200883    -1.484729314908    -0.267818713151    14.003074004430
         N           -1.074313799117     1.029204685092    -0.454484713151    14.003074004430
         N           -1.261160799117    -1.201546314908     0.428367286849    14.003074004430
         C            1.767184200883     0.736754685092     0.132860286849    12.000000000000
         C            2.986083200883     0.094860685092     0.007244286849    12.000000000000
         C           -0.582881799117    -0.137870314908    -0.019209713151    12.000000000000
         C            1.461410200883     2.166350685092     0.437299286849    12.000000000000
         C            2.686859200883    -1.257635314908    -0.240677713151    12.000000000000
         C           -2.413616799117     1.134463685092    -0.432591713151    12.000000000000
         C           -2.596447799117    -1.075877314908     0.402874286849    12.000000000000
         C           -3.233993799117     0.088566685092    -0.021984713151    12.000000000000
         H            3.960330200883     0.556567685092     0.098563286849     1.007825032230
         H            1.020660200883     2.680350685092    -0.418824713151     1.007825032230
         H            0.761915200883     2.261971685092     1.272653286849     1.007825032230
         H            2.393899200883     2.666173685092     0.712663286849     1.007825032230
         H            3.363622200883    -2.085559314908    -0.410602713151     1.007825032230
         H           -2.823012799117     2.083164685092    -0.774061713151     1.007825032230
         H           -3.160967799117    -1.938471314908     0.751778286849     1.007825032230
         H           -4.315207799117     0.177498685092    -0.025542713151     1.007825032230

  Basis Set: AUG-CC-PVTZ
    Blend: AUG-CC-PVTZ
  Basis Set: (AUG-CC-PVTZ AUX)
    Blend: AUG-CC-PVTZ-JKFIT
	 Reference Energy          =    -525.5411383834190246 [Eh]
	 Singles Energy            =      -0.0000000000000000 [Eh]
	 Same-Spin Energy          =      -0.5779027873306055 [Eh]
	 Opposite-Spin Energy      =      -1.7387941889676755 [Eh]
	 Correlation Energy        =      -2.3166969762982808 [Eh]
	 Total Energy              =    -527.8578353597173418 [Eh]

	 ================> DF-SCS-MP2 Energies <==================
	-----------------------------------------------------------
	 SCS Same-Spin Scale       =       0.3333333333333333 [-]
	 SCS Opposite-Spin Scale   =       1.2000000000000000 [-]
	 SCS Same-Spin Energy      =      -0.1926342624435352 [Eh]
	 SCS Opposite-Spin Energy  =      -2.0865530267612105 [Eh]
	 SCS Correlation Energy    =      -2.2791872892047458 [Eh]
	 SCS Total Energy          =    -527.8203256726237669 [Eh]
	-----------------------------------------------------------

  Dipole Moment: [D]
     X:    -2.5843      Y:     2.5801      Z:     0.4362     Total:     3.6777

*** Psi4 exiting successfully. Buy a developer a beer!
