                               Psi4 1.3.2 release

  ==> Input File <==

--------------------------------------------------------------------------
#psi4
#
memory 32 gb

molecule  {
0 1
  N        0.8160970    -0.2990240    -0.0443680
  N        1.3585440    -1.5263750    -0.2734470
  N       -1.0817850     0.9875590    -0.4601130
  N       -1.2738523    -1.2864695     0.4398310
  C        1.7597130     0.6951090     0.1272320
  C        2.9786120     0.0532150     0.0016160
  C       -0.5903530    -0.1795160    -0.0248380
  C        1.4539390     2.1247050     0.4316710
  C        2.6793880    -1.2992810    -0.2463060
  C       -2.4210880     1.0928180    -0.4382200
  C       -2.6039190    -1.1175230     0.3972460
  C       -3.2414650     0.0469210    -0.0276130
  H        3.9528590     0.5149220     0.0929350
  H        1.0131890     2.6387050    -0.4244530
  H        0.7544440     2.2203260     1.2670250
  H        2.3864280     2.6245280     0.7070350
  H        3.3561510    -2.1272050    -0.4162310
  H       -2.8304840     2.0415190    -0.7796900
  H       -3.1684390    -1.9801170     0.7461500
  H       -4.3226790     0.1358530    -0.0311710
units angstrom
no_reorient  #important for SAPT in psi4, default
symmetry c1  #important for SAPT in psi4, default
}

set PROPERTIES_ORIGIN ["COM"]
properties('MP2/aug-cc-pvtz', properties = ['dipole'])
--------------------------------------------------------------------------

    Molecular point group: c1
  Charge       = 0
  Multiplicity = 1
  Basis Set: AUG-CC-PVTZ
    Blend: AUG-CC-PVTZ
  Basis Set: (AUG-CC-PVTZ AUX)
    Blend: AUG-CC-PVTZ-JKFIT

    Orbital Energies [Eh]
    ---------------------

    Doubly Occupied:

       1A    -15.643929     2A    -15.584977     3A    -15.584058
       4A    -15.582378     5A    -11.373057     6A    -11.312007
       7A    -11.307806     8A    -11.287794     9A    -11.255624
      10A    -11.252042    11A    -11.235401    12A    -11.218375
      13A     -1.385928    14A     -1.307897    15A     -1.204622
      16A     -1.129348    17A     -1.084453    18A     -1.043986
      19A     -0.959646    20A     -0.906046    21A     -0.895564
      22A     -0.800536    23A     -0.794039    24A     -0.713313
      25A     -0.703488    26A     -0.682039    27A     -0.637666
      28A     -0.633277    29A     -0.606462    30A     -0.587437
      31A     -0.584813    32A     -0.573857    33A     -0.564621
      34A     -0.552822    35A     -0.536728    36A     -0.495117
      37A     -0.456137    38A     -0.431597    39A     -0.422545
      40A     -0.406584    41A     -0.337217    42A     -0.333317

  @DF-RHF Final Energy:  -525.53927822777234

   => Energetics <=

    Nuclear Repulsion Energy =            657.0686303034705134
    One-Electron Energy =               -2016.3987209922838701
    Two-Electron Energy =                 833.7908124610411278
    Total Energy =                       -525.5392782277723427
  Basis Set: (AUG-CC-PVTZ AUX)
    Blend: AUG-CC-PVTZ-RI
    Molecular point group: c1

    Geometry (in Angstrom), charge = 0, multiplicity = 1:

       Center              X                  Y                   Z               Mass
    ------------   -----------------  -----------------  -----------------  -----------------
         N            0.823632095007    -0.257584212497    -0.038656600052    14.003074004430
         N            1.366079095007    -1.484935212497    -0.267735600052    14.003074004430
         N           -1.074249904993     1.028998787503    -0.454401600052    14.003074004430
         N           -1.266317204993    -1.245029712497     0.445542399948    14.003074004430
         C            1.767248095007     0.736548787503     0.132943399948    12.000000000000
         C            2.986147095007     0.094654787503     0.007327399948    12.000000000000
         C           -0.582817904993    -0.138076212497    -0.019126600052    12.000000000000
         C            1.461474095007     2.166144787503     0.437382399948    12.000000000000
         C            2.686923095007    -1.257841212497    -0.240594600052    12.000000000000
         C           -2.413552904993     1.134257787503    -0.432508600052    12.000000000000
         C           -2.596383904993    -1.076083212497     0.402957399948    12.000000000000
         C           -3.233929904993     0.088360787503    -0.021901600052    12.000000000000
         H            3.960394095007     0.556361787503     0.098646399948     1.007825032230
         H            1.020724095007     2.680144787503    -0.418741600052     1.007825032230
         H            0.761979095007     2.261765787503     1.272736399948     1.007825032230
         H            2.393963095007     2.665967787503     0.712746399948     1.007825032230
         H            3.363686095007    -2.085765212497    -0.410519600052     1.007825032230
         H           -2.822948904993     2.082958787503    -0.773978600052     1.007825032230
         H           -3.160903904993    -1.938677212497     0.751861399948     1.007825032230
         H           -4.315143904993     0.177292787503    -0.025459600052     1.007825032230

  Basis Set: AUG-CC-PVTZ
    Blend: AUG-CC-PVTZ
  Basis Set: (AUG-CC-PVTZ AUX)
    Blend: AUG-CC-PVTZ-JKFIT
	 Reference Energy          =    -525.5392782277723427 [Eh]
	 Singles Energy            =      -0.0000000000000000 [Eh]
	 Same-Spin Energy          =      -0.5778604598398347 [Eh]
	 Opposite-Spin Energy      =      -1.7400182747853419 [Eh]
	 Correlation Energy        =      -2.3178787346251766 [Eh]
	 Total Energy              =    -527.8571569623975392 [Eh]

	 ================> DF-SCS-MP2 Energies <==================
	-----------------------------------------------------------
	 SCS Same-Spin Scale       =       0.3333333333333333 [-]
	 SCS Opposite-Spin Scale   =       1.2000000000000000 [-]
	 SCS Same-Spin Energy      =      -0.1926201532799449 [Eh]
	 SCS Opposite-Spin Energy  =      -2.0880219297424101 [Eh]
	 SCS Correlation Energy    =      -2.2806420830223550 [Eh]
	 SCS Total Energy          =    -527.8199203107947142 [Eh]
	-----------------------------------------------------------

  Dipole Moment: [D]
     X:    -2.4841      Y:     2.6161      Z:     0.4127     Total:     3.6311

*** Psi4 exiting successfully. Buy a developer a beer!
