                               Psi4 1.3.2 release

  ==> Input File <==

--------------------------------------------------------------------------
#psi4
#
memory 32 gb

molecule  {
0 1
  N        0.8160970    -0.2990240    -0.0443680
  N        1.3983919    -1.6165357    -0.2902751
  N       -1.0817850     0.9875590    -0.4601130
  N       -1.2686320    -1.2431920     0.4227390
  C        1.7597130     0.6951090     0.1272320
  C        2.9786120     0.0532150     0.0016160
  C       -0.5903530    -0.1795160    -0.0248380
  C        1.4539390     2.1247050     0.4316710
  C        2.6793880    -1.2992810    -0.2463060
  C       -2.4210880     1.0928180    -0.4382200
  C       -2.6039190    -1.1175230     0.3972460
  C       -3.2414650     0.0469210    -0.0276130
  H        3.9528590     0.5149220     0.0929350
  H        1.0131890     2.6387050    -0.4244530
  H        0.7544440     2.2203260     1.2670250
  H        2.3864280     2.6245280     0.7070350
  H        3.3561510    -2.1272050    -0.4162310
  H       -2.8304840     2.0415190    -0.7796900
  H       -3.1684390    -1.9801170     0.7461500
  H       -4.3226790     0.1358530    -0.0311710
units angstrom
no_reorient  #important for SAPT in psi4, default
symmetry c1  #important for SAPT in psi4, default
}

set PROPERTIES_ORIGIN ["COM"]
properties('MP2/aug-cc-pvtz', properties = ['dipole'])
--------------------------------------------------------------------------

    Molecular point group: c1
  Charge       = 0
  Multiplicity = 1
  Basis Set: AUG-CC-PVTZ
    Blend: AUG-CC-PVTZ
  Basis Set: (AUG-CC-PVTZ AUX)
    Blend: AUG-CC-PVTZ-JKFIT

    Orbital Energies [Eh]
    ---------------------

    Doubly Occupied:

       1A    -15.633854     2A    -15.590032     3A    -15.579239
       4A    -15.575407     5A    -11.364694     6A    -11.309498
       7A    -11.307347     8A    -11.296750     9A    -11.259892
      10A    -11.249882    11A    -11.238414    12A    -11.217435
      13A     -1.362983    14A     -1.302889    15A     -1.203314
      16A     -1.135422    17A     -1.084854    18A     -1.039645
      19A     -0.964881    20A     -0.906617    21A     -0.891364
      22A     -0.796084    23A     -0.784032    24A     -0.713418
      25A     -0.704799    26A     -0.682391    27A     -0.631113
      28A     -0.630034    29A     -0.605689    30A     -0.587882
      31A     -0.582947    32A     -0.571098    33A     -0.561211
      34A     -0.547222    35A     -0.538563    36A     -0.490068
      37A     -0.462411    38A     -0.428720    39A     -0.419110
      40A     -0.411135    41A     -0.348166    42A     -0.328459

  @DF-RHF Final Energy:  -525.53516947722926

   => Energetics <=

    Nuclear Repulsion Energy =            655.6335681527954193
    One-Electron Energy =               -2013.6595435878175522
    Two-Electron Energy =                 832.4908059577929862
    Total Energy =                       -525.5351694772292603
  Basis Set: (AUG-CC-PVTZ AUX)
    Blend: AUG-CC-PVTZ-RI
    Molecular point group: c1

    Geometry (in Angstrom), charge = 0, multiplicity = 1:

       Center              X                  Y                   Z               Mass
    ------------   -----------------  -----------------  -----------------  -----------------
         N            0.819689607119    -0.253482951560    -0.035689328596    14.003074004430
         N            1.401984507119    -1.570994651560    -0.281596428596    14.003074004430
         N           -1.078192392881     1.033100048440    -0.451434328596    14.003074004430
         N           -1.265039392881    -1.197650951560     0.431417671404    14.003074004430
         C            1.763305607119     0.740650048440     0.135910671404    12.000000000000
         C            2.982204607119     0.098756048440     0.010294671404    12.000000000000
         C           -0.586760392881    -0.133974951560    -0.016159328596    12.000000000000
         C            1.457531607119     2.170246048440     0.440349671404    12.000000000000
         C            2.682980607119    -1.253739951560    -0.237627328596    12.000000000000
         C           -2.417495392881     1.138359048440    -0.429541328596    12.000000000000
         C           -2.600326392881    -1.071981951560     0.405924671404    12.000000000000
         C           -3.237872392881     0.092462048440    -0.018934328596    12.000000000000
         H            3.956451607119     0.560463048440     0.101613671404     1.007825032230
         H            1.016781607119     2.684246048440    -0.415774328596     1.007825032230
         H            0.758036607119     2.265867048440     1.275703671404     1.007825032230
         H            2.390020607119     2.670069048440     0.715713671404     1.007825032230
         H            3.359743607119    -2.081663951560    -0.407552328596     1.007825032230
         H           -2.826891392881     2.087060048440    -0.771011328596     1.007825032230
         H           -3.164846392881    -1.934575951560     0.754828671404     1.007825032230
         H           -4.319086392881     0.181394048440    -0.022492328596     1.007825032230

  Basis Set: AUG-CC-PVTZ
    Blend: AUG-CC-PVTZ
  Basis Set: (AUG-CC-PVTZ AUX)
    Blend: AUG-CC-PVTZ-JKFIT
	 Reference Energy          =    -525.5351694772292603 [Eh]
	 Singles Energy            =      -0.0000000000000000 [Eh]
	 Same-Spin Energy          =      -0.5767254818627374 [Eh]
	 Opposite-Spin Energy      =      -1.7396526497619145 [Eh]
	 Correlation Energy        =      -2.3163781316246519 [Eh]
	 Total Energy              =    -527.8515476088539344 [Eh]

	 ================> DF-SCS-MP2 Energies <==================
	-----------------------------------------------------------
	 SCS Same-Spin Scale       =       0.3333333333333333 [-]
	 SCS Opposite-Spin Scale   =       1.2000000000000000 [-]
	 SCS Same-Spin Energy      =      -0.1922418272875791 [Eh]
	 SCS Opposite-Spin Energy  =      -2.0875831797142972 [Eh]
	 SCS Correlation Energy    =      -2.2798250070018762 [Eh]
	 SCS Total Energy          =    -527.8149944842311925 [Eh]
	-----------------------------------------------------------

  Dipole Moment: [D]
     X:    -2.3439      Y:     2.6301      Z:     0.4540     Total:     3.5521

*** Psi4 exiting successfully. Buy a developer a beer!
