                               Psi4 1.4a3.dev225

  ==> Input File <==

--------------------------------------------------------------------------
#psi4
#
memory 32 gb

molecule  {
0 1
  N        0.8160970    -0.2990240    -0.0443680
  N        1.3585440    -1.5263750    -0.2734470
  N       -1.0817850     0.9875590    -0.4601130
  N       -1.2686320    -1.2431920     0.4227390
  C        1.7597130     0.6951090     0.1272320
  C        2.9786120     0.0532150     0.0016160
  C       -0.5903530    -0.1795160    -0.0248380
  C        1.4539390     2.1247050     0.4316710
  C        2.6793880    -1.2992810    -0.2463060
  C       -2.4011521     1.0912512    -0.4385459
  C       -2.6039190    -1.1175230     0.3972460
  C       -3.2414650     0.0469210    -0.0276130
  H        3.9528590     0.5149220     0.0929350
  H        1.0131890     2.6387050    -0.4244530
  H        0.7544440     2.2203260     1.2670250
  H        2.3864280     2.6245280     0.7070350
  H        3.3561510    -2.1272050    -0.4162310
  H       -2.8304840     2.0415190    -0.7796900
  H       -3.1684390    -1.9801170     0.7461500
  H       -4.3226790     0.1358530    -0.0311710
units angstrom
no_reorient  #important for SAPT in psi4, default
symmetry c1  #important for SAPT in psi4, default
}

set PROPERTIES_ORIGIN ["COM"]
properties('MP2/aug-cc-pvtz', properties = ['dipole'])
--------------------------------------------------------------------------

    Molecular point group: c1
  Charge       = 0
  Multiplicity = 1
  Basis Set: AUG-CC-PVTZ
    Blend: AUG-CC-PVTZ
  Basis Set: (AUG-CC-PVTZ AUX)
    Blend: AUG-CC-PVTZ-JKFIT

    Orbital Energies [Eh]
    ---------------------

    Doubly Occupied:

       1A    -15.642560     2A    -15.582090     3A    -15.581765
       4A    -15.578254     5A    -11.368159     6A    -11.311646
       7A    -11.308181     8A    -11.287122     9A    -11.254870
      10A    -11.252725    11A    -11.235170    12A    -11.217680
      13A     -1.387071    14A     -1.315318    15A     -1.209785
      16A     -1.129527    17A     -1.084250    18A     -1.043647
      19A     -0.959251    20A     -0.907544    21A     -0.898020
      22A     -0.800149    23A     -0.795748    24A     -0.714071
      25A     -0.707383    26A     -0.682411    27A     -0.639002
      28A     -0.633424    29A     -0.606461    30A     -0.589789
      31A     -0.585890    32A     -0.575924    33A     -0.564514
      34A     -0.553450    35A     -0.536351    36A     -0.492607
      37A     -0.455272    38A     -0.433397    39A     -0.419453
      40A     -0.406597    41A     -0.337365    42A     -0.332705

  @DF-RHF Final Energy:  -525.54380771191836

   => Energetics <=

    Nuclear Repulsion Energy =            658.6039613115548264
    One-Electron Energy =               -2019.4623484370674760
    Two-Electron Energy =                 835.3145794135944016
    Total Energy =                       -525.5438077119183617
  Basis Set: (AUG-CC-PVTZ AUX)
    Blend: AUG-CC-PVTZ-RI
    Molecular point group: c1

    Geometry (in Angstrom), charge = 0, multiplicity = 1:

       Center              X                  Y                   Z               Mass
    ------------   -----------------  -----------------  -----------------  -----------------
         N            0.821680939301    -0.261252598040    -0.037136990503    14.003074004430
         N            1.364127939301    -1.488603598040    -0.266215990503    14.003074004430
         N           -1.076201060699     1.025330401960    -0.452881990503    14.003074004430
         N           -1.263048060699    -1.205420598040     0.429970009497    14.003074004430
         C            1.765296939301     0.732880401960     0.134463009497    12.000000000000
         C            2.984195939301     0.090986401960     0.008847009497    12.000000000000
         C           -0.584769060699    -0.141744598040    -0.017606990503    12.000000000000
         C            1.459522939301     2.162476401960     0.438902009497    12.000000000000
         C            2.684971939301    -1.261509598040    -0.239074990503    12.000000000000
         C           -2.395568160699     1.129022601960    -0.431314890503    12.000000000000
         C           -2.598335060699    -1.079751598040     0.404477009497    12.000000000000
         C           -3.235881060699     0.084692401960    -0.020381990503    12.000000000000
         H            3.958442939301     0.552693401960     0.100166009497     1.007825032230
         H            1.018772939301     2.676476401960    -0.417221990503     1.007825032230
         H            0.760027939301     2.258097401960     1.274256009497     1.007825032230
         H            2.392011939301     2.662299401960     0.714266009497     1.007825032230
         H            3.361734939301    -2.089433598040    -0.408999990503     1.007825032230
         H           -2.824900060699     2.079290401960    -0.772458990503     1.007825032230
         H           -3.162855060699    -1.942345598040     0.753381009497     1.007825032230
         H           -4.317095060699     0.173624401960    -0.023939990503     1.007825032230

  Basis Set: AUG-CC-PVTZ
    Blend: AUG-CC-PVTZ
  Basis Set: (AUG-CC-PVTZ AUX)
    Blend: AUG-CC-PVTZ-JKFIT
	 Reference Energy          =    -525.5438077119183617 [Eh]
	 Singles Energy            =      -0.0000000000000000 [Eh]
	 Same-Spin Energy          =      -0.5774249624326521 [Eh]
	 Opposite-Spin Energy      =      -1.7382389213845366 [Eh]
	 Correlation Energy        =      -2.3156638838171886 [Eh]
	 Total Energy              =    -527.8594715957354992 [Eh]

	 ================> DF-SCS-MP2 Energies <==================
	-----------------------------------------------------------
	 SCS Same-Spin Scale       =       0.3333333333333333 [-]
	 SCS Opposite-Spin Scale   =       1.2000000000000000 [-]
	 SCS Same-Spin Energy      =      -0.1924749874775507 [Eh]
	 SCS Opposite-Spin Energy  =      -2.0858867056614439 [Eh]
	 SCS Correlation Energy    =      -2.2783616931389945 [Eh]
	 SCS Total Energy          =    -527.8221694050573660 [Eh]
	-----------------------------------------------------------

  Dipole Moment: [D]
     X:    -2.5392      Y:     2.5596      Z:     0.4363     Total:     3.6317

*** Psi4 exiting successfully. Buy a developer a beer!
