                               Psi4 1.3.2 release

  ==> Input File <==

--------------------------------------------------------------------------
#psi4
#
memory 32 gb

molecule  {
0 1
  N        0.8160970    -0.2990240    -0.0443680
  N        1.3585440    -1.5263750    -0.2734470
  N       -1.0817850     0.9875590    -0.4601130
  N       -1.2686320    -1.2431920     0.4227390
  C        1.7597130     0.6951090     0.1272320
  C        3.0737788     0.0297702    -0.0048010
  C       -0.5903530    -0.1795160    -0.0248380
  C        1.4539390     2.1247050     0.4316710
  C        2.6793880    -1.2992810    -0.2463060
  C       -2.4210880     1.0928180    -0.4382200
  C       -2.6039190    -1.1175230     0.3972460
  C       -3.2414650     0.0469210    -0.0276130
  H        3.9528590     0.5149220     0.0929350
  H        1.0131890     2.6387050    -0.4244530
  H        0.7544440     2.2203260     1.2670250
  H        2.3864280     2.6245280     0.7070350
  H        3.3561510    -2.1272050    -0.4162310
  H       -2.8304840     2.0415190    -0.7796900
  H       -3.1684390    -1.9801170     0.7461500
  H       -4.3226790     0.1358530    -0.0311710
units angstrom
no_reorient  #important for SAPT in psi4, default
symmetry c1  #important for SAPT in psi4, default
}

set PROPERTIES_ORIGIN ["COM"]
properties('MP2/aug-cc-pvtz', properties = ['dipole'])
--------------------------------------------------------------------------

    Molecular point group: c1
  Charge       = 0
  Multiplicity = 1
  Basis Set: AUG-CC-PVTZ
    Blend: AUG-CC-PVTZ
  Basis Set: (AUG-CC-PVTZ AUX)
    Blend: AUG-CC-PVTZ-JKFIT

    Orbital Energies [Eh]
    ---------------------

    Doubly Occupied:

       1A    -15.648312     2A    -15.584697     3A    -15.580899
       4A    -15.576780     5A    -11.369676     6A    -11.313055
       7A    -11.311021     8A    -11.300088     9A    -11.255878
      10A    -11.254683    11A    -11.236034    12A    -11.220897
      13A     -1.385160    14A     -1.312645    15A     -1.207914
      16A     -1.129699    17A     -1.076976    18A     -1.043969
      19A     -0.957962    20A     -0.910619    21A     -0.899387
      22A     -0.804257    23A     -0.796215    24A     -0.714616
      25A     -0.705437    26A     -0.683243    27A     -0.639642
      28A     -0.636574    29A     -0.614229    30A     -0.595440
      31A     -0.586978    32A     -0.576895    33A     -0.570168
      34A     -0.552996    35A     -0.516566    36A     -0.491893
      37A     -0.455477    38A     -0.431991    39A     -0.421894
      40A     -0.408068    41A     -0.341135    42A     -0.320203

  @DF-RHF Final Energy:  -525.52794813679043

   => Energetics <=

    Nuclear Repulsion Energy =            656.2081799539016629
    One-Electron Energy =               -2014.5917250258285094
    Two-Electron Energy =                 832.8555969351364183
    Total Energy =                       -525.5279481367904282
  Basis Set: (AUG-CC-PVTZ AUX)
    Blend: AUG-CC-PVTZ-RI
    Molecular point group: c1

    Geometry (in Angstrom), charge = 0, multiplicity = 1:

       Center              X                  Y                   Z               Mass
    ------------   -----------------  -----------------  -----------------  -----------------
         N            0.816041261744    -0.259612515765    -0.036680371748    14.003074004430
         N            1.358488261744    -1.486963515765    -0.265759371748    14.003074004430
         N           -1.081840738256     1.026970484235    -0.452425371748    14.003074004430
         N           -1.268687738256    -1.203780515765     0.430426628252    14.003074004430
         C            1.759657261744     0.734520484235     0.134919628252    12.000000000000
         C            3.073723061744     0.069181684235     0.002886628252    12.000000000000
         C           -0.590408738256    -0.140104515765    -0.017150371748    12.000000000000
         C            1.453883261744     2.164116484235     0.439358628252    12.000000000000
         C            2.679332261744    -1.259869515765    -0.238618371748    12.000000000000
         C           -2.421143738256     1.132229484235    -0.430532371748    12.000000000000
         C           -2.603974738256    -1.078111515765     0.404933628252    12.000000000000
         C           -3.241520738256     0.086332484235    -0.019925371748    12.000000000000
         H            3.952803261744     0.554333484235     0.100622628252     1.007825032230
         H            1.013133261744     2.678116484235    -0.416765371748     1.007825032230
         H            0.754388261744     2.259737484235     1.274712628252     1.007825032230
         H            2.386372261744     2.663939484235     0.714722628252     1.007825032230
         H            3.356095261744    -2.087793515765    -0.408543371748     1.007825032230
         H           -2.830539738256     2.080930484235    -0.772002371748     1.007825032230
         H           -3.168494738256    -1.940705515765     0.753837628252     1.007825032230
         H           -4.322734738256     0.175264484235    -0.023483371748     1.007825032230

  Basis Set: AUG-CC-PVTZ
    Blend: AUG-CC-PVTZ
  Basis Set: (AUG-CC-PVTZ AUX)
    Blend: AUG-CC-PVTZ-JKFIT
	 Reference Energy          =    -525.5279481367904282 [Eh]
	 Singles Energy            =      -0.0000000000000000 [Eh]
	 Same-Spin Energy          =      -0.5784833313863615 [Eh]
	 Opposite-Spin Energy      =      -1.7404747307137911 [Eh]
	 Correlation Energy        =      -2.3189580621001529 [Eh]
	 Total Energy              =    -527.8469061988905651 [Eh]

	 ================> DF-SCS-MP2 Energies <==================
	-----------------------------------------------------------
	 SCS Same-Spin Scale       =       0.3333333333333333 [-]
	 SCS Opposite-Spin Scale   =       1.2000000000000000 [-]
	 SCS Same-Spin Energy      =      -0.1928277771287872 [Eh]
	 SCS Opposite-Spin Energy  =      -2.0885696768565492 [Eh]
	 SCS Correlation Energy    =      -2.2813974539853366 [Eh]
	 SCS Total Energy          =    -527.8093455907758198 [Eh]
	-----------------------------------------------------------

  Dipole Moment: [D]
     X:    -2.7819      Y:     2.5936      Z:     0.4498     Total:     3.8299

*** Psi4 exiting successfully. Buy a developer a beer!
