                               Psi4 1.3.2 release

  ==> Input File <==

--------------------------------------------------------------------------
#psi4
#
memory 32 gb

molecule  {
0 1
  N        0.8160970    -0.2990240    -0.0443680
  N        1.3585440    -1.5263750    -0.2734470
  N       -1.0817850     0.9875590    -0.4601130
  N       -1.2686320    -1.2431920     0.4227390
  C        1.7376305     0.6528613     0.1195621
  C        2.9786120     0.0532150     0.0016160
  C       -0.5903530    -0.1795160    -0.0248380
  C        1.4539390     2.1247050     0.4316710
  C        2.6793880    -1.2992810    -0.2463060
  C       -2.4210880     1.0928180    -0.4382200
  C       -2.6039190    -1.1175230     0.3972460
  C       -3.2414650     0.0469210    -0.0276130
  H        3.9528590     0.5149220     0.0929350
  H        1.0131890     2.6387050    -0.4244530
  H        0.7544440     2.2203260     1.2670250
  H        2.3864280     2.6245280     0.7070350
  H        3.3561510    -2.1272050    -0.4162310
  H       -2.8304840     2.0415190    -0.7796900
  H       -3.1684390    -1.9801170     0.7461500
  H       -4.3226790     0.1358530    -0.0311710
units angstrom
no_reorient  #important for SAPT in psi4, default
symmetry c1  #important for SAPT in psi4, default
}

set PROPERTIES_ORIGIN ["COM"]
properties('MP2/aug-cc-pvtz', properties = ['dipole'])
--------------------------------------------------------------------------

    Molecular point group: c1
  Charge       = 0
  Multiplicity = 1
  Basis Set: AUG-CC-PVTZ
    Blend: AUG-CC-PVTZ
  Basis Set: (AUG-CC-PVTZ AUX)
    Blend: AUG-CC-PVTZ-JKFIT

    Orbital Energies [Eh]
    ---------------------

    Doubly Occupied:

       1A    -15.643920     2A    -15.584442     3A    -15.580780
       4A    -15.576765     5A    -11.369726     6A    -11.312881
       7A    -11.310885     8A    -11.283767     9A    -11.254502
      10A    -11.253852    11A    -11.235560    12A    -11.213886
      13A     -1.394697    14A     -1.315562    15A     -1.207855
      16A     -1.132495    17A     -1.082981    18A     -1.046079
      19A     -0.953596    20A     -0.910659    21A     -0.901451
      22A     -0.802789    23A     -0.799897    24A     -0.714645
      25A     -0.706655    26A     -0.681679    27A     -0.642181
      28A     -0.634911    29A     -0.607838    30A     -0.592953
      31A     -0.586209    32A     -0.574539    33A     -0.563650
      34A     -0.553504    35A     -0.524694    36A     -0.493639
      37A     -0.454060    38A     -0.431748    39A     -0.421441
      40A     -0.408651    41A     -0.342387    42A     -0.330615

  @DF-RHF Final Energy:  -525.54321789412802

   => Energetics <=

    Nuclear Repulsion Energy =            659.0666157266671235
    One-Electron Energy =               -2020.3496112801988147
    Two-Electron Energy =                 835.7397776594036714
    Total Energy =                       -525.5432178941280199
  Basis Set: (AUG-CC-PVTZ AUX)
    Blend: AUG-CC-PVTZ-RI
    Molecular point group: c1

    Geometry (in Angstrom), charge = 0, multiplicity = 1:

       Center              X                  Y                   Z               Mass
    ------------   -----------------  -----------------  -----------------  -----------------
         N            0.824830844825    -0.258202958082    -0.036586448213    14.003074004430
         N            1.367277844825    -1.485553958082    -0.265665448213    14.003074004430
         N           -1.073051155175     1.028380041918    -0.452331448213    14.003074004430
         N           -1.259898155175    -1.202370958082     0.430520551787    14.003074004430
         C            1.746364344825     0.693682341918     0.127343651787    12.000000000000
         C            2.987345844825     0.094036041918     0.009397551787    12.000000000000
         C           -0.581619155175    -0.138694958082    -0.017056448213    12.000000000000
         C            1.462672844825     2.165526041918     0.439452551787    12.000000000000
         C            2.688121844825    -1.258459958082    -0.238524448213    12.000000000000
         C           -2.412354155175     1.133639041918    -0.430438448213    12.000000000000
         C           -2.595185155175    -1.076701958082     0.405027551787    12.000000000000
         C           -3.232731155175     0.087742041918    -0.019831448213    12.000000000000
         H            3.961592844825     0.555743041918     0.100716551787     1.007825032230
         H            1.021922844825     2.679526041918    -0.416671448213     1.007825032230
         H            0.763177844825     2.261147041918     1.274806551787     1.007825032230
         H            2.395161844825     2.665349041918     0.714816551787     1.007825032230
         H            3.364884844825    -2.086383958082    -0.408449448213     1.007825032230
         H           -2.821750155175     2.082340041918    -0.771908448213     1.007825032230
         H           -3.159705155175    -1.939295958082     0.753931551787     1.007825032230
         H           -4.313945155175     0.176674041918    -0.023389448213     1.007825032230

  Basis Set: AUG-CC-PVTZ
    Blend: AUG-CC-PVTZ
  Basis Set: (AUG-CC-PVTZ AUX)
    Blend: AUG-CC-PVTZ-JKFIT
	 Reference Energy          =    -525.5432178941280199 [Eh]
	 Singles Energy            =      -0.0000000000000000 [Eh]
	 Same-Spin Energy          =      -0.5769800348123486 [Eh]
	 Opposite-Spin Energy      =      -1.7374451660385017 [Eh]
	 Correlation Energy        =      -2.3144252008508506 [Eh]
	 Total Energy              =    -527.8576430949789255 [Eh]

	 ================> DF-SCS-MP2 Energies <==================
	-----------------------------------------------------------
	 SCS Same-Spin Scale       =       0.3333333333333333 [-]
	 SCS Opposite-Spin Scale   =       1.2000000000000000 [-]
	 SCS Same-Spin Energy      =      -0.1923266782707829 [Eh]
	 SCS Opposite-Spin Energy  =      -2.0849341992462018 [Eh]
	 SCS Correlation Energy    =      -2.2772608775169845 [Eh]
	 SCS Total Energy          =    -527.8204787716449573 [Eh]
	-----------------------------------------------------------

  Dipole Moment: [D]
     X:    -2.7334      Y:     2.5266      Z:     0.4327     Total:     3.7473

*** Psi4 exiting successfully. Buy a developer a beer!
