                               Psi4 1.3.2 release

  ==> Input File <==

--------------------------------------------------------------------------
#psi4
#
memory 32 gb

molecule  {
0 1
  N        0.8160970    -0.2990240    -0.0443680
  N        1.3585440    -1.5263750    -0.2734470
  N       -1.0817850     0.9875590    -0.4601130
  N       -1.2686320    -1.2431920     0.4227390
  C        1.7597130     0.6951090     0.1272320
  C        2.9786120     0.0532150     0.0016160
  C       -0.5903530    -0.1795160    -0.0248380
  C        1.4539390     2.1247050     0.4316710
  C        2.6793880    -1.2992810    -0.2463060
  C       -2.5429726     1.1685503    -0.4630129
  C       -2.6039190    -1.1175230     0.3972460
  C       -3.2414650     0.0469210    -0.0276130
  H        3.9528590     0.5149220     0.0929350
  H        1.0131890     2.6387050    -0.4244530
  H        0.7544440     2.2203260     1.2670250
  H        2.3864280     2.6245280     0.7070350
  H        3.3561510    -2.1272050    -0.4162310
  H       -2.8304840     2.0415190    -0.7796900
  H       -3.1684390    -1.9801170     0.7461500
  H       -4.3226790     0.1358530    -0.0311710
units angstrom
no_reorient  #important for SAPT in psi4, default
symmetry c1  #important for SAPT in psi4, default
}

set PROPERTIES_ORIGIN ["COM"]
properties('MP2/aug-cc-pvtz', properties = ['dipole'])
--------------------------------------------------------------------------

    Molecular point group: c1
  Charge       = 0
  Multiplicity = 1
  Basis Set: AUG-CC-PVTZ
    Blend: AUG-CC-PVTZ
  Basis Set: (AUG-CC-PVTZ AUX)
    Blend: AUG-CC-PVTZ-JKFIT

    Orbital Energies [Eh]
    ---------------------

    Doubly Occupied:

       1A    -15.639787     2A    -15.584611     3A    -15.581497
       4A    -15.579641     5A    -11.363354     6A    -11.316859
       7A    -11.314529     8A    -11.284435     9A    -11.260690
      10A    -11.252502    11A    -11.232126    12A    -11.215100
      13A     -1.382476    14A     -1.298465    15A     -1.184174
      16A     -1.125410    17A     -1.082481    18A     -1.045730
      19A     -0.956227    20A     -0.924828    21A     -0.887831
      22A     -0.807092    23A     -0.792769    24A     -0.713279
      25A     -0.700934    26A     -0.680676    27A     -0.648413
      28A     -0.632149    29A     -0.617255    30A     -0.591227
      31A     -0.586056    32A     -0.569386    33A     -0.560415
      34A     -0.547458    35A     -0.532654    36A     -0.478753
      37A     -0.452345    38A     -0.420406    39A     -0.414555
      40A     -0.409023    41A     -0.338731    42A     -0.330322

  @DF-RHF Final Energy:  -525.51048215701792

   => Energetics <=

    Nuclear Repulsion Energy =            655.2328402769985587
    One-Electron Energy =               -2012.8133419860323556
    Two-Electron Energy =                 832.0700195520158786
    Total Energy =                       -525.5104821570179183
  Basis Set: (AUG-CC-PVTZ AUX)
    Blend: AUG-CC-PVTZ-RI
    Molecular point group: c1

    Geometry (in Angstrom), charge = 0, multiplicity = 1:

       Center              X                  Y                   Z               Mass
    ------------   -----------------  -----------------  -----------------  -----------------
         N            0.832312500150    -0.267047318022    -0.035302824080    14.003074004430
         N            1.374759500150    -1.494398318022    -0.264381824080    14.003074004430
         N           -1.065569499850     1.019535681978    -0.451047824080    14.003074004430
         N           -1.252416499850    -1.211215318022     0.431804175920    14.003074004430
         C            1.775928500150     0.727085681978     0.136297175920    12.000000000000
         C            2.994827500150     0.085191681978     0.010681175920    12.000000000000
         C           -0.574137499850    -0.147539318022    -0.015772824080    12.000000000000
         C            1.470154500150     2.156681681978     0.440736175920    12.000000000000
         C            2.695603500150    -1.267304318022    -0.237240824080    12.000000000000
         C           -2.526757099850     1.200526981978    -0.453947724080    12.000000000000
         C           -2.587703499850    -1.085546318022     0.406311175920    12.000000000000
         C           -3.225249499850     0.078897681978    -0.018547824080    12.000000000000
         H            3.969074500150     0.546898681978     0.102000175920     1.007825032230
         H            1.029404500150     2.670681681978    -0.415387824080     1.007825032230
         H            0.770659500150     2.252302681978     1.276090175920     1.007825032230
         H            2.402643500150     2.656504681978     0.716100175920     1.007825032230
         H            3.372366500150    -2.095228318022    -0.407165824080     1.007825032230
         H           -2.814268499850     2.073495681978    -0.770624824080     1.007825032230
         H           -3.152223499850    -1.948140318022     0.755215175920     1.007825032230
         H           -4.306463499850     0.167829681978    -0.022105824080     1.007825032230

  Basis Set: AUG-CC-PVTZ
    Blend: AUG-CC-PVTZ
  Basis Set: (AUG-CC-PVTZ AUX)
    Blend: AUG-CC-PVTZ-JKFIT
	 Reference Energy          =    -525.5104821570179183 [Eh]
	 Singles Energy            =      -0.0000000000000000 [Eh]
	 Same-Spin Energy          =      -0.5789531739813134 [Eh]
	 Opposite-Spin Energy      =      -1.7435084180869080 [Eh]
	 Correlation Energy        =      -2.3224615920682217 [Eh]
	 Total Energy              =    -527.8329437490860983 [Eh]

	 ================> DF-SCS-MP2 Energies <==================
	-----------------------------------------------------------
	 SCS Same-Spin Scale       =       0.3333333333333333 [-]
	 SCS Opposite-Spin Scale   =       1.2000000000000000 [-]
	 SCS Same-Spin Energy      =      -0.1929843913271045 [Eh]
	 SCS Opposite-Spin Energy  =      -2.0922101017042896 [Eh]
	 SCS Correlation Energy    =      -2.2851944930313941 [Eh]
	 SCS Total Energy          =    -527.7956766500493586 [Eh]
	-----------------------------------------------------------

  Dipole Moment: [D]
     X:    -2.8109      Y:     2.6155      Z:     0.4253     Total:     3.8630

*** Psi4 exiting successfully. Buy a developer a beer!
