                               Psi4 1.3.2 release

  ==> Input File <==

--------------------------------------------------------------------------
#psi4
#
memory 32 gb

molecule  {
0 1
  N        0.7815021    -0.2663829    -0.0364592
  N        1.3585440    -1.5263750    -0.2734470
  N       -1.0817850     0.9875590    -0.4601130
  N       -1.2686320    -1.2431920     0.4227390
  C        1.7597130     0.6951090     0.1272320
  C        2.9786120     0.0532150     0.0016160
  C       -0.5903530    -0.1795160    -0.0248380
  C        1.4539390     2.1247050     0.4316710
  C        2.6793880    -1.2992810    -0.2463060
  C       -2.4210880     1.0928180    -0.4382200
  C       -2.6039190    -1.1175230     0.3972460
  C       -3.2414650     0.0469210    -0.0276130
  H        3.9528590     0.5149220     0.0929350
  H        1.0131890     2.6387050    -0.4244530
  H        0.7544440     2.2203260     1.2670250
  H        2.3864280     2.6245280     0.7070350
  H        3.3561510    -2.1272050    -0.4162310
  H       -2.8304840     2.0415190    -0.7796900
  H       -3.1684390    -1.9801170     0.7461500
  H       -4.3226790     0.1358530    -0.0311710
units angstrom
no_reorient  #important for SAPT in psi4, default
symmetry c1  #important for SAPT in psi4, default
}

set PROPERTIES_ORIGIN ["COM"]
properties('MP2/aug-cc-pvtz', properties = ['dipole'])
--------------------------------------------------------------------------

    Molecular point group: c1
  Charge       = 0
  Multiplicity = 1
  Basis Set: AUG-CC-PVTZ
    Blend: AUG-CC-PVTZ
  Basis Set: (AUG-CC-PVTZ AUX)
    Blend: AUG-CC-PVTZ-JKFIT

    Orbital Energies [Eh]
    ---------------------

    Doubly Occupied:

       1A    -15.639157     2A    -15.583772     3A    -15.578517
       4A    -15.575716     5A    -11.363731     6A    -11.309146
       7A    -11.307609     8A    -11.292277     9A    -11.260621
      10A    -11.249834    11A    -11.234473    12A    -11.219812
      13A     -1.379823    14A     -1.306135    15A     -1.203948
      16A     -1.136318    17A     -1.082956    18A     -1.044204
      19A     -0.958411    20A     -0.907831    21A     -0.898652
      22A     -0.802174    23A     -0.793325    24A     -0.712942
      25A     -0.704946    26A     -0.681543    27A     -0.637784
      28A     -0.633788    29A     -0.606825    30A     -0.594802
      31A     -0.585388    32A     -0.573980    33A     -0.560890
      34A     -0.548212    35A     -0.537765    36A     -0.491332
      37A     -0.452150    38A     -0.428650    39A     -0.417656
      40A     -0.411479    41A     -0.340069    42A     -0.331142

  @DF-RHF Final Energy:  -525.54047519501194

   => Energetics <=

    Nuclear Repulsion Energy =            658.3246184844281288
    One-Electron Energy =               -2018.9706197251662161
    Two-Electron Energy =                 835.1055260457261511
    Total Energy =                       -525.5404751950119362
  Basis Set: (AUG-CC-PVTZ AUX)
    Blend: AUG-CC-PVTZ-RI
    Molecular point group: c1

    Geometry (in Angstrom), charge = 0, multiplicity = 1:

       Center              X                  Y                   Z               Mass
    ------------   -----------------  -----------------  -----------------  -----------------
         N            0.791606834015    -0.231584339816    -0.029944469660    14.003074004430
         N            1.368648734015    -1.491576439816    -0.266932269660    14.003074004430
         N           -1.071680265985     1.022357560184    -0.453598269660    14.003074004430
         N           -1.258527265985    -1.208393439816     0.429253730340    14.003074004430
         C            1.769817734015     0.729907560184     0.133746730340    12.000000000000
         C            2.988716734015     0.088013560184     0.008130730340    12.000000000000
         C           -0.580248265985    -0.144717439816    -0.018323269660    12.000000000000
         C            1.464043734015     2.159503560184     0.438185730340    12.000000000000
         C            2.689492734015    -1.264482439816    -0.239791269660    12.000000000000
         C           -2.410983265985     1.127616560184    -0.431705269660    12.000000000000
         C           -2.593814265985    -1.082724439816     0.403760730340    12.000000000000
         C           -3.231360265985     0.081719560184    -0.021098269660    12.000000000000
         H            3.962963734015     0.549720560184     0.099449730340     1.007825032230
         H            1.023293734015     2.673503560184    -0.417938269660     1.007825032230
         H            0.764548734015     2.255124560184     1.273539730340     1.007825032230
         H            2.396532734015     2.659326560184     0.713549730340     1.007825032230
         H            3.366255734015    -2.092406439816    -0.409716269660     1.007825032230
         H           -2.820379265985     2.076317560184    -0.773175269660     1.007825032230
         H           -3.158334265985    -1.945318439816     0.752664730340     1.007825032230
         H           -4.312574265985     0.170651560184    -0.024656269660     1.007825032230

  Basis Set: AUG-CC-PVTZ
    Blend: AUG-CC-PVTZ
  Basis Set: (AUG-CC-PVTZ AUX)
    Blend: AUG-CC-PVTZ-JKFIT
	 Reference Energy          =    -525.5404751950119362 [Eh]
	 Singles Energy            =      -0.0000000000000000 [Eh]
	 Same-Spin Energy          =      -0.5772301320056498 [Eh]
	 Opposite-Spin Energy      =      -1.7391068314657265 [Eh]
	 Correlation Energy        =      -2.3163369634713762 [Eh]
	 Total Energy              =    -527.8568121584833079 [Eh]

	 ================> DF-SCS-MP2 Energies <==================
	-----------------------------------------------------------
	 SCS Same-Spin Scale       =       0.3333333333333333 [-]
	 SCS Opposite-Spin Scale   =       1.2000000000000000 [-]
	 SCS Same-Spin Energy      =      -0.1924100440018832 [Eh]
	 SCS Opposite-Spin Energy  =      -2.0869281977588718 [Eh]
	 SCS Correlation Energy    =      -2.2793382417607551 [Eh]
	 SCS Total Energy          =    -527.8198134367727334 [Eh]
	-----------------------------------------------------------

  Dipole Moment: [D]
     X:    -2.2881      Y:     2.4978      Z:     0.4333     Total:     3.4150

*** Psi4 exiting successfully. Buy a developer a beer!
