                               Psi4 1.3.2 release

  ==> Input File <==

--------------------------------------------------------------------------
#psi4
#
memory 32 gb

molecule  {
0 1
  N        0.8160970    -0.2990240    -0.0443680
  N        1.3585440    -1.5263750    -0.2734470
  N       -1.0817850     0.9875590    -0.4601130
  N       -1.2686320    -1.2431920     0.4227390
  C        1.7597130     0.6951090     0.1272320
  C        2.9786120     0.0532150     0.0016160
  C       -0.5903530    -0.1795160    -0.0248380
  C        1.4539390     2.1247050     0.4316710
  C        2.6793880    -1.2992810    -0.2463060
  C       -2.5429971     1.1681689    -0.4640334
  C       -2.6039190    -1.1175230     0.3972460
  C       -3.2414650     0.0469210    -0.0276130
  H        3.9528590     0.5149220     0.0929350
  H        1.0131890     2.6387050    -0.4244530
  H        0.7544440     2.2203260     1.2670250
  H        2.3864280     2.6245280     0.7070350
  H        3.3561510    -2.1272050    -0.4162310
  H       -2.8304840     2.0415190    -0.7796900
  H       -3.1684390    -1.9801170     0.7461500
  H       -4.3226790     0.1358530    -0.0311710
units angstrom
no_reorient  #important for SAPT in psi4, default
symmetry c1  #important for SAPT in psi4, default
}

set PROPERTIES_ORIGIN ["COM"]
properties('MP2/aug-cc-pvtz', properties = ['dipole'])
--------------------------------------------------------------------------

    Molecular point group: c1
  Charge       = 0
  Multiplicity = 1
  Basis Set: AUG-CC-PVTZ
    Blend: AUG-CC-PVTZ
  Basis Set: (AUG-CC-PVTZ AUX)
    Blend: AUG-CC-PVTZ-JKFIT

    Orbital Energies [Eh]
    ---------------------

    Doubly Occupied:

       1A    -15.639785     2A    -15.584609     3A    -15.581498
       4A    -15.579642     5A    -11.363357     6A    -11.316860
       7A    -11.314529     8A    -11.284433     9A    -11.260688
      10A    -11.252500    11A    -11.232125    12A    -11.215099
      13A     -1.382476    14A     -1.298466    15A     -1.184177
      16A     -1.125411    17A     -1.082480    18A     -1.045730
      19A     -0.956227    20A     -0.924828    21A     -0.887832
      22A     -0.807092    23A     -0.792769    24A     -0.713279
      25A     -0.700935    26A     -0.680677    27A     -0.648407
      28A     -0.632152    29A     -0.617265    30A     -0.591222
      31A     -0.586055    32A     -0.569392    33A     -0.560415
      34A     -0.547455    35A     -0.532654    36A     -0.478752
      37A     -0.452343    38A     -0.420410    39A     -0.414557
      40A     -0.409026    41A     -0.338725    42A     -0.330322

  @DF-RHF Final Energy:  -525.51048667131874

   => Energetics <=

    Nuclear Repulsion Energy =            655.2325810905635990
    One-Electron Energy =               -2012.8128218601714252
    Two-Electron Energy =                 832.0697540982890814
    Total Energy =                       -525.5104866713187448
  Basis Set: (AUG-CC-PVTZ AUX)
    Blend: AUG-CC-PVTZ-RI
    Molecular point group: c1

    Geometry (in Angstrom), charge = 0, multiplicity = 1:

       Center              X                  Y                   Z               Mass
    ------------   -----------------  -----------------  -----------------  -----------------
         N            0.832314336790    -0.267018726405    -0.035226322391    14.003074004430
         N            1.374761336790    -1.494369726405    -0.264305322391    14.003074004430
         N           -1.065567663210     1.019564273595    -0.450971322391    14.003074004430
         N           -1.252414663210    -1.211186726405     0.431880677609    14.003074004430
         C            1.775930336790     0.727114273595     0.136373677609    12.000000000000
         C            2.994829336790     0.085220273595     0.010757677609    12.000000000000
         C           -0.574135663210    -0.147510726405    -0.015696322391    12.000000000000
         C            1.470156336790     2.156710273595     0.440812677609    12.000000000000
         C            2.695605336790    -1.267275726405    -0.237164322391    12.000000000000
         C           -2.526779763210     1.200174173595    -0.454891722391    12.000000000000
         C           -2.587701663210    -1.085517726405     0.406387677609    12.000000000000
         C           -3.225247663210     0.078926273595    -0.018471322391    12.000000000000
         H            3.969076336790     0.546927273595     0.102076677609     1.007825032230
         H            1.029406336790     2.670710273595    -0.415311322391     1.007825032230
         H            0.770661336790     2.252331273595     1.276166677609     1.007825032230
         H            2.402645336790     2.656533273595     0.716176677609     1.007825032230
         H            3.372368336790    -2.095199726405    -0.407089322391     1.007825032230
         H           -2.814266663210     2.073524273595    -0.770548322391     1.007825032230
         H           -3.152221663210    -1.948111726405     0.755291677609     1.007825032230
         H           -4.306461663210     0.167858273595    -0.022029322391     1.007825032230

  Basis Set: AUG-CC-PVTZ
    Blend: AUG-CC-PVTZ
  Basis Set: (AUG-CC-PVTZ AUX)
    Blend: AUG-CC-PVTZ-JKFIT
	 Reference Energy          =    -525.5104866713187448 [Eh]
	 Singles Energy            =      -0.0000000000000000 [Eh]
	 Same-Spin Energy          =      -0.5789528413375753 [Eh]
	 Opposite-Spin Energy      =      -1.7435074166749756 [Eh]
	 Correlation Energy        =      -2.3224602580125508 [Eh]
	 Total Energy              =    -527.8329469293313423 [Eh]

	 ================> DF-SCS-MP2 Energies <==================
	-----------------------------------------------------------
	 SCS Same-Spin Scale       =       0.3333333333333333 [-]
	 SCS Opposite-Spin Scale   =       1.2000000000000000 [-]
	 SCS Same-Spin Energy      =      -0.1929842804458584 [Eh]
	 SCS Opposite-Spin Energy  =      -2.0922089000099704 [Eh]
	 SCS Correlation Energy    =      -2.2851931804558290 [Eh]
	 SCS Total Energy          =    -527.7956798517745938 [Eh]
	-----------------------------------------------------------

  Dipole Moment: [D]
     X:    -2.8111      Y:     2.6156      Z:     0.4254     Total:     3.8632

*** Psi4 exiting successfully. Buy a developer a beer!
