                               Psi4 1.3.2 release

  ==> Input File <==

--------------------------------------------------------------------------
#psi4
#
memory 32 gb

molecule  {
0 1
  N        0.8160970    -0.2990240    -0.0443680
  N        1.3585440    -1.5263750    -0.2734470
  N       -1.0817850     0.9875590    -0.4601130
  N       -1.2686320    -1.2431920     0.4227390
  C        1.7597130     0.6951090     0.1272320
  C        2.9786120     0.0532150     0.0016160
  C       -0.5903530    -0.1795160    -0.0248380
  C        1.4539390     2.1247050     0.4316710
  C        2.6793880    -1.2992810    -0.2463060
  C       -2.4210880     1.0928180    -0.4382200
  C       -2.5043769    -1.1268913     0.3991464
  C       -3.2414650     0.0469210    -0.0276130
  H        3.9528590     0.5149220     0.0929350
  H        1.0131890     2.6387050    -0.4244530
  H        0.7544440     2.2203260     1.2670250
  H        2.3864280     2.6245280     0.7070350
  H        3.3561510    -2.1272050    -0.4162310
  H       -2.8304840     2.0415190    -0.7796900
  H       -3.1684390    -1.9801170     0.7461500
  H       -4.3226790     0.1358530    -0.0311710
units angstrom
no_reorient  #important for SAPT in psi4, default
symmetry c1  #important for SAPT in psi4, default
}

set PROPERTIES_ORIGIN ["COM"]
properties('MP2/aug-cc-pvtz', properties = ['dipole'])
--------------------------------------------------------------------------

    Molecular point group: c1
  Charge       = 0
  Multiplicity = 1
  Basis Set: AUG-CC-PVTZ
    Blend: AUG-CC-PVTZ
  Basis Set: (AUG-CC-PVTZ AUX)
    Blend: AUG-CC-PVTZ-JKFIT

    Orbital Energies [Eh]
    ---------------------

    Doubly Occupied:

       1A    -15.644731     2A    -15.583586     3A    -15.580922
       4A    -15.575441     5A    -11.372638     6A    -11.308457
       7A    -11.304748     8A    -11.288646     9A    -11.256847
      10A    -11.253093    11A    -11.235572    12A    -11.219209
      13A     -1.391392    14A     -1.328690    15A     -1.226932
      16A     -1.129223    17A     -1.084679    18A     -1.038106
      19A     -0.960086    20A     -0.909828    21A     -0.895927
      22A     -0.803426    23A     -0.795306    24A     -0.717540
      25A     -0.707782    26A     -0.681496    27A     -0.641808
      28A     -0.634879    29A     -0.604135    30A     -0.590020
      31A     -0.584066    32A     -0.580325    33A     -0.564852
      34A     -0.555166    35A     -0.537204    36A     -0.493934
      37A     -0.457752    38A     -0.447045    39A     -0.413914
      40A     -0.403217    41A     -0.335166    42A     -0.334041

  @DF-RHF Final Energy:  -525.53350260583932

   => Energetics <=

    Nuclear Repulsion Energy =            659.9426200448032205
    One-Electron Energy =               -2022.0085861866841697
    Two-Electron Energy =                 836.5324635360415186
    Total Energy =                       -525.5335026058393169
  Basis Set: (AUG-CC-PVTZ AUX)
    Blend: AUG-CC-PVTZ-RI
    Molecular point group: c1

    Geometry (in Angstrom), charge = 0, multiplicity = 1:

       Center              X                  Y                   Z               Mass
    ------------   -----------------  -----------------  -----------------  -----------------
         N            0.815713267779    -0.260667759304    -0.037303884880    14.003074004430
         N            1.358160267779    -1.488018759304    -0.266382884880    14.003074004430
         N           -1.082168732221     1.025915240696    -0.453048884880    14.003074004430
         N           -1.269015732221    -1.204835759304     0.429803115120    14.003074004430
         C            1.759329267779     0.733465240696     0.134296115120    12.000000000000
         C            2.978228267779     0.091571240696     0.008680115120    12.000000000000
         C           -0.590736732221    -0.141159759304    -0.017773884880    12.000000000000
         C            1.453555267779     2.163061240696     0.438735115120    12.000000000000
         C            2.679004267779    -1.260924759304    -0.239241884880    12.000000000000
         C           -2.421471732221     1.131174240696    -0.431155884880    12.000000000000
         C           -2.504760632221    -1.088535059304     0.406210515120    12.000000000000
         C           -3.241848732221     0.085277240696    -0.020548884880    12.000000000000
         H            3.952475267779     0.553278240696     0.099999115120     1.007825032230
         H            1.012805267779     2.677061240696    -0.417388884880     1.007825032230
         H            0.754060267779     2.258682240696     1.274089115120     1.007825032230
         H            2.386044267779     2.662884240696     0.714099115120     1.007825032230
         H            3.355767267779    -2.088848759304    -0.409166884880     1.007825032230
         H           -2.830867732221     2.079875240696    -0.772625884880     1.007825032230
         H           -3.168822732221    -1.941760759304     0.753214115120     1.007825032230
         H           -4.323062732221     0.174209240696    -0.024106884880     1.007825032230

  Basis Set: AUG-CC-PVTZ
    Blend: AUG-CC-PVTZ
  Basis Set: (AUG-CC-PVTZ AUX)
    Blend: AUG-CC-PVTZ-JKFIT
	 Reference Energy          =    -525.5335026058393169 [Eh]
	 Singles Energy            =      -0.0000000000000000 [Eh]
	 Same-Spin Energy          =      -0.5765747349231776 [Eh]
	 Opposite-Spin Energy      =      -1.7369569620240028 [Eh]
	 Correlation Energy        =      -2.3135316969471802 [Eh]
	 Total Energy              =    -527.8470343027864828 [Eh]

	 ================> DF-SCS-MP2 Energies <==================
	-----------------------------------------------------------
	 SCS Same-Spin Scale       =       0.3333333333333333 [-]
	 SCS Opposite-Spin Scale   =       1.2000000000000000 [-]
	 SCS Same-Spin Energy      =      -0.1921915783077258 [Eh]
	 SCS Opposite-Spin Energy  =      -2.0843483544288035 [Eh]
	 SCS Correlation Energy    =      -2.2765399327365294 [Eh]
	 SCS Total Energy          =    -527.8100425385758854 [Eh]
	-----------------------------------------------------------

  Dipole Moment: [D]
     X:    -2.3518      Y:     2.5112      Z:     0.4564     Total:     3.4706

*** Psi4 exiting successfully. Buy a developer a beer!
