                               Psi4 1.4a3.dev225

  ==> Input File <==

--------------------------------------------------------------------------
#psi4
#
memory 32 gb

molecule  {
0 1
  N        0.8160970    -0.2990240    -0.0443680
  N        1.3585440    -1.5263750    -0.2734470
  N       -1.0817850     0.9875590    -0.4601130
  N       -1.2686320    -1.2431920     0.4227390
  C        1.7597130     0.6951090     0.1272320
  C        2.9786120     0.0532150     0.0016160
  C       -0.5903530    -0.1795160    -0.0248380
  C        1.4641772     2.0768378     0.4214775
  C        2.6793880    -1.2992810    -0.2463060
  C       -2.4210880     1.0928180    -0.4382200
  C       -2.6039190    -1.1175230     0.3972460
  C       -3.2414650     0.0469210    -0.0276130
  H        3.9528590     0.5149220     0.0929350
  H        1.0131890     2.6387050    -0.4244530
  H        0.7544440     2.2203260     1.2670250
  H        2.3864280     2.6245280     0.7070350
  H        3.3561510    -2.1272050    -0.4162310
  H       -2.8304840     2.0415190    -0.7796900
  H       -3.1684390    -1.9801170     0.7461500
  H       -4.3226790     0.1358530    -0.0311710
units angstrom
no_reorient  #important for SAPT in psi4, default
symmetry c1  #important for SAPT in psi4, default
}

set PROPERTIES_ORIGIN ["COM"]
properties('MP2/aug-cc-pvtz', properties = ['dipole'])
--------------------------------------------------------------------------

    Molecular point group: c1
  Charge       = 0
  Multiplicity = 1
  Basis Set: AUG-CC-PVTZ
    Blend: AUG-CC-PVTZ
  Basis Set: (AUG-CC-PVTZ AUX)
    Blend: AUG-CC-PVTZ-JKFIT

    Orbital Energies [Eh]
    ---------------------

    Doubly Occupied:

       1A    -15.642153     2A    -15.582338     3A    -15.581837
       4A    -15.578687     5A    -11.367402     6A    -11.311464
       7A    -11.309452     8A    -11.284823     9A    -11.254728
      10A    -11.252700    11A    -11.235541    12A    -11.217604
      13A     -1.386815    14A     -1.312646    15A     -1.206056
      16A     -1.130161    17A     -1.089761    18A     -1.045454
      19A     -0.958614    20A     -0.909113    21A     -0.896404
      22A     -0.800791    23A     -0.795674    24A     -0.713750
      25A     -0.708918    26A     -0.684957    27A     -0.638920
      28A     -0.633966    29A     -0.607074    30A     -0.590212
      31A     -0.585578    32A     -0.573539    33A     -0.568871
      34A     -0.546958    35A     -0.535303    36A     -0.490007
      37A     -0.455016    38A     -0.430365    39A     -0.419986
      40A     -0.407845    41A     -0.338167    42A     -0.331133

  @DF-RHF Final Energy:  -525.54015660664231

   => Energetics <=

    Nuclear Repulsion Energy =            659.1831247648179897
    One-Electron Energy =               -2020.6249910612391432
    Two-Electron Energy =                 835.9017096897789543
    Total Energy =                       -525.5401566066423129
  Basis Set: (AUG-CC-PVTZ AUX)
    Blend: AUG-CC-PVTZ-RI
    Molecular point group: c1

    Geometry (in Angstrom), charge = 0, multiplicity = 1:

       Center              X                  Y                   Z               Mass
    ------------   -----------------  -----------------  -----------------  -----------------
         N            0.822407926497    -0.257781692777    -0.036397266769    14.003074004430
         N            1.364854926497    -1.485132692777    -0.265476266769    14.003074004430
         N           -1.075474073503     1.028801307223    -0.452142266769    14.003074004430
         N           -1.262321073503    -1.201949692777     0.430709733231    14.003074004430
         C            1.766023926497     0.736351307223     0.135202733231    12.000000000000
         C            2.984922926497     0.094457307223     0.009586733231    12.000000000000
         C           -0.584042073503    -0.138273692777    -0.016867266769    12.000000000000
         C            1.470488126497     2.118080107223     0.429448233231    12.000000000000
         C            2.685698926497    -1.258038692777    -0.238335266769    12.000000000000
         C           -2.414777073503     1.134060307223    -0.430249266769    12.000000000000
         C           -2.597608073503    -1.076280692777     0.405216733231    12.000000000000
         C           -3.235154073503     0.088163307223    -0.019642266769    12.000000000000
         H            3.959169926497     0.556164307223     0.100905733231     1.007825032230
         H            1.019499926497     2.679947307223    -0.416482266769     1.007825032230
         H            0.760754926497     2.261568307223     1.274995733231     1.007825032230
         H            2.392738926497     2.665770307223     0.715005733231     1.007825032230
         H            3.362461926497    -2.085962692777    -0.408260266769     1.007825032230
         H           -2.824173073503     2.082761307223    -0.771719266769     1.007825032230
         H           -3.162128073503    -1.938874692777     0.754120733231     1.007825032230
         H           -4.316368073503     0.177095307223    -0.023200266769     1.007825032230

  Basis Set: AUG-CC-PVTZ
    Blend: AUG-CC-PVTZ
  Basis Set: (AUG-CC-PVTZ AUX)
    Blend: AUG-CC-PVTZ-JKFIT
	 Reference Energy          =    -525.5401566066423129 [Eh]
	 Singles Energy            =      -0.0000000000000000 [Eh]
	 Same-Spin Energy          =      -0.5781873467146024 [Eh]
	 Opposite-Spin Energy      =      -1.7392615397451689 [Eh]
	 Correlation Energy        =      -2.3174488864597711 [Eh]
	 Total Energy              =    -527.8576054931020280 [Eh]

	 ================> DF-SCS-MP2 Energies <==================
	-----------------------------------------------------------
	 SCS Same-Spin Scale       =       0.3333333333333333 [-]
	 SCS Opposite-Spin Scale   =       1.2000000000000000 [-]
	 SCS Same-Spin Energy      =      -0.1927291155715341 [Eh]
	 SCS Opposite-Spin Energy  =      -2.0871138476942028 [Eh]
	 SCS Correlation Energy    =      -2.2798429632657369 [Eh]
	 SCS Total Energy          =    -527.8199995699080773 [Eh]
	-----------------------------------------------------------

  Dipole Moment: [D]
     X:    -2.5776      Y:     2.5544      Z:     0.4374     Total:     3.6551

*** Psi4 exiting successfully. Buy a developer a beer!
