                               Psi4 1.3.2 release

  ==> Input File <==

--------------------------------------------------------------------------
#psi4
#
memory 32 gb

molecule  {
0 1
  N        0.7943909    -0.3085668    -0.0458710
  N        1.3585440    -1.5263750    -0.2734470
  N       -1.0817850     0.9875590    -0.4601130
  N       -1.2686320    -1.2431920     0.4227390
  C        1.7597130     0.6951090     0.1272320
  C        2.9786120     0.0532150     0.0016160
  C       -0.5903530    -0.1795160    -0.0248380
  C        1.4539390     2.1247050     0.4316710
  C        2.6793880    -1.2992810    -0.2463060
  C       -2.4210880     1.0928180    -0.4382200
  C       -2.6039190    -1.1175230     0.3972460
  C       -3.2414650     0.0469210    -0.0276130
  H        3.9528590     0.5149220     0.0929350
  H        1.0131890     2.6387050    -0.4244530
  H        0.7544440     2.2203260     1.2670250
  H        2.3864280     2.6245280     0.7070350
  H        3.3561510    -2.1272050    -0.4162310
  H       -2.8304840     2.0415190    -0.7796900
  H       -3.1684390    -1.9801170     0.7461500
  H       -4.3226790     0.1358530    -0.0311710
units angstrom
no_reorient  #important for SAPT in psi4, default
symmetry c1  #important for SAPT in psi4, default
}

set PROPERTIES_ORIGIN ["COM"]
properties('MP2/aug-cc-pvtz', properties = ['dipole'])
--------------------------------------------------------------------------

    Molecular point group: c1
  Charge       = 0
  Multiplicity = 1
  Basis Set: AUG-CC-PVTZ
    Blend: AUG-CC-PVTZ
  Basis Set: (AUG-CC-PVTZ AUX)
    Blend: AUG-CC-PVTZ-JKFIT

    Orbital Energies [Eh]
    ---------------------

    Doubly Occupied:

       1A    -15.641748     2A    -15.583151     3A    -15.580847
       4A    -15.576594     5A    -11.365100     6A    -11.310582
       7A    -11.308267     8A    -11.289450     9A    -11.256269
      10A    -11.251148    11A    -11.234726    12A    -11.220047
      13A     -1.385989    14A     -1.310635    15A     -1.204851
      16A     -1.132234    17A     -1.082182    18A     -1.045447
      19A     -0.958689    20A     -0.908475    21A     -0.896627
      22A     -0.801644    23A     -0.793810    24A     -0.712584
      25A     -0.707195    26A     -0.682215    27A     -0.637938
      28A     -0.633976    29A     -0.606960    30A     -0.592930
      31A     -0.585990    32A     -0.574976    33A     -0.563599
      34A     -0.551808    35A     -0.536588    36A     -0.491117
      37A     -0.453440    38A     -0.429603    39A     -0.418894
      40A     -0.409184    41A     -0.337187    42A     -0.332306

  @DF-RHF Final Energy:  -525.54272137762382

   => Energetics <=

    Nuclear Repulsion Energy =            658.2831191343713044
    One-Electron Energy =               -2018.8576769770043029
    Two-Electron Energy =                 835.0318364650092917
    Total Energy =                       -525.5427213776238204
  Basis Set: (AUG-CC-PVTZ AUX)
    Blend: AUG-CC-PVTZ-RI
    Molecular point group: c1

    Geometry (in Angstrom), charge = 0, multiplicity = 1:

       Center              X                  Y                   Z               Mass
    ------------   -----------------  -----------------  -----------------  -----------------
         N            0.803368144169    -0.270078065483    -0.038532941737    14.003074004430
         N            1.367521244169    -1.487886265483    -0.266108941737    14.003074004430
         N           -1.072807755831     1.026047734517    -0.452774941737    14.003074004430
         N           -1.259654755831    -1.204703265483     0.430077058263    14.003074004430
         C            1.768690244169     0.733597734517     0.134570058263    12.000000000000
         C            2.987589244169     0.091703734517     0.008954058263    12.000000000000
         C           -0.581375755831    -0.141027265483    -0.017499941737    12.000000000000
         C            1.462916244169     2.163193734517     0.439009058263    12.000000000000
         C            2.688365244169    -1.260792265483    -0.238967941737    12.000000000000
         C           -2.412110755831     1.131306734517    -0.430881941737    12.000000000000
         C           -2.594941755831    -1.079034265483     0.404584058263    12.000000000000
         C           -3.232487755831     0.085409734517    -0.020274941737    12.000000000000
         H            3.961836244169     0.553410734517     0.100273058263     1.007825032230
         H            1.022166244169     2.677193734517    -0.417114941737     1.007825032230
         H            0.763421244169     2.258814734517     1.274363058263     1.007825032230
         H            2.395405244169     2.663016734517     0.714373058263     1.007825032230
         H            3.365128244169    -2.088716265483    -0.408892941737     1.007825032230
         H           -2.821506755831     2.080007734517    -0.772351941737     1.007825032230
         H           -3.159461755831    -1.941628265483     0.753488058263     1.007825032230
         H           -4.313701755831     0.174341734517    -0.023832941737     1.007825032230

  Basis Set: AUG-CC-PVTZ
    Blend: AUG-CC-PVTZ
  Basis Set: (AUG-CC-PVTZ AUX)
    Blend: AUG-CC-PVTZ-JKFIT
	 Reference Energy          =    -525.5427213776238204 [Eh]
	 Singles Energy            =      -0.0000000000000000 [Eh]
	 Same-Spin Energy          =      -0.5775026846468919 [Eh]
	 Opposite-Spin Energy      =      -1.7387809966729380 [Eh]
	 Correlation Energy        =      -2.3162836813198298 [Eh]
	 Total Energy              =    -527.8590050589436942 [Eh]

	 ================> DF-SCS-MP2 Energies <==================
	-----------------------------------------------------------
	 SCS Same-Spin Scale       =       0.3333333333333333 [-]
	 SCS Opposite-Spin Scale   =       1.2000000000000000 [-]
	 SCS Same-Spin Energy      =      -0.1925008948822973 [Eh]
	 SCS Opposite-Spin Energy  =      -2.0865371960075256 [Eh]
	 SCS Correlation Energy    =      -2.2790380908898231 [Eh]
	 SCS Total Energy          =    -527.8217594685136191 [Eh]
	-----------------------------------------------------------

  Dipole Moment: [D]
     X:    -2.4209      Y:     2.5460      Z:     0.4363     Total:     3.5402

*** Psi4 exiting successfully. Buy a developer a beer!
