                               Psi4 1.3.2 release

  ==> Input File <==

--------------------------------------------------------------------------
#psi4
#
memory 32 gb

molecule  {
0 1
  N        0.8160970    -0.2990240    -0.0443680
  N        1.3585440    -1.5263750    -0.2734470
  N       -1.0817850     0.9875590    -0.4601130
  N       -1.2686320    -1.2431920     0.4227390
  C        1.7597130     0.6951090     0.1272320
  C        2.9786120     0.0532150     0.0016160
  C       -0.5903530    -0.1795160    -0.0248380
  C        1.4539390     2.1247050     0.4316710
  C        2.6793880    -1.2992810    -0.2463060
  C       -2.4210880     1.0928180    -0.4382200
  C       -2.6039190    -1.1175230     0.3972460
  C       -3.1195787    -0.0287885    -0.0027585
  H        3.9528590     0.5149220     0.0929350
  H        1.0131890     2.6387050    -0.4244530
  H        0.7544440     2.2203260     1.2670250
  H        2.3864280     2.6245280     0.7070350
  H        3.3561510    -2.1272050    -0.4162310
  H       -2.8304840     2.0415190    -0.7796900
  H       -3.1684390    -1.9801170     0.7461500
  H       -4.3226790     0.1358530    -0.0311710
units angstrom
no_reorient  #important for SAPT in psi4, default
symmetry c1  #important for SAPT in psi4, default
}

set PROPERTIES_ORIGIN ["COM"]
properties('MP2/aug-cc-pvtz', properties = ['dipole'])
--------------------------------------------------------------------------

    Molecular point group: c1
  Charge       = 0
  Multiplicity = 1
  Basis Set: AUG-CC-PVTZ
    Blend: AUG-CC-PVTZ
  Basis Set: (AUG-CC-PVTZ AUX)
    Blend: AUG-CC-PVTZ-JKFIT

    Orbital Energies [Eh]
    ---------------------

    Doubly Occupied:

       1A    -15.640671     2A    -15.585889     3A    -15.580348
       4A    -15.574658     5A    -11.363880     6A    -11.317902
       7A    -11.288844     8A    -11.285714     9A    -11.253221
      10A    -11.250429    11A    -11.234817    12A    -11.216313
      13A     -1.385829    14A     -1.318711    15A     -1.209776
      16A     -1.134261    17A     -1.086414    18A     -1.048235
      19A     -0.958544    20A     -0.922723    21A     -0.890220
      22A     -0.801731    23A     -0.795589    24A     -0.721452
      25A     -0.709086    26A     -0.675535    27A     -0.641968
      28A     -0.627287    29A     -0.607309    30A     -0.590932
      31A     -0.583792    32A     -0.578944    33A     -0.562211
      34A     -0.554467    35A     -0.534199    36A     -0.473158
      37A     -0.453998    38A     -0.435200    39A     -0.423236
      40A     -0.412794    41A     -0.339358    42A     -0.331402

  @DF-RHF Final Energy:  -525.51332243228796

   => Energetics <=

    Nuclear Repulsion Energy =            661.1931340673820614
    One-Electron Energy =               -2024.6108230595966688
    Two-Electron Energy =                 837.9043665599266433
    Total Energy =                       -525.5133224322879641
  Basis Set: (AUG-CC-PVTZ AUX)
    Blend: AUG-CC-PVTZ-RI
    Molecular point group: c1

    Geometry (in Angstrom), charge = 0, multiplicity = 1:

       Center              X                  Y                   Z               Mass
    ------------   -----------------  -----------------  -----------------  -----------------
         N            0.814038236864    -0.255694497297    -0.039024636893    14.003074004430
         N            1.356485236864    -1.483045497297    -0.268103636893    14.003074004430
         N           -1.083843763136     1.030888502703    -0.454769636893    14.003074004430
         N           -1.270690763136    -1.199862497297     0.428082363107    14.003074004430
         C            1.757654236864     0.738438502703     0.132575363107    12.000000000000
         C            2.976553236864     0.096544502703     0.006959363107    12.000000000000
         C           -0.592411763136    -0.136186497297    -0.019494636893    12.000000000000
         C            1.451880236864     2.168034502703     0.437014363107    12.000000000000
         C            2.677329236864    -1.255951497297    -0.240962636893    12.000000000000
         C           -2.423146763136     1.136147502703    -0.432876636893    12.000000000000
         C           -2.605977763136    -1.074193497297     0.402589363107    12.000000000000
         C           -3.121637463136     0.014541002703     0.002584863107    12.000000000000
         H            3.950800236864     0.558251502703     0.098278363107     1.007825032230
         H            1.011130236864     2.682034502703    -0.419109636893     1.007825032230
         H            0.752385236864     2.263655502703     1.272368363107     1.007825032230
         H            2.384369236864     2.667857502703     0.712378363107     1.007825032230
         H            3.354092236864    -2.083875497297    -0.410887636893     1.007825032230
         H           -2.832542763136     2.084848502703    -0.774346636893     1.007825032230
         H           -3.170497763136    -1.936787497297     0.751493363107     1.007825032230
         H           -4.324737763136     0.179182502703    -0.025827636893     1.007825032230

  Basis Set: AUG-CC-PVTZ
    Blend: AUG-CC-PVTZ
  Basis Set: (AUG-CC-PVTZ AUX)
    Blend: AUG-CC-PVTZ-JKFIT
	 Reference Energy          =    -525.5133224322879641 [Eh]
	 Singles Energy            =      -0.0000000000000000 [Eh]
	 Same-Spin Energy          =      -0.5786648927998354 [Eh]
	 Opposite-Spin Energy      =      -1.7402910718121019 [Eh]
	 Correlation Energy        =      -2.3189559646119373 [Eh]
	 Total Energy              =    -527.8322783968999374 [Eh]

	 ================> DF-SCS-MP2 Energies <==================
	-----------------------------------------------------------
	 SCS Same-Spin Scale       =       0.3333333333333333 [-]
	 SCS Opposite-Spin Scale   =       1.2000000000000000 [-]
	 SCS Same-Spin Energy      =      -0.1928882975999451 [Eh]
	 SCS Opposite-Spin Energy  =      -2.0883492861745223 [Eh]
	 SCS Correlation Energy    =      -2.2812375837744674 [Eh]
	 SCS Total Energy          =    -527.7945600160624053 [Eh]
	-----------------------------------------------------------

  Dipole Moment: [D]
     X:    -2.5358      Y:     2.6695      Z:     0.3930     Total:     3.7029

*** Psi4 exiting successfully. Buy a developer a beer!
