                               Psi4 1.3.2 release

  ==> Input File <==

--------------------------------------------------------------------------
#psi4
#
memory 32 gb

molecule  {
0 1
  N        0.9045068    -0.2646189    -0.0390579
  N        1.3585440    -1.5263750    -0.2734470
  N       -1.0817850     0.9875590    -0.4601130
  N       -1.2686320    -1.2431920     0.4227390
  C        1.7597130     0.6951090     0.1272320
  C        2.9786120     0.0532150     0.0016160
  C       -0.5903530    -0.1795160    -0.0248380
  C        1.4539390     2.1247050     0.4316710
  C        2.6793880    -1.2992810    -0.2463060
  C       -2.4210880     1.0928180    -0.4382200
  C       -2.6039190    -1.1175230     0.3972460
  C       -3.2414650     0.0469210    -0.0276130
  H        3.9528590     0.5149220     0.0929350
  H        1.0131890     2.6387050    -0.4244530
  H        0.7544440     2.2203260     1.2670250
  H        2.3864280     2.6245280     0.7070350
  H        3.3561510    -2.1272050    -0.4162310
  H       -2.8304840     2.0415190    -0.7796900
  H       -3.1684390    -1.9801170     0.7461500
  H       -4.3226790     0.1358530    -0.0311710
units angstrom
no_reorient  #important for SAPT in psi4, default
symmetry c1  #important for SAPT in psi4, default
}

set PROPERTIES_ORIGIN ["COM"]
properties('MP2/aug-cc-pvtz', properties = ['dipole'])
--------------------------------------------------------------------------

    Molecular point group: c1
  Charge       = 0
  Multiplicity = 1
  Basis Set: AUG-CC-PVTZ
    Blend: AUG-CC-PVTZ
  Basis Set: (AUG-CC-PVTZ AUX)
    Blend: AUG-CC-PVTZ-JKFIT

    Orbital Energies [Eh]
    ---------------------

    Doubly Occupied:

       1A    -15.643550     2A    -15.587916     3A    -15.585858
       4A    -15.575114     5A    -11.375295     6A    -11.314865
       7A    -11.313756     8A    -11.276136     9A    -11.257966
      10A    -11.248605    11A    -11.235358    12A    -11.206843
      13A     -1.392161    14A     -1.319599    15A     -1.210131
      16A     -1.125556    17A     -1.092131    18A     -1.039981
      19A     -0.962422    20A     -0.911235    21A     -0.895289
      22A     -0.802773    23A     -0.789448    24A     -0.715559
      25A     -0.708290    26A     -0.683910    27A     -0.641903
      28A     -0.633437    29A     -0.608243    30A     -0.589682
      31A     -0.580482    32A     -0.570468    33A     -0.562135
      34A     -0.555955    35A     -0.533875    36A     -0.490965
      37A     -0.461137    38A     -0.433751    39A     -0.424824
      40A     -0.403030    41A     -0.347589    42A     -0.326227

  @DF-RHF Final Energy:  -525.53033471443359

   => Energetics <=

    Nuclear Repulsion Energy =            658.3698937338862152
    One-Electron Energy =               -2018.9335546697268455
    Two-Electron Energy =                 835.0333262214071510
    Total Energy =                       -525.5303347144335930
  Basis Set: (AUG-CC-PVTZ AUX)
    Blend: AUG-CC-PVTZ-RI
    Molecular point group: c1

    Geometry (in Angstrom), charge = 0, multiplicity = 1:

       Center              X                  Y                   Z               Mass
    ------------   -----------------  -----------------  -----------------  -----------------
         N            0.903851296420    -0.229974651473    -0.032315839896    14.003074004430
         N            1.357888496420    -1.491730751473    -0.266704939896    14.003074004430
         N           -1.082440503580     1.022203248527    -0.453370939896    14.003074004430
         N           -1.269287503580    -1.208547751473     0.429481060104    14.003074004430
         C            1.759057496420     0.729753248527     0.133974060104    12.000000000000
         C            2.977956496420     0.087859248527     0.008358060104    12.000000000000
         C           -0.591008503580    -0.144871751473    -0.018095939896    12.000000000000
         C            1.453283496420     2.159349248527     0.438413060104    12.000000000000
         C            2.678732496420    -1.264636751473    -0.239563939896    12.000000000000
         C           -2.421743503580     1.127462248527    -0.431477939896    12.000000000000
         C           -2.604574503580    -1.082878751473     0.403988060104    12.000000000000
         C           -3.242120503580     0.081565248527    -0.020870939896    12.000000000000
         H            3.952203496420     0.549566248527     0.099677060104     1.007825032230
         H            1.012533496420     2.673349248527    -0.417710939896     1.007825032230
         H            0.753788496420     2.254970248527     1.273767060104     1.007825032230
         H            2.385772496420     2.659172248527     0.713777060104     1.007825032230
         H            3.355495496420    -2.092560751473    -0.409488939896     1.007825032230
         H           -2.831139503580     2.076163248527    -0.772947939896     1.007825032230
         H           -3.169094503580    -1.945472751473     0.752892060104     1.007825032230
         H           -4.323334503580     0.170497248527    -0.024428939896     1.007825032230

  Basis Set: AUG-CC-PVTZ
    Blend: AUG-CC-PVTZ
  Basis Set: (AUG-CC-PVTZ AUX)
    Blend: AUG-CC-PVTZ-JKFIT
	 Reference Energy          =    -525.5303347144335930 [Eh]
	 Singles Energy            =      -0.0000000000000000 [Eh]
	 Same-Spin Energy          =      -0.5780743537076930 [Eh]
	 Opposite-Spin Energy      =      -1.7388793608035711 [Eh]
	 Correlation Energy        =      -2.3169537145112642 [Eh]
	 Total Energy              =    -527.8472884289448075 [Eh]

	 ================> DF-SCS-MP2 Energies <==================
	-----------------------------------------------------------
	 SCS Same-Spin Scale       =       0.3333333333333333 [-]
	 SCS Opposite-Spin Scale   =       1.2000000000000000 [-]
	 SCS Same-Spin Energy      =      -0.1926914512358976 [Eh]
	 SCS Opposite-Spin Energy  =      -2.0866552329642851 [Eh]
	 SCS Correlation Energy    =      -2.2793466842001826 [Eh]
	 SCS Total Energy          =    -527.8096813986337565 [Eh]
	-----------------------------------------------------------

  Dipole Moment: [D]
     X:    -3.1561      Y:     2.6101      Z:     0.4591     Total:     4.1212

*** Psi4 exiting successfully. Buy a developer a beer!
