                               Psi4 1.3.2 release

  ==> Input File <==

--------------------------------------------------------------------------
#psi4
#
memory 32 gb

molecule  {
0 1
  N        0.6885686    -0.3617829    -0.0544161
  N        1.3585440    -1.5263750    -0.2734470
  N       -1.0817850     0.9875590    -0.4601130
  N       -1.2686320    -1.2431920     0.4227390
  C        1.7597130     0.6951090     0.1272320
  C        2.9786120     0.0532150     0.0016160
  C       -0.5903530    -0.1795160    -0.0248380
  C        1.4539390     2.1247050     0.4316710
  C        2.6793880    -1.2992810    -0.2463060
  C       -2.4210880     1.0928180    -0.4382200
  C       -2.6039190    -1.1175230     0.3972460
  C       -3.2414650     0.0469210    -0.0276130
  H        3.9528590     0.5149220     0.0929350
  H        1.0131890     2.6387050    -0.4244530
  H        0.7544440     2.2203260     1.2670250
  H        2.3864280     2.6245280     0.7070350
  H        3.3561510    -2.1272050    -0.4162310
  H       -2.8304840     2.0415190    -0.7796900
  H       -3.1684390    -1.9801170     0.7461500
  H       -4.3226790     0.1358530    -0.0311710
units angstrom
no_reorient  #important for SAPT in psi4, default
symmetry c1  #important for SAPT in psi4, default
}

set PROPERTIES_ORIGIN ["COM"]
properties('MP2/aug-cc-pvtz', properties = ['dipole'])
--------------------------------------------------------------------------

    Molecular point group: c1
  Charge       = 0
  Multiplicity = 1
  Basis Set: AUG-CC-PVTZ
    Blend: AUG-CC-PVTZ
  Basis Set: (AUG-CC-PVTZ AUX)
    Blend: AUG-CC-PVTZ-JKFIT

    Orbital Energies [Eh]
    ---------------------

    Doubly Occupied:

       1A    -15.640003     2A    -15.591937     3A    -15.572035
       4A    -15.565157     5A    -11.352510     6A    -11.305403
       7A    -11.302895     8A    -11.301533     9A    -11.266359
      10A    -11.242370    11A    -11.235925    12A    -11.233722
      13A     -1.390176    14A     -1.301069    15A     -1.198388
      16A     -1.151711    17A     -1.076308    18A     -1.042968
      19A     -0.963044    20A     -0.905475    21A     -0.896657
      22A     -0.808050    23A     -0.783934    24A     -0.712245
      25A     -0.705615    26A     -0.680210    27A     -0.642527
      28A     -0.639561    29A     -0.606437    30A     -0.601873
      31A     -0.582369    32A     -0.574437    33A     -0.560115
      34A     -0.547047    35A     -0.540620    36A     -0.486005
      37A     -0.444472    38A     -0.424800    39A     -0.417987
      40A     -0.411208    41A     -0.342313    42A     -0.321870

  @DF-RHF Final Energy:  -525.51426680585985

   => Energetics <=

    Nuclear Repulsion Energy =            658.4959805393723400
    One-Electron Energy =               -2019.2818126541978927
    Two-Electron Energy =                 835.2715653089657053
    Total Energy =                       -525.5142668058598474
  Basis Set: (AUG-CC-PVTZ AUX)
    Blend: AUG-CC-PVTZ-RI
    Molecular point group: c1

    Geometry (in Angstrom), charge = 0, multiplicity = 1:

       Center              X                  Y                   Z               Mass
    ------------   -----------------  -----------------  -----------------  -----------------
         N            0.706802995244    -0.318638913449    -0.046330531225    14.003074004430
         N            1.376778395244    -1.483231013449    -0.265361431225    14.003074004430
         N           -1.063550604756     1.030702986551    -0.452027431225    14.003074004430
         N           -1.250397604756    -1.200048013449     0.430824568775    14.003074004430
         C            1.777947395244     0.738252986551     0.135317568775    12.000000000000
         C            2.996846395244     0.096358986551     0.009701568775    12.000000000000
         C           -0.572118604756    -0.136372013449    -0.016752431225    12.000000000000
         C            1.472173395244     2.167848986551     0.439756568775    12.000000000000
         C            2.697622395244    -1.256137013449    -0.238220431225    12.000000000000
         C           -2.402853604756     1.135961986551    -0.430134431225    12.000000000000
         C           -2.585684604756    -1.074379013449     0.405331568775    12.000000000000
         C           -3.223230604756     0.090064986551    -0.019527431225    12.000000000000
         H            3.971093395244     0.558065986551     0.101020568775     1.007825032230
         H            1.031423395244     2.681848986551    -0.416367431225     1.007825032230
         H            0.772678395244     2.263469986551     1.275110568775     1.007825032230
         H            2.404662395244     2.667671986551     0.715120568775     1.007825032230
         H            3.374385395244    -2.084061013449    -0.408145431225     1.007825032230
         H           -2.812249604756     2.084662986551    -0.771604431225     1.007825032230
         H           -3.150204604756    -1.936973013449     0.754235568775     1.007825032230
         H           -4.304444604756     0.178996986551    -0.023085431225     1.007825032230

  Basis Set: AUG-CC-PVTZ
    Blend: AUG-CC-PVTZ
  Basis Set: (AUG-CC-PVTZ AUX)
    Blend: AUG-CC-PVTZ-JKFIT
	 Reference Energy          =    -525.5142668058598474 [Eh]
	 Singles Energy            =      -0.0000000000000000 [Eh]
	 Same-Spin Energy          =      -0.5777061838178921 [Eh]
	 Opposite-Spin Energy      =      -1.7408199814518475 [Eh]
	 Correlation Energy        =      -2.3185261652697395 [Eh]
	 Total Energy              =    -527.8327929711296065 [Eh]

	 ================> DF-SCS-MP2 Energies <==================
	-----------------------------------------------------------
	 SCS Same-Spin Scale       =       0.3333333333333333 [-]
	 SCS Opposite-Spin Scale   =       1.2000000000000000 [-]
	 SCS Same-Spin Energy      =      -0.1925687279392974 [Eh]
	 SCS Opposite-Spin Energy  =      -2.0889839777422168 [Eh]
	 SCS Correlation Energy    =      -2.2815527056815141 [Eh]
	 SCS Total Energy          =    -527.7958195115413673 [Eh]
	-----------------------------------------------------------

  Dipole Moment: [D]
     X:    -1.5719      Y:     2.5194      Z:     0.4248     Total:     2.9998

*** Psi4 exiting successfully. Buy a developer a beer!
