                               Psi4 1.3.2 release

  ==> Input File <==

--------------------------------------------------------------------------
#psi4
#
memory 32 gb

molecule  {
0 1
  N        0.8160970    -0.2990240    -0.0443680
  N        1.2250641    -1.5753325    -0.2829027
  N       -1.0817850     0.9875590    -0.4601130
  N       -1.2686320    -1.2431920     0.4227390
  C        1.7597130     0.6951090     0.1272320
  C        2.9786120     0.0532150     0.0016160
  C       -0.5903530    -0.1795160    -0.0248380
  C        1.4539390     2.1247050     0.4316710
  C        2.6793880    -1.2992810    -0.2463060
  C       -2.4210880     1.0928180    -0.4382200
  C       -2.6039190    -1.1175230     0.3972460
  C       -3.2414650     0.0469210    -0.0276130
  H        3.9528590     0.5149220     0.0929350
  H        1.0131890     2.6387050    -0.4244530
  H        0.7544440     2.2203260     1.2670250
  H        2.3864280     2.6245280     0.7070350
  H        3.3561510    -2.1272050    -0.4162310
  H       -2.8304840     2.0415190    -0.7796900
  H       -3.1684390    -1.9801170     0.7461500
  H       -4.3226790     0.1358530    -0.0311710
units angstrom
no_reorient  #important for SAPT in psi4, default
symmetry c1  #important for SAPT in psi4, default
}

set PROPERTIES_ORIGIN ["COM"]
properties('MP2/aug-cc-pvtz', properties = ['dipole'])
--------------------------------------------------------------------------

    Molecular point group: c1
  Charge       = 0
  Multiplicity = 1
  Basis Set: AUG-CC-PVTZ
    Blend: AUG-CC-PVTZ
  Basis Set: (AUG-CC-PVTZ AUX)
    Blend: AUG-CC-PVTZ-JKFIT

    Orbital Energies [Eh]
    ---------------------

    Doubly Occupied:

       1A    -15.649049     2A    -15.595104     3A    -15.581692
       4A    -15.577718     5A    -11.364480     6A    -11.310503
       7A    -11.308623     8A    -11.290746     9A    -11.268795
      10A    -11.252299    11A    -11.237537    12A    -11.225809
      13A     -1.381667    14A     -1.306031    15A     -1.205425
      16A     -1.109477    17A     -1.088426    18A     -1.039151
      19A     -0.961619    20A     -0.907579    21A     -0.893926
      22A     -0.800384    23A     -0.793525    24A     -0.712669
      25A     -0.702402    26A     -0.679138    27A     -0.636106
      28A     -0.631032    29A     -0.607100    30A     -0.589620
      31A     -0.582976    32A     -0.573019    33A     -0.558743
      34A     -0.548426    35A     -0.533193    36A     -0.491042
      37A     -0.466336    38A     -0.429455    39A     -0.419165
      40A     -0.401408    41A     -0.342226    42A     -0.317313

  @DF-RHF Final Energy:  -525.51014710416678

   => Energetics <=

    Nuclear Repulsion Energy =            656.8891367174588822
    One-Electron Energy =               -2016.0567009283731750
    Two-Electron Energy =                 833.6574171067476300
    Total Energy =                       -525.5101471041667764
  Basis Set: (AUG-CC-PVTZ AUX)
    Blend: AUG-CC-PVTZ-RI
    Molecular point group: c1

    Geometry (in Angstrom), charge = 0, multiplicity = 1:

       Center              X                  Y                   Z               Mass
    ------------   -----------------  -----------------  -----------------  -----------------
         N            0.834852022131    -0.257087335959    -0.036334253348    14.003074004430
         N            1.243819122131    -1.533395835959    -0.274868953348    14.003074004430
         N           -1.063029977869     1.029495664041    -0.452079253348    14.003074004430
         N           -1.249876977869    -1.201255335959     0.430772746652    14.003074004430
         C            1.778468022131     0.737045664041     0.135265746652    12.000000000000
         C            2.997367022131     0.095151664041     0.009649746652    12.000000000000
         C           -0.571597977869    -0.137579335959    -0.016804253348    12.000000000000
         C            1.472694022131     2.166641664041     0.439704746652    12.000000000000
         C            2.698143022131    -1.257344335959    -0.238272253348    12.000000000000
         C           -2.402332977869     1.134754664041    -0.430186253348    12.000000000000
         C           -2.585163977869    -1.075586335959     0.405279746652    12.000000000000
         C           -3.222709977869     0.088857664041    -0.019579253348    12.000000000000
         H            3.971614022131     0.556858664041     0.100968746652     1.007825032230
         H            1.031944022131     2.680641664041    -0.416419253348     1.007825032230
         H            0.773199022131     2.262262664041     1.275058746652     1.007825032230
         H            2.405183022131     2.666464664041     0.715068746652     1.007825032230
         H            3.374906022131    -2.085268335959    -0.408197253348     1.007825032230
         H           -2.811728977869     2.083455664041    -0.771656253348     1.007825032230
         H           -3.149683977869    -1.938180335959     0.754183746652     1.007825032230
         H           -4.303923977869     0.177789664041    -0.023137253348     1.007825032230

  Basis Set: AUG-CC-PVTZ
    Blend: AUG-CC-PVTZ
  Basis Set: (AUG-CC-PVTZ AUX)
    Blend: AUG-CC-PVTZ-JKFIT
	 Reference Energy          =    -525.5101471041667764 [Eh]
	 Singles Energy            =      -0.0000000000000000 [Eh]
	 Same-Spin Energy          =      -0.5827708226944952 [Eh]
	 Opposite-Spin Energy      =      -1.7489903184714324 [Eh]
	 Correlation Energy        =      -2.3317611411659276 [Eh]
	 Total Energy              =    -527.8419082453326610 [Eh]

	 ================> DF-SCS-MP2 Energies <==================
	-----------------------------------------------------------
	 SCS Same-Spin Scale       =       0.3333333333333333 [-]
	 SCS Opposite-Spin Scale   =       1.2000000000000000 [-]
	 SCS Same-Spin Energy      =      -0.1942569408981651 [Eh]
	 SCS Opposite-Spin Energy  =      -2.0987883821657189 [Eh]
	 SCS Correlation Energy    =      -2.2930453230638839 [Eh]
	 SCS Total Energy          =    -527.8031924272306696 [Eh]
	-----------------------------------------------------------

  Dipole Moment: [D]
     X:    -2.5450      Y:     2.7159      Z:     0.4869     Total:     3.7537

*** Psi4 exiting successfully. Buy a developer a beer!
