                               Psi4 1.4a3.dev225

  ==> Input File <==

--------------------------------------------------------------------------
#psi4
#
memory 32 gb

molecule  {
0 1
  N        0.8160970    -0.2990240    -0.0443680
  N        1.3585440    -1.5263750    -0.2734470
  N       -1.0817850     0.9875590    -0.4601130
  N       -1.2686320    -1.2431920     0.4227390
  C        1.7597130     0.6951090     0.1272320
  C        2.9786120     0.0532150     0.0016160
  C       -0.5903530    -0.1795160    -0.0248380
  C        1.4539390     2.1247050     0.4316710
  C        2.6793880    -1.2992810    -0.2463060
  C       -2.4210880     1.0928180    -0.4382200
  C       -2.6039190    -1.1175230     0.3972460
  C       -3.2185955     0.0051511    -0.0123728
  H        3.9528590     0.5149220     0.0929350
  H        1.0131890     2.6387050    -0.4244530
  H        0.7544440     2.2203260     1.2670250
  H        2.3864280     2.6245280     0.7070350
  H        3.3561510    -2.1272050    -0.4162310
  H       -2.8304840     2.0415190    -0.7796900
  H       -3.1684390    -1.9801170     0.7461500
  H       -4.3226790     0.1358530    -0.0311710
units angstrom
no_reorient  #important for SAPT in psi4, default
symmetry c1  #important for SAPT in psi4, default
}

set PROPERTIES_ORIGIN ["COM"]
properties('MP2/aug-cc-pvtz', properties = ['dipole'])
--------------------------------------------------------------------------

    Molecular point group: c1
  Charge       = 0
  Multiplicity = 1
  Basis Set: AUG-CC-PVTZ
    Blend: AUG-CC-PVTZ
  Basis Set: (AUG-CC-PVTZ AUX)
    Blend: AUG-CC-PVTZ-JKFIT

    Orbital Energies [Eh]
    ---------------------

    Doubly Occupied:

       1A    -15.641722     2A    -15.584416     3A    -15.581122
       4A    -15.576332     5A    -11.366422     6A    -11.316982
       7A    -11.300497     8A    -11.286489     9A    -11.254149
      10A    -11.252014    11A    -11.234897    12A    -11.217063
      13A     -1.386060    14A     -1.313536    15A     -1.206530
      16A     -1.130155    17A     -1.084902    18A     -1.045812
      19A     -0.958844    20A     -0.912557    21A     -0.894217
      22A     -0.800555    23A     -0.794840    24A     -0.715340
      25A     -0.706972    26A     -0.679887    27A     -0.638326
      28A     -0.630182    29A     -0.610200    30A     -0.589469
      31A     -0.586273    32A     -0.575910    33A     -0.563781
      34A     -0.553132    35A     -0.535576    36A     -0.488423
      37A     -0.454694    38A     -0.431580    39A     -0.420851
      40A     -0.408571    41A     -0.338281    42A     -0.332104

  @DF-RHF Final Energy:  -525.54021396769781

   => Energetics <=

    Nuclear Repulsion Energy =            658.8561259759813993
    One-Electron Energy =               -2019.9933471407139223
    Two-Electron Energy =                 835.5970071970348272
    Total Energy =                       -525.5402139676978095
  Basis Set: (AUG-CC-PVTZ AUX)
    Blend: AUG-CC-PVTZ-RI
    Molecular point group: c1

    Geometry (in Angstrom), charge = 0, multiplicity = 1:

       Center              X                  Y                   Z               Mass
    ------------   -----------------  -----------------  -----------------  -----------------
         N            0.821461022245    -0.258238776315    -0.038303901770    14.003074004430
         N            1.363908022245    -1.485589776315    -0.267382901770    14.003074004430
         N           -1.076420977755     1.028344223685    -0.454048901770    14.003074004430
         N           -1.263267977755    -1.202406776315     0.428803098230    14.003074004430
         C            1.765077022245     0.735894223685     0.133296098230    12.000000000000
         C            2.983976022245     0.094000223685     0.007680098230    12.000000000000
         C           -0.584988977755    -0.138730776315    -0.018773901770    12.000000000000
         C            1.459303022245     2.165490223685     0.437735098230    12.000000000000
         C            2.684752022245    -1.258495776315    -0.240241901770    12.000000000000
         C           -2.415723977755     1.133603223685    -0.432155901770    12.000000000000
         C           -2.598554977755    -1.076737776315     0.403310098230    12.000000000000
         C           -3.213231477755     0.045936323685    -0.006308701770    12.000000000000
         H            3.958223022245     0.555707223685     0.098999098230     1.007825032230
         H            1.018553022245     2.679490223685    -0.418388901770     1.007825032230
         H            0.759808022245     2.261111223685     1.273089098230     1.007825032230
         H            2.391792022245     2.665313223685     0.713099098230     1.007825032230
         H            3.361515022245    -2.086419776315    -0.410166901770     1.007825032230
         H           -2.825119977755     2.082304223685    -0.773625901770     1.007825032230
         H           -3.163074977755    -1.939331776315     0.752214098230     1.007825032230
         H           -4.317314977755     0.176638223685    -0.025106901770     1.007825032230

  Basis Set: AUG-CC-PVTZ
    Blend: AUG-CC-PVTZ
  Basis Set: (AUG-CC-PVTZ AUX)
    Blend: AUG-CC-PVTZ-JKFIT
	 Reference Energy          =    -525.5402139676978095 [Eh]
	 Singles Energy            =      -0.0000000000000000 [Eh]
	 Same-Spin Energy          =      -0.5777381305400464 [Eh]
	 Opposite-Spin Energy      =      -1.7388431658031558 [Eh]
	 Correlation Energy        =      -2.3165812963432022 [Eh]
	 Total Energy              =    -527.8567952640410113 [Eh]

	 ================> DF-SCS-MP2 Energies <==================
	-----------------------------------------------------------
	 SCS Same-Spin Scale       =       0.3333333333333333 [-]
	 SCS Opposite-Spin Scale   =       1.2000000000000000 [-]
	 SCS Same-Spin Energy      =      -0.1925793768466821 [Eh]
	 SCS Opposite-Spin Energy  =      -2.0866117989637867 [Eh]
	 SCS Correlation Energy    =      -2.2791911758104688 [Eh]
	 SCS Total Energy          =    -527.8194051435083338 [Eh]
	-----------------------------------------------------------

  Dipole Moment: [D]
     X:    -2.5782      Y:     2.6280      Z:     0.4110     Total:     3.7043

*** Psi4 exiting successfully. Buy a developer a beer!
