                               Psi4 1.3.2 release

  ==> Input File <==

--------------------------------------------------------------------------
#psi4
#
memory 32 gb

molecule  {
0 1
  N        0.8160970    -0.2990240    -0.0443680
  N        1.3585440    -1.5263750    -0.2734470
  N       -1.0835691     0.9657283    -0.4517377
  N       -1.2686320    -1.2431920     0.4227390
  C        1.7597130     0.6951090     0.1272320
  C        2.9786120     0.0532150     0.0016160
  C       -0.5903530    -0.1795160    -0.0248380
  C        1.4539390     2.1247050     0.4316710
  C        2.6793880    -1.2992810    -0.2463060
  C       -2.4210880     1.0928180    -0.4382200
  C       -2.6039190    -1.1175230     0.3972460
  C       -3.2414650     0.0469210    -0.0276130
  H        3.9528590     0.5149220     0.0929350
  H        1.0131890     2.6387050    -0.4244530
  H        0.7544440     2.2203260     1.2670250
  H        2.3864280     2.6245280     0.7070350
  H        3.3561510    -2.1272050    -0.4162310
  H       -2.8304840     2.0415190    -0.7796900
  H       -3.1684390    -1.9801170     0.7461500
  H       -4.3226790     0.1358530    -0.0311710
units angstrom
no_reorient  #important for SAPT in psi4, default
symmetry c1  #important for SAPT in psi4, default
}

set PROPERTIES_ORIGIN ["COM"]
properties('MP2/aug-cc-pvtz', properties = ['dipole'])
--------------------------------------------------------------------------

    Molecular point group: c1
  Charge       = 0
  Multiplicity = 1
  Basis Set: AUG-CC-PVTZ
    Blend: AUG-CC-PVTZ
  Basis Set: (AUG-CC-PVTZ AUX)
    Blend: AUG-CC-PVTZ-JKFIT

    Orbital Energies [Eh]
    ---------------------

    Doubly Occupied:

       1A    -15.641219     2A    -15.581026     3A    -15.579358
       4A    -15.577756     5A    -11.364376     6A    -11.312123
       7A    -11.308998     8A    -11.286262     9A    -11.253965
      10A    -11.253089    11A    -11.234699    12A    -11.216859
      13A     -1.386693    14A     -1.315353    15A     -1.206333
      16A     -1.129468    17A     -1.084123    18A     -1.045632
      19A     -0.958576    20A     -0.911341    21A     -0.896109
      22A     -0.800745    23A     -0.795024    24A     -0.715500
      25A     -0.707082    26A     -0.682527    27A     -0.638737
      28A     -0.633504    29A     -0.607475    30A     -0.590947
      31A     -0.587140    32A     -0.576097    33A     -0.563582
      34A     -0.552773    35A     -0.535494    36A     -0.490261
      37A     -0.454538    38A     -0.430008    39A     -0.418785
      40A     -0.407987    41A     -0.338444    42A     -0.331963

  @DF-RHF Final Energy:  -525.54441397038636

   => Energetics <=

    Nuclear Repulsion Energy =            658.8314688418741980
    One-Electron Energy =               -2019.9478288339842038
    Two-Electron Energy =                 835.5719460217237611
    Total Energy =                       -525.5444139703863584
  Basis Set: (AUG-CC-PVTZ AUX)
    Blend: AUG-CC-PVTZ-RI
    Molecular point group: c1

    Geometry (in Angstrom), charge = 0, multiplicity = 1:

       Center              X                  Y                   Z               Mass
    ------------   -----------------  -----------------  -----------------  -----------------
         N            0.823331502197    -0.259460341326    -0.037894078270    14.003074004430
         N            1.365778502197    -1.486811341326    -0.266973078270    14.003074004430
         N           -1.076334597803     1.005291958674    -0.445263778270    14.003074004430
         N           -1.261397497803    -1.203628341326     0.429212921730    14.003074004430
         C            1.766947502197     0.734672658674     0.133705921730    12.000000000000
         C            2.985846502197     0.092778658674     0.008089921730    12.000000000000
         C           -0.583118497803    -0.139952341326    -0.018364078270    12.000000000000
         C            1.461173502197     2.164268658674     0.438144921730    12.000000000000
         C            2.686622502197    -1.259717341326    -0.239832078270    12.000000000000
         C           -2.413853497803     1.132381658674    -0.431746078270    12.000000000000
         C           -2.596684497803    -1.077959341326     0.403719921730    12.000000000000
         C           -3.234230497803     0.086484658674    -0.021139078270    12.000000000000
         H            3.960093502197     0.554485658674     0.099408921730     1.007825032230
         H            1.020423502197     2.678268658674    -0.417979078270     1.007825032230
         H            0.761678502197     2.259889658674     1.273498921730     1.007825032230
         H            2.393662502197     2.664091658674     0.713508921730     1.007825032230
         H            3.363385502197    -2.087641341326    -0.409757078270     1.007825032230
         H           -2.823249497803     2.081082658674    -0.773216078270     1.007825032230
         H           -3.161204497803    -1.940553341326     0.752623921730     1.007825032230
         H           -4.315444497803     0.175416658674    -0.024697078270     1.007825032230

  Basis Set: AUG-CC-PVTZ
    Blend: AUG-CC-PVTZ
  Basis Set: (AUG-CC-PVTZ AUX)
    Blend: AUG-CC-PVTZ-JKFIT
	 Reference Energy          =    -525.5444139703863584 [Eh]
	 Singles Energy            =      -0.0000000000000000 [Eh]
	 Same-Spin Energy          =      -0.5774019547262050 [Eh]
	 Opposite-Spin Energy      =      -1.7380255569184562 [Eh]
	 Correlation Energy        =      -2.3154275116446614 [Eh]
	 Total Energy              =    -527.8598414820310154 [Eh]

	 ================> DF-SCS-MP2 Energies <==================
	-----------------------------------------------------------
	 SCS Same-Spin Scale       =       0.3333333333333333 [-]
	 SCS Opposite-Spin Scale   =       1.2000000000000000 [-]
	 SCS Same-Spin Energy      =      -0.1924673182420683 [Eh]
	 SCS Opposite-Spin Energy  =      -2.0856306683021475 [Eh]
	 SCS Correlation Energy    =      -2.2780979865442159 [Eh]
	 SCS Total Energy          =    -527.8225119569306116 [Eh]
	-----------------------------------------------------------

  Dipole Moment: [D]
     X:    -2.6128      Y:     2.5977      Z:     0.4250     Total:     3.7089

*** Psi4 exiting successfully. Buy a developer a beer!
