                               Psi4 1.3.2 release

  ==> Input File <==

--------------------------------------------------------------------------
#psi4
#
memory 32 gb

molecule  {
0 1
  N        0.8160970    -0.2990240    -0.0443680
  N        1.3585440    -1.5263750    -0.2734470
  N       -1.0817850     0.9875590    -0.4601130
  N       -1.2686320    -1.2431920     0.4227390
  C        1.8963342     0.8390443     0.1520771
  C        2.9786120     0.0532150     0.0016160
  C       -0.5903530    -0.1795160    -0.0248380
  C        1.4539390     2.1247050     0.4316710
  C        2.6793880    -1.2992810    -0.2463060
  C       -2.4210880     1.0928180    -0.4382200
  C       -2.6039190    -1.1175230     0.3972460
  C       -3.2414650     0.0469210    -0.0276130
  H        3.9528590     0.5149220     0.0929350
  H        1.0131890     2.6387050    -0.4244530
  H        0.7544440     2.2203260     1.2670250
  H        2.3864280     2.6245280     0.7070350
  H        3.3561510    -2.1272050    -0.4162310
  H       -2.8304840     2.0415190    -0.7796900
  H       -3.1684390    -1.9801170     0.7461500
  H       -4.3226790     0.1358530    -0.0311710
units angstrom
no_reorient  #important for SAPT in psi4, default
symmetry c1  #important for SAPT in psi4, default
}

set PROPERTIES_ORIGIN ["COM"]
properties('MP2/aug-cc-pvtz', properties = ['dipole'])
--------------------------------------------------------------------------

    Molecular point group: c1
  Charge       = 0
  Multiplicity = 1
  Basis Set: AUG-CC-PVTZ
    Blend: AUG-CC-PVTZ
  Basis Set: (AUG-CC-PVTZ AUX)
    Blend: AUG-CC-PVTZ-JKFIT

    Orbital Energies [Eh]
    ---------------------

    Doubly Occupied:

       1A    -15.624915     2A    -15.599304     3A    -15.573772
       4A    -15.569783     5A    -11.357414     6A    -11.305486
       7A    -11.303321     8A    -11.296523     9A    -11.256345
      10A    -11.245031    11A    -11.234429    12A    -11.230721
      13A     -1.362074    14A     -1.301689    15A     -1.198150
      16A     -1.117855    17A     -1.102182    18A     -1.037641
      19A     -0.978040    20A     -0.902289    21A     -0.880910
      22A     -0.798467    23A     -0.768917    24A     -0.717940
      25A     -0.702776    26A     -0.682774    27A     -0.632648
      28A     -0.625436    29A     -0.608473    30A     -0.596921
      31A     -0.589627    32A     -0.579323    33A     -0.571195
      34A     -0.546283    35A     -0.536111    36A     -0.480727
      37A     -0.450465    38A     -0.424849    39A     -0.413843
      40A     -0.405751    41A     -0.348162    42A     -0.317388

  @DF-RHF Final Energy:  -525.50032007256868

   => Energetics <=

    Nuclear Repulsion Energy =            655.3133705093699746
    One-Electron Energy =               -2013.0754808645745015
    Two-Electron Energy =                 832.2617902826359568
    Total Energy =                       -525.5003200725686838
  Basis Set: (AUG-CC-PVTZ AUX)
    Blend: AUG-CC-PVTZ-RI
    Molecular point group: c1

    Geometry (in Angstrom), charge = 0, multiplicity = 1:

       Center              X                  Y                   Z               Mass
    ------------   -----------------  -----------------  -----------------  -----------------
         N            0.812933636429    -0.272160149696    -0.039023932223    14.003074004430
         N            1.355380636429    -1.499511149696    -0.268102932223    14.003074004430
         N           -1.084948363571     1.014422850304    -0.454768932223    14.003074004430
         N           -1.271795363571    -1.216328149696     0.428083067777    14.003074004430
         C            1.893170836429     0.865908150304     0.157421167777    12.000000000000
         C            2.975448636429     0.080078850304     0.006960067777    12.000000000000
         C           -0.593516363571    -0.152652149696    -0.019493932223    12.000000000000
         C            1.450775636429     2.151568850304     0.437015067777    12.000000000000
         C            2.676224636429    -1.272417149696    -0.240961932223    12.000000000000
         C           -2.424251363571     1.119681850304    -0.432875932223    12.000000000000
         C           -2.607082363571    -1.090659149696     0.402590067777    12.000000000000
         C           -3.244628363571     0.073784850304    -0.022268932223    12.000000000000
         H            3.949695636429     0.541785850304     0.098279067777     1.007825032230
         H            1.010025636429     2.665568850304    -0.419108932223     1.007825032230
         H            0.751280636429     2.247189850304     1.272369067777     1.007825032230
         H            2.383264636429     2.651391850304     0.712379067777     1.007825032230
         H            3.352987636429    -2.100341149696    -0.410886932223     1.007825032230
         H           -2.833647363571     2.068382850304    -0.774345932223     1.007825032230
         H           -3.171602363571    -1.953253149696     0.751494067777     1.007825032230
         H           -4.325842363571     0.162716850304    -0.025826932223     1.007825032230

  Basis Set: AUG-CC-PVTZ
    Blend: AUG-CC-PVTZ
  Basis Set: (AUG-CC-PVTZ AUX)
    Blend: AUG-CC-PVTZ-JKFIT
	 Reference Energy          =    -525.5003200725686838 [Eh]
	 Singles Energy            =      -0.0000000000000000 [Eh]
	 Same-Spin Energy          =      -0.5801710003878007 [Eh]
	 Opposite-Spin Energy      =      -1.7444618958464360 [Eh]
	 Correlation Energy        =      -2.3246328962342364 [Eh]
	 Total Energy              =    -527.8249529688029043 [Eh]

	 ================> DF-SCS-MP2 Energies <==================
	-----------------------------------------------------------
	 SCS Same-Spin Scale       =       0.3333333333333333 [-]
	 SCS Opposite-Spin Scale   =       1.2000000000000000 [-]
	 SCS Same-Spin Energy      =      -0.1933903334626002 [Eh]
	 SCS Opposite-Spin Energy  =      -2.0933542750157232 [Eh]
	 SCS Correlation Energy    =      -2.2867446084783234 [Eh]
	 SCS Total Energy          =    -527.7870646810470134 [Eh]
	-----------------------------------------------------------

  Dipole Moment: [D]
     X:    -1.8540      Y:     2.7814      Z:     0.4956     Total:     3.3792

*** Psi4 exiting successfully. Buy a developer a beer!
