                               Psi4 1.3.2 release

  ==> Input File <==

--------------------------------------------------------------------------
#psi4
#
memory 32 gb

molecule  {
0 1
  N        0.8160970    -0.2990240    -0.0443680
  N        1.3585440    -1.5263750    -0.2734470
  N       -1.0817850     0.9875590    -0.4601130
  N       -1.2738647    -1.2867500     0.4390991
  C        1.7597130     0.6951090     0.1272320
  C        2.9786120     0.0532150     0.0016160
  C       -0.5903530    -0.1795160    -0.0248380
  C        1.4539390     2.1247050     0.4316710
  C        2.6793880    -1.2992810    -0.2463060
  C       -2.4210880     1.0928180    -0.4382200
  C       -2.6039190    -1.1175230     0.3972460
  C       -3.2414650     0.0469210    -0.0276130
  H        3.9528590     0.5149220     0.0929350
  H        1.0131890     2.6387050    -0.4244530
  H        0.7544440     2.2203260     1.2670250
  H        2.3864280     2.6245280     0.7070350
  H        3.3561510    -2.1272050    -0.4162310
  H       -2.8304840     2.0415190    -0.7796900
  H       -3.1684390    -1.9801170     0.7461500
  H       -4.3226790     0.1358530    -0.0311710
units angstrom
no_reorient  #important for SAPT in psi4, default
symmetry c1  #important for SAPT in psi4, default
}

set PROPERTIES_ORIGIN ["COM"]
properties('MP2/aug-cc-pvtz', properties = ['dipole'])
--------------------------------------------------------------------------

    Molecular point group: c1
  Charge       = 0
  Multiplicity = 1
  Basis Set: AUG-CC-PVTZ
    Blend: AUG-CC-PVTZ
  Basis Set: (AUG-CC-PVTZ AUX)
    Blend: AUG-CC-PVTZ-JKFIT

    Orbital Energies [Eh]
    ---------------------

    Doubly Occupied:

       1A    -15.643930     2A    -15.584972     3A    -15.584054
       4A    -15.582376     5A    -11.373056     6A    -11.312006
       7A    -11.307804     8A    -11.287795     9A    -11.255625
      10A    -11.252039    11A    -11.235402    12A    -11.218375
      13A     -1.385930    14A     -1.307896    15A     -1.204621
      16A     -1.129348    17A     -1.084454    18A     -1.043985
      19A     -0.959646    20A     -0.906046    21A     -0.895565
      22A     -0.800537    23A     -0.794036    24A     -0.713311
      25A     -0.703484    26A     -0.682036    27A     -0.637680
      28A     -0.633275    29A     -0.606458    30A     -0.587436
      31A     -0.584814    32A     -0.573859    33A     -0.564621
      34A     -0.552820    35A     -0.536729    36A     -0.495114
      37A     -0.456139    38A     -0.431582    39A     -0.422551
      40A     -0.406592    41A     -0.337209    42A     -0.333316

  @DF-RHF Final Energy:  -525.53928168229811

   => Energetics <=

    Nuclear Repulsion Energy =            657.0691958981997232
    One-Electron Energy =               -2016.3999130581519239
    Two-Electron Energy =                 833.7914354776540904
    Total Energy =                       -525.5392816822981104
  Basis Set: (AUG-CC-PVTZ AUX)
    Blend: AUG-CC-PVTZ-RI
    Molecular point group: c1

    Geometry (in Angstrom), charge = 0, multiplicity = 1:

       Center              X                  Y                   Z               Mass
    ------------   -----------------  -----------------  -----------------  -----------------
         N            0.823633179738    -0.257559674844    -0.038592574711    14.003074004430
         N            1.366080179738    -1.484910674844    -0.267671574711    14.003074004430
         N           -1.074248820262     1.029023325156    -0.454337574711    14.003074004430
         N           -1.266328520262    -1.245285674844     0.444874525289    14.003074004430
         C            1.767249179738     0.736573325156     0.133007425289    12.000000000000
         C            2.986148179738     0.094679325156     0.007391425289    12.000000000000
         C           -0.582816820262    -0.138051674844    -0.019062574711    12.000000000000
         C            1.461475179738     2.166169325156     0.437446425289    12.000000000000
         C            2.686924179738    -1.257816674844    -0.240530574711    12.000000000000
         C           -2.413551820262     1.134282325156    -0.432444574711    12.000000000000
         C           -2.596382820262    -1.076058674844     0.403021425289    12.000000000000
         C           -3.233928820262     0.088385325156    -0.021837574711    12.000000000000
         H            3.960395179738     0.556386325156     0.098710425289     1.007825032230
         H            1.020725179738     2.680169325156    -0.418677574711     1.007825032230
         H            0.761980179738     2.261790325156     1.272800425289     1.007825032230
         H            2.393964179738     2.665992325156     0.712810425289     1.007825032230
         H            3.363687179738    -2.085740674844    -0.410455574711     1.007825032230
         H           -2.822947820262     2.082983325156    -0.773914574711     1.007825032230
         H           -3.160902820262    -1.938652674844     0.751925425289     1.007825032230
         H           -4.315142820262     0.177317325156    -0.025395574711     1.007825032230

  Basis Set: AUG-CC-PVTZ
    Blend: AUG-CC-PVTZ
  Basis Set: (AUG-CC-PVTZ AUX)
    Blend: AUG-CC-PVTZ-JKFIT
	 Reference Energy          =    -525.5392816822981104 [Eh]
	 Singles Energy            =      -0.0000000000000000 [Eh]
	 Same-Spin Energy          =      -0.5778599130631564 [Eh]
	 Opposite-Spin Energy      =      -1.7400171607511705 [Eh]
	 Correlation Energy        =      -2.3178770738143268 [Eh]
	 Total Energy              =    -527.8571587561124261 [Eh]

	 ================> DF-SCS-MP2 Energies <==================
	-----------------------------------------------------------
	 SCS Same-Spin Scale       =       0.3333333333333333 [-]
	 SCS Opposite-Spin Scale   =       1.2000000000000000 [-]
	 SCS Same-Spin Energy      =      -0.1926199710210521 [Eh]
	 SCS Opposite-Spin Energy  =      -2.0880205929014046 [Eh]
	 SCS Correlation Energy    =      -2.2806405639224567 [Eh]
	 SCS Total Energy          =    -527.8199222462205853 [Eh]
	-----------------------------------------------------------

  Dipole Moment: [D]
     X:    -2.4839      Y:     2.6162      Z:     0.4133     Total:     3.6311

*** Psi4 exiting successfully. Buy a developer a beer!
