                               Psi4 1.3.2 release

  ==> Input File <==

--------------------------------------------------------------------------
#psi4
#
memory 32 gb

molecule  {
0 1
  N        0.8160970    -0.2990240    -0.0443680
  N        1.3585440    -1.5263750    -0.2734470
  N       -1.0817850     0.9875590    -0.4601130
  N       -1.2686320    -1.2431920     0.4227390
  C        1.7597130     0.6951090     0.1272320
  C        2.9786120     0.0532150     0.0016160
  C       -0.5903530    -0.1795160    -0.0248380
  C        1.4539390     2.1247050     0.4316710
  C        2.6793880    -1.2992810    -0.2463060
  C       -2.4210880     1.0928180    -0.4382200
  C       -2.6039190    -1.1175230     0.3972460
  C       -3.2414650     0.0469210    -0.0276130
  H        3.9528590     0.5149220     0.0929350
  H        1.0131890     2.6387050    -0.4244530
  H        0.7544440     2.2203260     1.2670250
  H        2.3864280     2.6245280     0.7070350
  H        3.3561510    -2.1272050    -0.4162310
  H       -2.8304840     2.0415190    -0.7796900
  H       -3.2721786    -2.1386325     0.8102667
  H       -4.3226790     0.1358530    -0.0311710
units angstrom
no_reorient  #important for SAPT in psi4, default
symmetry c1  #important for SAPT in psi4, default
}

set PROPERTIES_ORIGIN ["COM"]
properties('MP2/aug-cc-pvtz', properties = ['dipole'])
--------------------------------------------------------------------------

    Molecular point group: c1
  Charge       = 0
  Multiplicity = 1
  Basis Set: AUG-CC-PVTZ
    Blend: AUG-CC-PVTZ
  Basis Set: (AUG-CC-PVTZ AUX)
    Blend: AUG-CC-PVTZ-JKFIT

    Orbital Energies [Eh]
    ---------------------

    Doubly Occupied:

       1A    -15.642922     2A    -15.583228     3A    -15.582025
       4A    -15.581043     5A    -11.369322     6A    -11.329894
       7A    -11.312968     8A    -11.287367     9A    -11.255108
      10A    -11.254835    11A    -11.235162    12A    -11.217861
      13A     -1.387186    14A     -1.313691    15A     -1.206526
      16A     -1.129785    17A     -1.084349    18A     -1.045337
      19A     -0.959306    20A     -0.902662    21A     -0.894475
      22A     -0.800053    23A     -0.787489    24A     -0.714052
      25A     -0.702836    26A     -0.682216    27A     -0.638551
      28A     -0.629892    29A     -0.601192    30A     -0.588549
      31A     -0.576169    32A     -0.565788    33A     -0.561582
      34A     -0.553355    35A     -0.536431    36A     -0.492864
      37A     -0.455442    38A     -0.431714    39A     -0.418263
      40A     -0.408714    41A     -0.338927    42A     -0.332932

  @DF-RHF Final Energy:  -525.52131418385375

   => Energetics <=

    Nuclear Repulsion Energy =            657.3000367405370525
    One-Electron Energy =               -2016.8585776681907191
    Two-Electron Energy =                 834.0372267437999199
    Total Energy =                       -525.5213141838537467
  Basis Set: (AUG-CC-PVTZ AUX)
    Blend: AUG-CC-PVTZ-RI
    Molecular point group: c1

    Geometry (in Angstrom), charge = 0, multiplicity = 1:

       Center              X                  Y                   Z               Mass
    ------------   -----------------  -----------------  -----------------  -----------------
         N            0.823828572526    -0.260372045922    -0.037565097701    14.003074004430
         N            1.366275572526    -1.487723045922    -0.266644097701    14.003074004430
         N           -1.074053427474     1.026210954078    -0.453310097701    14.003074004430
         N           -1.260900427474    -1.204540045922     0.429541902299    14.003074004430
         C            1.767444572526     0.733760954078     0.134034902299    12.000000000000
         C            2.986343572526     0.091866954078     0.008418902299    12.000000000000
         C           -0.582621427474    -0.140864045922    -0.018035097701    12.000000000000
         C            1.461670572526     2.163356954078     0.438473902299    12.000000000000
         C            2.687119572526    -1.260629045922    -0.239503097701    12.000000000000
         C           -2.413356427474     1.131469954078    -0.431417097701    12.000000000000
         C           -2.596187427474    -1.078871045922     0.404048902299    12.000000000000
         C           -3.233733427474     0.085572954078    -0.020810097701    12.000000000000
         H            3.960590572526     0.553573954078     0.099737902299     1.007825032230
         H            1.020920572526     2.677356954078    -0.417650097701     1.007825032230
         H            0.762175572526     2.258977954078     1.273827902299     1.007825032230
         H            2.394159572526     2.663179954078     0.713837902299     1.007825032230
         H            3.363882572526    -2.088553045922    -0.409428097701     1.007825032230
         H           -2.822752427474     2.080170954078    -0.772887097701     1.007825032230
         H           -3.264447027474    -2.099980545922     0.817069602299     1.007825032230
         H           -4.314947427474     0.174504954078    -0.024368097701     1.007825032230

  Basis Set: AUG-CC-PVTZ
    Blend: AUG-CC-PVTZ
  Basis Set: (AUG-CC-PVTZ AUX)
    Blend: AUG-CC-PVTZ-JKFIT
	 Reference Energy          =    -525.5213141838537467 [Eh]
	 Singles Energy            =      -0.0000000000000000 [Eh]
	 Same-Spin Energy          =      -0.5781931095530445 [Eh]
	 Opposite-Spin Energy      =      -1.7409147141233339 [Eh]
	 Correlation Energy        =      -2.3191078236763785 [Eh]
	 Total Energy              =    -527.8404220075301509 [Eh]

	 ================> DF-SCS-MP2 Energies <==================
	-----------------------------------------------------------
	 SCS Same-Spin Scale       =       0.3333333333333333 [-]
	 SCS Opposite-Spin Scale   =       1.2000000000000000 [-]
	 SCS Same-Spin Energy      =      -0.1927310365176815 [Eh]
	 SCS Opposite-Spin Energy  =      -2.0890976569480006 [Eh]
	 SCS Correlation Energy    =      -2.2818286934656822 [Eh]
	 SCS Total Energy          =    -527.8031428773193738 [Eh]
	-----------------------------------------------------------

  Dipole Moment: [D]
     X:    -2.4776      Y:     2.6117      Z:     0.4164     Total:     3.6239

*** Psi4 exiting successfully. Buy a developer a beer!
