                               Psi4 1.3.2 release

  ==> Input File <==

--------------------------------------------------------------------------
#psi4
#
memory 32 gb

molecule  {
0 1
  N        0.8160970    -0.2990240    -0.0443680
  N        1.3585440    -1.5263750    -0.2734470
  N       -1.0817850     0.9875590    -0.4601130
  N       -1.2891459    -1.3723546     0.4738387
  C        1.7597130     0.6951090     0.1272320
  C        2.9786120     0.0532150     0.0016160
  C       -0.5903530    -0.1795160    -0.0248380
  C        1.4539390     2.1247050     0.4316710
  C        2.6793880    -1.2992810    -0.2463060
  C       -2.4210880     1.0928180    -0.4382200
  C       -2.6039190    -1.1175230     0.3972460
  C       -3.2414650     0.0469210    -0.0276130
  H        3.9528590     0.5149220     0.0929350
  H        1.0131890     2.6387050    -0.4244530
  H        0.7544440     2.2203260     1.2670250
  H        2.3864280     2.6245280     0.7070350
  H        3.3561510    -2.1272050    -0.4162310
  H       -2.8304840     2.0415190    -0.7796900
  H       -3.1684390    -1.9801170     0.7461500
  H       -4.3226790     0.1358530    -0.0311710
units angstrom
no_reorient  #important for SAPT in psi4, default
symmetry c1  #important for SAPT in psi4, default
}

set PROPERTIES_ORIGIN ["COM"]
properties('MP2/aug-cc-pvtz', properties = ['dipole'])
--------------------------------------------------------------------------

    Molecular point group: c1
  Charge       = 0
  Multiplicity = 1
  Basis Set: AUG-CC-PVTZ
    Blend: AUG-CC-PVTZ
  Basis Set: (AUG-CC-PVTZ AUX)
    Blend: AUG-CC-PVTZ-JKFIT

    Orbital Energies [Eh]
    ---------------------

    Doubly Occupied:

       1A    -15.647139     2A    -15.596923     3A    -15.586800
       4A    -15.584116     5A    -11.382503     6A    -11.312893
       7A    -11.304931     8A    -11.289708     9A    -11.257700
      10A    -11.250978    11A    -11.236684    12A    -11.220357
      13A     -1.385843    14A     -1.300530    15A     -1.201139
      16A     -1.129408    17A     -1.085024    18A     -1.042292
      19A     -0.961220    20A     -0.906783    21A     -0.887103
      22A     -0.802069    23A     -0.790798    24A     -0.714130
      25A     -0.698001    26A     -0.678895    27A     -0.637207
      28A     -0.633332    29A     -0.605455    30A     -0.586749
      31A     -0.576528    32A     -0.571551    33A     -0.565234
      34A     -0.552712    35A     -0.538206    36A     -0.502762
      37A     -0.457613    38A     -0.434771    39A     -0.424610
      40A     -0.403821    41A     -0.335911    42A     -0.334703

  @DF-RHF Final Energy:  -525.52175582441942

   => Energetics <=

    Nuclear Repulsion Energy =            654.7141628408354563
    One-Electron Energy =               -2011.6415746849363586
    Two-Electron Energy =                 831.4056560196813734
    Total Energy =                       -525.5217558244194151
  Basis Set: (AUG-CC-PVTZ AUX)
    Blend: AUG-CC-PVTZ-RI
    Molecular point group: c1

    Geometry (in Angstrom), charge = 0, multiplicity = 1:

       Center              X                  Y                   Z               Mass
    ------------   -----------------  -----------------  -----------------  -----------------
         N            0.824969952583    -0.250071133063    -0.041631534604    14.003074004430
         N            1.367416952583    -1.477422133063    -0.270710534604    14.003074004430
         N           -1.072912047417     1.036511866937    -0.457376534604    14.003074004430
         N           -1.280272947417    -1.323401733063     0.476575165396    14.003074004430
         C            1.768585952583     0.744061866937     0.129968465396    12.000000000000
         C            2.987484952583     0.102167866937     0.004352465396    12.000000000000
         C           -0.581480047417    -0.130563133063    -0.022101534604    12.000000000000
         C            1.462811952583     2.173657866937     0.434407465396    12.000000000000
         C            2.688260952583    -1.250328133063    -0.243569534604    12.000000000000
         C           -2.412215047417     1.141770866937    -0.435483534604    12.000000000000
         C           -2.595046047417    -1.068570133063     0.399982465396    12.000000000000
         C           -3.232592047417     0.095873866937    -0.024876534604    12.000000000000
         H            3.961731952583     0.563874866937     0.095671465396     1.007825032230
         H            1.022061952583     2.687657866937    -0.421716534604     1.007825032230
         H            0.763316952583     2.269278866937     1.269761465396     1.007825032230
         H            2.395300952583     2.673480866937     0.709771465396     1.007825032230
         H            3.365023952583    -2.078252133063    -0.413494534604     1.007825032230
         H           -2.821611047417     2.090471866937    -0.776953534604     1.007825032230
         H           -3.159566047417    -1.931164133063     0.748886465396     1.007825032230
         H           -4.313806047417     0.184805866937    -0.028434534604     1.007825032230

  Basis Set: AUG-CC-PVTZ
    Blend: AUG-CC-PVTZ
  Basis Set: (AUG-CC-PVTZ AUX)
    Blend: AUG-CC-PVTZ-JKFIT
	 Reference Energy          =    -525.5217558244194151 [Eh]
	 Singles Energy            =      -0.0000000000000000 [Eh]
	 Same-Spin Energy          =      -0.5786152791404333 [Eh]
	 Opposite-Spin Energy      =      -1.7434898014035243 [Eh]
	 Correlation Energy        =      -2.3221050805439578 [Eh]
	 Total Energy              =    -527.8438609049633214 [Eh]

	 ================> DF-SCS-MP2 Energies <==================
	-----------------------------------------------------------
	 SCS Same-Spin Scale       =       0.3333333333333333 [-]
	 SCS Opposite-Spin Scale   =       1.2000000000000000 [-]
	 SCS Same-Spin Energy      =      -0.1928717597134778 [Eh]
	 SCS Opposite-Spin Energy  =      -2.0921877616842290 [Eh]
	 SCS Correlation Energy    =      -2.2850595213977067 [Eh]
	 SCS Total Energy          =    -527.8068153458170855 [Eh]
	-----------------------------------------------------------

  Dipole Moment: [D]
     X:    -2.2896      Y:     2.7196      Z:     0.3678     Total:     3.5741

*** Psi4 exiting successfully. Buy a developer a beer!
