                               Psi4 1.3.2 release

  ==> Input File <==

--------------------------------------------------------------------------
#psi4
#
memory 32 gb

molecule  {
0 1
  N        0.8160970    -0.2990240    -0.0443680
  N        1.3585440    -1.5263750    -0.2734470
  N       -1.0817850     0.9875590    -0.4601130
  N       -1.2686320    -1.2431920     0.4227390
  C        1.7597130     0.6951090     0.1272320
  C        2.9786120     0.0532150     0.0016160
  C       -0.5396814    -0.1000529    -0.0582747
  C        1.4539390     2.1247050     0.4316710
  C        2.6793880    -1.2992810    -0.2463060
  C       -2.4210880     1.0928180    -0.4382200
  C       -2.6039190    -1.1175230     0.3972460
  C       -3.2414650     0.0469210    -0.0276130
  H        3.9528590     0.5149220     0.0929350
  H        1.0131890     2.6387050    -0.4244530
  H        0.7544440     2.2203260     1.2670250
  H        2.3864280     2.6245280     0.7070350
  H        3.3561510    -2.1272050    -0.4162310
  H       -2.8304840     2.0415190    -0.7796900
  H       -3.1684390    -1.9801170     0.7461500
  H       -4.3226790     0.1358530    -0.0311710
units angstrom
no_reorient  #important for SAPT in psi4, default
symmetry c1  #important for SAPT in psi4, default
}

set PROPERTIES_ORIGIN ["COM"]
properties('MP2/aug-cc-pvtz', properties = ['dipole'])
--------------------------------------------------------------------------

    Molecular point group: c1
  Charge       = 0
  Multiplicity = 1
  Basis Set: AUG-CC-PVTZ
    Blend: AUG-CC-PVTZ
  Basis Set: (AUG-CC-PVTZ AUX)
    Blend: AUG-CC-PVTZ-JKFIT

    Orbital Energies [Eh]
    ---------------------

    Doubly Occupied:

       1A    -15.646110     2A    -15.586536     3A    -15.578154
       4A    -15.575938     5A    -11.366125     6A    -11.309050
       7A    -11.302209     8A    -11.289980     9A    -11.259960
      10A    -11.249805    11A    -11.237790    12A    -11.221171
      13A     -1.394102    14A     -1.310128    15A     -1.192956
      16A     -1.139225    17A     -1.086806    18A     -1.045524
      19A     -0.962878    20A     -0.909780    21A     -0.891877
      22A     -0.807881    23A     -0.795967    24A     -0.715398
      25A     -0.703308    26A     -0.681194    27A     -0.642471
      28A     -0.633110    29A     -0.608132    30A     -0.593921
      31A     -0.585852    32A     -0.574483    33A     -0.567121
      34A     -0.554139    35A     -0.539171    36A     -0.488906
      37A     -0.458156    38A     -0.430577    39A     -0.408005
      40A     -0.405377    41A     -0.336987    42A     -0.335412

  @DF-RHF Final Energy:  -525.53174356601812

   => Energetics <=

    Nuclear Repulsion Energy =            658.5273801993909046
    One-Electron Energy =               -2019.2749020020585249
    Two-Electron Energy =                 835.2157782366493848
    Total Energy =                       -525.5317435660181218
  Basis Set: (AUG-CC-PVTZ AUX)
    Blend: AUG-CC-PVTZ-RI
    Molecular point group: c1

    Geometry (in Angstrom), charge = 0, multiplicity = 1:

       Center              X                  Y                   Z               Mass
    ------------   -----------------  -----------------  -----------------  -----------------
         N            0.819376840354    -0.267326997103    -0.034654842401    14.003074004430
         N            1.361823840354    -1.494677997103    -0.263733842401    14.003074004430
         N           -1.078505159646     1.019256002897    -0.450399842401    14.003074004430
         N           -1.265352159646    -1.211494997103     0.432452157599    14.003074004430
         C            1.762992840354     0.726806002897     0.136945157599    12.000000000000
         C            2.981891840354     0.084912002897     0.011329157599    12.000000000000
         C           -0.536401559646    -0.068355897103    -0.048561542401    12.000000000000
         C            1.457218840354     2.156402002897     0.441384157599    12.000000000000
         C            2.682667840354    -1.267583997103    -0.236592842401    12.000000000000
         C           -2.417808159646     1.124515002897    -0.428506842401    12.000000000000
         C           -2.600639159646    -1.085825997103     0.406959157599    12.000000000000
         C           -3.238185159646     0.078618002897    -0.017899842401    12.000000000000
         H            3.956138840354     0.546619002897     0.102648157599     1.007825032230
         H            1.016468840354     2.670402002897    -0.414739842401     1.007825032230
         H            0.757723840354     2.252023002897     1.276738157599     1.007825032230
         H            2.389707840354     2.656225002897     0.716748157599     1.007825032230
         H            3.359430840354    -2.095507997103    -0.406517842401     1.007825032230
         H           -2.827204159646     2.073216002897    -0.769976842401     1.007825032230
         H           -3.165159159646    -1.948419997103     0.755863157599     1.007825032230
         H           -4.319399159646     0.167550002897    -0.021457842401     1.007825032230

  Basis Set: AUG-CC-PVTZ
    Blend: AUG-CC-PVTZ
  Basis Set: (AUG-CC-PVTZ AUX)
    Blend: AUG-CC-PVTZ-JKFIT
	 Reference Energy          =    -525.5317435660181218 [Eh]
	 Singles Energy            =      -0.0000000000000000 [Eh]
	 Same-Spin Energy          =      -0.5775798781670869 [Eh]
	 Opposite-Spin Energy      =      -1.7397309552731866 [Eh]
	 Correlation Energy        =      -2.3173108334402732 [Eh]
	 Total Energy              =    -527.8490543994583959 [Eh]

	 ================> DF-SCS-MP2 Energies <==================
	-----------------------------------------------------------
	 SCS Same-Spin Scale       =       0.3333333333333333 [-]
	 SCS Opposite-Spin Scale   =       1.2000000000000000 [-]
	 SCS Same-Spin Energy      =      -0.1925266260556956 [Eh]
	 SCS Opposite-Spin Energy  =      -2.0876771463278239 [Eh]
	 SCS Correlation Energy    =      -2.2802037723835196 [Eh]
	 SCS Total Energy          =    -527.8119473384016374 [Eh]
	-----------------------------------------------------------

  Dipole Moment: [D]
     X:    -2.0751      Y:     2.6227      Z:     0.3797     Total:     3.3658

*** Psi4 exiting successfully. Buy a developer a beer!
