                               Psi4 1.3.2 release

  ==> Input File <==

--------------------------------------------------------------------------
#psi4
#
memory 32 gb

molecule  {
0 1
  N        0.8160970    -0.2990240    -0.0443680
  N        1.3585440    -1.5263750    -0.2734470
  N       -1.0817850     0.9875590    -0.4601130
  N       -1.2686320    -1.2431920     0.4227390
  C        1.7597130     0.6951090     0.1272320
  C        2.9786120     0.0532150     0.0016160
  C       -0.6637535    -0.0052011    -0.0898509
  C        1.4539390     2.1247050     0.4316710
  C        2.6793880    -1.2992810    -0.2463060
  C       -2.4210880     1.0928180    -0.4382200
  C       -2.6039190    -1.1175230     0.3972460
  C       -3.2414650     0.0469210    -0.0276130
  H        3.9528590     0.5149220     0.0929350
  H        1.0131890     2.6387050    -0.4244530
  H        0.7544440     2.2203260     1.2670250
  H        2.3864280     2.6245280     0.7070350
  H        3.3561510    -2.1272050    -0.4162310
  H       -2.8304840     2.0415190    -0.7796900
  H       -3.1684390    -1.9801170     0.7461500
  H       -4.3226790     0.1358530    -0.0311710
units angstrom
no_reorient  #important for SAPT in psi4, default
symmetry c1  #important for SAPT in psi4, default
}

set PROPERTIES_ORIGIN ["COM"]
properties('MP2/aug-cc-pvtz', properties = ['dipole'])
--------------------------------------------------------------------------

    Molecular point group: c1
  Charge       = 0
  Multiplicity = 1
  Basis Set: AUG-CC-PVTZ
    Blend: AUG-CC-PVTZ
  Basis Set: (AUG-CC-PVTZ AUX)
    Blend: AUG-CC-PVTZ-JKFIT

    Orbital Energies [Eh]
    ---------------------

    Doubly Occupied:

       1A    -15.629713     2A    -15.591544     3A    -15.579653
       4A    -15.574295     5A    -11.360278     6A    -11.322173
       7A    -11.309734     8A    -11.273390     9A    -11.264244
      10A    -11.244361    11A    -11.232958    12A    -11.206939
      13A     -1.394249    14A     -1.340997    15A     -1.216764
      16A     -1.116104    17A     -1.078064    18A     -1.040283
      19A     -0.953778    20A     -0.934814    21A     -0.878902
      22A     -0.795396    23A     -0.779545    24A     -0.733034
      25A     -0.700655    26A     -0.674295    27A     -0.643545
      28A     -0.632974    29A     -0.619038    30A     -0.592683
      31A     -0.581119    32A     -0.575587    33A     -0.558747
      34A     -0.551037    35A     -0.530397    36A     -0.492303
      37A     -0.457760    38A     -0.448870    39A     -0.420579
      40A     -0.396673    41A     -0.338252    42A     -0.323210

  @DF-RHF Final Energy:  -525.48139970918794

   => Energetics <=

    Nuclear Repulsion Energy =            658.7867587118574875
    One-Electron Energy =               -2019.7584442366212443
    Two-Electron Energy =                 835.4902858155759304
    Total Energy =                       -525.4813997091879401
  Basis Set: (AUG-CC-PVTZ AUX)
    Blend: AUG-CC-PVTZ-RI
    Molecular point group: c1

    Geometry (in Angstrom), charge = 0, multiplicity = 1:

       Center              X                  Y                   Z               Mass
    ------------   -----------------  -----------------  -----------------  -----------------
         N            0.828677894015    -0.274437553640    -0.032287735448    14.003074004430
         N            1.371124894015    -1.501788553640    -0.261366735448    14.003074004430
         N           -1.069204105985     1.012145446360    -0.448032735448    14.003074004430
         N           -1.256051105985    -1.218605553640     0.434819264552    14.003074004430
         C            1.772293894015     0.719695446360     0.139312264552    12.000000000000
         C            2.991192894015     0.077801446360     0.013696264552    12.000000000000
         C           -0.651172605985     0.019385346360    -0.077770635448    12.000000000000
         C            1.466519894015     2.149291446360     0.443751264552    12.000000000000
         C            2.691968894015    -1.274694553640    -0.234225735448    12.000000000000
         C           -2.408507105985     1.117404446360    -0.426139735448    12.000000000000
         C           -2.591338105985    -1.092936553640     0.409326264552    12.000000000000
         C           -3.228884105985     0.071507446360    -0.015532735448    12.000000000000
         H            3.965439894015     0.539508446360     0.105015264552     1.007825032230
         H            1.025769894015     2.663291446360    -0.412372735448     1.007825032230
         H            0.767024894015     2.244912446360     1.279105264552     1.007825032230
         H            2.399008894015     2.649114446360     0.719115264552     1.007825032230
         H            3.368731894015    -2.102618553640    -0.404150735448     1.007825032230
         H           -2.817903105985     2.066105446360    -0.767609735448     1.007825032230
         H           -3.155858105985    -1.955530553640     0.758230264552     1.007825032230
         H           -4.310098105985     0.160439446360    -0.019090735448     1.007825032230

  Basis Set: AUG-CC-PVTZ
    Blend: AUG-CC-PVTZ
  Basis Set: (AUG-CC-PVTZ AUX)
    Blend: AUG-CC-PVTZ-JKFIT
	 Reference Energy          =    -525.4813997091879401 [Eh]
	 Singles Energy            =      -0.0000000000000000 [Eh]
	 Same-Spin Energy          =      -0.5767673466197356 [Eh]
	 Opposite-Spin Energy      =      -1.7407663421960207 [Eh]
	 Correlation Energy        =      -2.3175336888157565 [Eh]
	 Total Energy              =    -527.7989333980036690 [Eh]

	 ================> DF-SCS-MP2 Energies <==================
	-----------------------------------------------------------
	 SCS Same-Spin Scale       =       0.3333333333333333 [-]
	 SCS Opposite-Spin Scale   =       1.2000000000000000 [-]
	 SCS Same-Spin Energy      =      -0.1922557822065785 [Eh]
	 SCS Opposite-Spin Energy  =      -2.0889196106352248 [Eh]
	 SCS Correlation Energy    =      -2.2811753928418033 [Eh]
	 SCS Total Energy          =    -527.7625751020297002 [Eh]
	-----------------------------------------------------------

  Dipole Moment: [D]
     X:    -3.4877      Y:     2.8635      Z:     0.3092     Total:     4.5232

*** Psi4 exiting successfully. Buy a developer a beer!
