                               Psi4 1.4a3.dev225

  ==> Input File <==

--------------------------------------------------------------------------
#psi4
#
memory 32 gb

molecule  {
0 1
  N        0.8160970    -0.2990240    -0.0443680
  N        1.3585440    -1.5263750    -0.2734470
  N       -1.0817850     0.9875590    -0.4601130
  N       -1.2686320    -1.2431920     0.4227390
  C        1.7597130     0.6951090     0.1272320
  C        2.9786120     0.0532150     0.0016160
  C       -0.5903530    -0.1795160    -0.0248380
  C        1.4539390     2.1247050     0.4316710
  C        2.6793880    -1.2992810    -0.2463060
  C       -2.4210880     1.0928180    -0.4382200
  C       -2.6039190    -1.1175230     0.3972460
  C       -3.2414650     0.0469210    -0.0276130
  H        3.9348503     0.5063875     0.0912470
  H        1.0131890     2.6387050    -0.4244530
  H        0.7544440     2.2203260     1.2670250
  H        2.3864280     2.6245280     0.7070350
  H        3.3561510    -2.1272050    -0.4162310
  H       -2.8304840     2.0415190    -0.7796900
  H       -3.1684390    -1.9801170     0.7461500
  H       -4.3226790     0.1358530    -0.0311710
units angstrom
no_reorient  #important for SAPT in psi4, default
symmetry c1  #important for SAPT in psi4, default
}

set PROPERTIES_ORIGIN ["COM"]
properties('MP2/aug-cc-pvtz', properties = ['dipole'])
--------------------------------------------------------------------------

    Molecular point group: c1
  Charge       = 0
  Multiplicity = 1
  Basis Set: AUG-CC-PVTZ
    Blend: AUG-CC-PVTZ
  Basis Set: (AUG-CC-PVTZ AUX)
    Blend: AUG-CC-PVTZ-JKFIT

    Orbital Energies [Eh]
    ---------------------

    Doubly Occupied:

       1A    -15.642003     2A    -15.582383     3A    -15.581325
       4A    -15.578608     5A    -11.367334     6A    -11.311493
       7A    -11.309446     8A    -11.286599     9A    -11.254356
      10A    -11.252655    11A    -11.234720    12A    -11.215011
      13A     -1.386215    14A     -1.312485    15A     -1.205991
      16A     -1.129329    17A     -1.084326    18A     -1.045175
      19A     -0.959034    20A     -0.909062    21A     -0.896722
      22A     -0.800196    23A     -0.796673    24A     -0.713188
      25A     -0.707388    26A     -0.682891    27A     -0.638211
      28A     -0.634245    29A     -0.608040    30A     -0.590483
      31A     -0.586875    32A     -0.575312    33A     -0.564712
      34A     -0.552665    35A     -0.535850    36A     -0.491633
      37A     -0.455092    38A     -0.430473    39A     -0.420185
      40A     -0.407649    41A     -0.337973    42A     -0.332282

  @DF-RHF Final Energy:  -525.54374755616141

   => Energetics <=

    Nuclear Repulsion Energy =            658.3838548847005541
    One-Electron Energy =               -2019.0426354689334403
    Two-Electron Energy =                 835.1150330280713661
    Total Energy =                       -525.5437475561614065
  Basis Set: (AUG-CC-PVTZ AUX)
    Blend: AUG-CC-PVTZ-RI
    Molecular point group: c1

    Geometry (in Angstrom), charge = 0, multiplicity = 1:

       Center              X                  Y                   Z               Mass
    ------------   -----------------  -----------------  -----------------  -----------------
         N            0.823288814269    -0.261316320194    -0.037150793988    14.003074004430
         N            1.365735814269    -1.488667320194    -0.266229793988    14.003074004430
         N           -1.074593185731     1.025266679806    -0.452895793988    14.003074004430
         N           -1.261440185731    -1.205484320194     0.429956206012    14.003074004430
         C            1.766904814269     0.732816679806     0.134449206012    12.000000000000
         C            2.985803814269     0.090922679806     0.008833206012    12.000000000000
         C           -0.583161185731    -0.141808320194    -0.017620793988    12.000000000000
         C            1.461130814269     2.162412679806     0.438888206012    12.000000000000
         C            2.686579814269    -1.261573320194    -0.239088793988    12.000000000000
         C           -2.413896185731     1.130525679806    -0.431002793988    12.000000000000
         C           -2.596727185731    -1.079815320194     0.404463206012    12.000000000000
         C           -3.234273185731     0.084628679806    -0.020395793988    12.000000000000
         H            3.942042114269     0.544095179806     0.098464206012     1.007825032230
         H            1.020380814269     2.676412679806    -0.417235793988     1.007825032230
         H            0.761635814269     2.258033679806     1.274242206012     1.007825032230
         H            2.393619814269     2.662235679806     0.714252206012     1.007825032230
         H            3.363342814269    -2.089497320194    -0.409013793988     1.007825032230
         H           -2.823292185731     2.079226679806    -0.772472793988     1.007825032230
         H           -3.161247185731    -1.942409320194     0.753367206012     1.007825032230
         H           -4.315487185731     0.173560679806    -0.023953793988     1.007825032230

  Basis Set: AUG-CC-PVTZ
    Blend: AUG-CC-PVTZ
  Basis Set: (AUG-CC-PVTZ AUX)
    Blend: AUG-CC-PVTZ-JKFIT
	 Reference Energy          =    -525.5437475561614065 [Eh]
	 Singles Energy            =      -0.0000000000000000 [Eh]
	 Same-Spin Energy          =      -0.5775244297145659 [Eh]
	 Opposite-Spin Energy      =      -1.7384999920962714 [Eh]
	 Correlation Energy        =      -2.3160244218108375 [Eh]
	 Total Energy              =    -527.8597719779722865 [Eh]

	 ================> DF-SCS-MP2 Energies <==================
	-----------------------------------------------------------
	 SCS Same-Spin Scale       =       0.3333333333333333 [-]
	 SCS Opposite-Spin Scale   =       1.2000000000000000 [-]
	 SCS Same-Spin Energy      =      -0.1925081432381886 [Eh]
	 SCS Opposite-Spin Energy  =      -2.0861999905155257 [Eh]
	 SCS Correlation Energy    =      -2.2787081337537143 [Eh]
	 SCS Total Energy          =    -527.8224556899151594 [Eh]
	-----------------------------------------------------------

  Dipole Moment: [D]
     X:    -2.5766      Y:     2.5568      Z:     0.4403     Total:     3.6565

*** Psi4 exiting successfully. Buy a developer a beer!
