                               Psi4 1.3.2 release

  ==> Input File <==

--------------------------------------------------------------------------
#psi4
#
memory 32 gb

molecule  {
0 1
  N        0.7986532    -0.2828524    -0.0404391
  N        1.3585440    -1.5263750    -0.2734470
  N       -1.0817850     0.9875590    -0.4601130
  N       -1.2686320    -1.2431920     0.4227390
  C        1.7597130     0.6951090     0.1272320
  C        2.9786120     0.0532150     0.0016160
  C       -0.5903530    -0.1795160    -0.0248380
  C        1.4539390     2.1247050     0.4316710
  C        2.6793880    -1.2992810    -0.2463060
  C       -2.4210880     1.0928180    -0.4382200
  C       -2.6039190    -1.1175230     0.3972460
  C       -3.2414650     0.0469210    -0.0276130
  H        3.9528590     0.5149220     0.0929350
  H        1.0131890     2.6387050    -0.4244530
  H        0.7544440     2.2203260     1.2670250
  H        2.3864280     2.6245280     0.7070350
  H        3.3561510    -2.1272050    -0.4162310
  H       -2.8304840     2.0415190    -0.7796900
  H       -3.1684390    -1.9801170     0.7461500
  H       -4.3226790     0.1358530    -0.0311710
units angstrom
no_reorient  #important for SAPT in psi4, default
symmetry c1  #important for SAPT in psi4, default
}

set PROPERTIES_ORIGIN ["COM"]
properties('MP2/aug-cc-pvtz', properties = ['dipole'])
--------------------------------------------------------------------------

    Molecular point group: c1
  Charge       = 0
  Multiplicity = 1
  Basis Set: AUG-CC-PVTZ
    Blend: AUG-CC-PVTZ
  Basis Set: (AUG-CC-PVTZ AUX)
    Blend: AUG-CC-PVTZ-JKFIT

    Orbital Energies [Eh]
    ---------------------

    Doubly Occupied:

       1A    -15.640606     2A    -15.582554     3A    -15.580500
       4A    -15.577202     5A    -11.365603     6A    -11.310354
       7A    -11.308554     8A    -11.289497     9A    -11.257583
      10A    -11.251285    11A    -11.234586    12A    -11.218525
      13A     -1.382615    14A     -1.309418    15A     -1.204998
      16A     -1.132798    17A     -1.083478    18A     -1.044697
      19A     -0.958550    20A     -0.908451    21A     -0.897556
      22A     -0.800926    23A     -0.794508    24A     -0.713007
      25A     -0.706202    26A     -0.682022    27A     -0.637821
      28A     -0.633533    29A     -0.606979    30A     -0.592359
      31A     -0.586003    32A     -0.574511    33A     -0.562591
      34A     -0.550441    35A     -0.536840    36A     -0.491538
      37A     -0.453651    38A     -0.429590    39A     -0.418950
      40A     -0.409532    41A     -0.338863    42A     -0.332035

  @DF-RHF Final Energy:  -525.54281538235216

   => Energetics <=

    Nuclear Repulsion Energy =            658.2938833486899739
    One-Electron Energy =               -2018.8907712859481762
    Two-Electron Energy =                 835.0540725549059289
    Total Energy =                       -525.5428153823521598
  Basis Set: (AUG-CC-PVTZ AUX)
    Blend: AUG-CC-PVTZ-RI
    Molecular point group: c1

    Geometry (in Angstrom), charge = 0, multiplicity = 1:

       Center              X                  Y                   Z               Mass
    ------------   -----------------  -----------------  -----------------  -----------------
         N            0.807257585565    -0.246613116550    -0.033576214918    14.003074004430
         N            1.367148385565    -1.490135716550    -0.266584114918    14.003074004430
         N           -1.073180614435     1.023798283450    -0.453250114918    14.003074004430
         N           -1.260027614435    -1.206952716550     0.429601885082    14.003074004430
         C            1.768317385565     0.731348283450     0.134094885082    12.000000000000
         C            2.987216385565     0.089454283450     0.008478885082    12.000000000000
         C           -0.581748614435    -0.143276716550    -0.017975114918    12.000000000000
         C            1.462543385565     2.160944283450     0.438533885082    12.000000000000
         C            2.687992385565    -1.263041716550    -0.239443114918    12.000000000000
         C           -2.412483614435     1.129057283450    -0.431357114918    12.000000000000
         C           -2.595314614435    -1.081283716550     0.404108885082    12.000000000000
         C           -3.232860614435     0.083160283450    -0.020750114918    12.000000000000
         H            3.961463385565     0.551161283450     0.099797885082     1.007825032230
         H            1.021793385565     2.674944283450    -0.417590114918     1.007825032230
         H            0.763048385565     2.256565283450     1.273887885082     1.007825032230
         H            2.395032385565     2.660767283450     0.713897885082     1.007825032230
         H            3.364755385565    -2.090965716550    -0.409368114918     1.007825032230
         H           -2.821879614435     2.077758283450    -0.772827114918     1.007825032230
         H           -3.159834614435    -1.943877716550     0.753012885082     1.007825032230
         H           -4.314074614435     0.172092283450    -0.024308114918     1.007825032230

  Basis Set: AUG-CC-PVTZ
    Blend: AUG-CC-PVTZ
  Basis Set: (AUG-CC-PVTZ AUX)
    Blend: AUG-CC-PVTZ-JKFIT
	 Reference Energy          =    -525.5428153823521598 [Eh]
	 Singles Energy            =      -0.0000000000000000 [Eh]
	 Same-Spin Energy          =      -0.5773639204056268 [Eh]
	 Opposite-Spin Energy      =      -1.7388082380058441 [Eh]
	 Correlation Energy        =      -2.3161721584114709 [Eh]
	 Total Energy              =    -527.8589875407636782 [Eh]

	 ================> DF-SCS-MP2 Energies <==================
	-----------------------------------------------------------
	 SCS Same-Spin Scale       =       0.3333333333333333 [-]
	 SCS Opposite-Spin Scale   =       1.2000000000000000 [-]
	 SCS Same-Spin Energy      =      -0.1924546401352089 [Eh]
	 SCS Opposite-Spin Energy  =      -2.0865698856070130 [Eh]
	 SCS Correlation Energy    =      -2.2790245257422219 [Eh]
	 SCS Total Energy          =    -527.8218399080943755 [Eh]
	-----------------------------------------------------------

  Dipole Moment: [D]
     X:    -2.4356      Y:     2.5274      Z:     0.4368     Total:     3.5371

*** Psi4 exiting successfully. Buy a developer a beer!
