                               Psi4 1.3.2 release

  ==> Input File <==

--------------------------------------------------------------------------
#psi4
#
memory 32 gb

molecule  {
0 1
  N        0.7975105    -0.4352585     0.0097416
  N        1.3585440    -1.5263750    -0.2734470
  N       -1.0817850     0.9875590    -0.4601130
  N       -1.2686320    -1.2431920     0.4227390
  C        1.7597130     0.6951090     0.1272320
  C        2.9786120     0.0532150     0.0016160
  C       -0.5903530    -0.1795160    -0.0248380
  C        1.4539390     2.1247050     0.4316710
  C        2.6793880    -1.2992810    -0.2463060
  C       -2.4210880     1.0928180    -0.4382200
  C       -2.6039190    -1.1175230     0.3972460
  C       -3.2414650     0.0469210    -0.0276130
  H        3.9528590     0.5149220     0.0929350
  H        1.0131890     2.6387050    -0.4244530
  H        0.7544440     2.2203260     1.2670250
  H        2.3864280     2.6245280     0.7070350
  H        3.3561510    -2.1272050    -0.4162310
  H       -2.8304840     2.0415190    -0.7796900
  H       -3.1684390    -1.9801170     0.7461500
  H       -4.3226790     0.1358530    -0.0311710
units angstrom
no_reorient  #important for SAPT in psi4, default
symmetry c1  #important for SAPT in psi4, default
}

set PROPERTIES_ORIGIN ["COM"]
properties('MP2/aug-cc-pvtz', properties = ['dipole'])
--------------------------------------------------------------------------

    Molecular point group: c1
  Charge       = 0
  Multiplicity = 1
  Basis Set: AUG-CC-PVTZ
    Blend: AUG-CC-PVTZ
  Basis Set: (AUG-CC-PVTZ AUX)
    Blend: AUG-CC-PVTZ-JKFIT

    Orbital Energies [Eh]
    ---------------------

    Doubly Occupied:

       1A    -15.647498     2A    -15.586356     3A    -15.584867
       4A    -15.576754     5A    -11.367445     6A    -11.313752
       7A    -11.308683     8A    -11.283280     9A    -11.253551
      10A    -11.246693    11A    -11.234018    12A    -11.223319
      13A     -1.411813    14A     -1.319312    15A     -1.206791
      16A     -1.126035    17A     -1.079888    18A     -1.045967
      19A     -0.958821    20A     -0.910301    21A     -0.893685
      22A     -0.805593    23A     -0.790288    24A     -0.712394
      25A     -0.711551    26A     -0.683270    27A     -0.642535
      28A     -0.634419    29A     -0.607639    30A     -0.599818
      31A     -0.583223    32A     -0.575418    33A     -0.562515
      34A     -0.559554    35A     -0.533162    36A     -0.491269
      37A     -0.448168    38A     -0.431491    39A     -0.420440
      40A     -0.406451    41A     -0.349046    42A     -0.313543

  @DF-RHF Final Energy:  -525.52189825492314

   => Energetics <=

    Nuclear Repulsion Energy =            658.1826277874102971
    One-Electron Energy =               -2018.5278187136752877
    Two-Electron Energy =                 834.8232926713417328
    Total Energy =                       -525.5218982549231441
  Basis Set: (AUG-CC-PVTZ AUX)
    Blend: AUG-CC-PVTZ-RI
    Molecular point group: c1

    Geometry (in Angstrom), charge = 0, multiplicity = 1:

       Center              X                  Y                   Z               Mass
    ------------   -----------------  -----------------  -----------------  -----------------
         N            0.806214846977    -0.385686995529     0.012214764570    14.003074004430
         N            1.367248346977    -1.476803495529    -0.270973835430    14.003074004430
         N           -1.073080653023     1.037130504471    -0.457639835430    14.003074004430
         N           -1.259927653023    -1.193620495529     0.425212164570    14.003074004430
         C            1.768417346977     0.744680504471     0.129705164570    12.000000000000
         C            2.987316346977     0.102786504471     0.004089164570    12.000000000000
         C           -0.581648653023    -0.129944495529    -0.022364835430    12.000000000000
         C            1.462643346977     2.174276504471     0.434144164570    12.000000000000
         C            2.688092346977    -1.249709495529    -0.243832835430    12.000000000000
         C           -2.412383653023     1.142389504471    -0.435746835430    12.000000000000
         C           -2.595214653023    -1.067951495529     0.399719164570    12.000000000000
         C           -3.232760653023     0.096492504471    -0.025139835430    12.000000000000
         H            3.961563346977     0.564493504471     0.095408164570     1.007825032230
         H            1.021893346977     2.688276504471    -0.421979835430     1.007825032230
         H            0.763148346977     2.269897504471     1.269498164570     1.007825032230
         H            2.395132346977     2.674099504471     0.709508164570     1.007825032230
         H            3.364855346977    -2.077633495529    -0.413757835430     1.007825032230
         H           -2.821779653023     2.091090504471    -0.777216835430     1.007825032230
         H           -3.159734653023    -1.930545495529     0.748623164570     1.007825032230
         H           -4.313974653023     0.185424504471    -0.028697835430     1.007825032230

  Basis Set: AUG-CC-PVTZ
    Blend: AUG-CC-PVTZ
  Basis Set: (AUG-CC-PVTZ AUX)
    Blend: AUG-CC-PVTZ-JKFIT
	 Reference Energy          =    -525.5218982549231441 [Eh]
	 Singles Energy            =      -0.0000000000000000 [Eh]
	 Same-Spin Energy          =      -0.5790809871972591 [Eh]
	 Opposite-Spin Energy      =      -1.7401877778945525 [Eh]
	 Correlation Energy        =      -2.3192687650918113 [Eh]
	 Total Energy              =    -527.8411670200149501 [Eh]

	 ================> DF-SCS-MP2 Energies <==================
	-----------------------------------------------------------
	 SCS Same-Spin Scale       =       0.3333333333333333 [-]
	 SCS Opposite-Spin Scale   =       1.2000000000000000 [-]
	 SCS Same-Spin Energy      =      -0.1930269957324197 [Eh]
	 SCS Opposite-Spin Energy  =      -2.0882253334734631 [Eh]
	 SCS Correlation Energy    =      -2.2812523292058828 [Eh]
	 SCS Total Energy          =    -527.8031505841290709 [Eh]
	-----------------------------------------------------------

  Dipole Moment: [D]
     X:    -2.6067      Y:     2.6035      Z:     0.4304     Total:     3.7093

*** Psi4 exiting successfully. Buy a developer a beer!
