                               Psi4 1.4a3.dev225

  ==> Input File <==

--------------------------------------------------------------------------
#psi4
#
memory 32 gb

molecule  {
0 1
  N        0.8160970    -0.2990240    -0.0443680
  N        1.3585440    -1.5263750    -0.2734470
  N       -1.0817850     0.9875590    -0.4601130
  N       -1.2686320    -1.2431920     0.4227390
  C        1.7597130     0.6951090     0.1272320
  C        2.9786120     0.0532150     0.0016160
  C       -0.5903530    -0.1795160    -0.0248380
  C        1.4539390     2.1247050     0.4316710
  C        2.6793880    -1.2992810    -0.2463060
  C       -2.4410239     1.0943848    -0.4378941
  C       -2.6039190    -1.1175230     0.3972460
  C       -3.2414650     0.0469210    -0.0276130
  H        3.9528590     0.5149220     0.0929350
  H        1.0131890     2.6387050    -0.4244530
  H        0.7544440     2.2203260     1.2670250
  H        2.3864280     2.6245280     0.7070350
  H        3.3561510    -2.1272050    -0.4162310
  H       -2.8304840     2.0415190    -0.7796900
  H       -3.1684390    -1.9801170     0.7461500
  H       -4.3226790     0.1358530    -0.0311710
units angstrom
no_reorient  #important for SAPT in psi4, default
symmetry c1  #important for SAPT in psi4, default
}

set PROPERTIES_ORIGIN ["COM"]
properties('MP2/aug-cc-pvtz', properties = ['dipole'])
--------------------------------------------------------------------------

    Molecular point group: c1
  Charge       = 0
  Multiplicity = 1
  Basis Set: AUG-CC-PVTZ
    Blend: AUG-CC-PVTZ
  Basis Set: (AUG-CC-PVTZ AUX)
    Blend: AUG-CC-PVTZ-JKFIT

    Orbital Energies [Eh]
    ---------------------

    Doubly Occupied:

       1A    -15.641688     2A    -15.582674     3A    -15.581161
       4A    -15.579089     5A    -11.366640     6A    -11.311324
       7A    -11.310761     8A    -11.286367     9A    -11.254203
      10A    -11.252653    11A    -11.234246    12A    -11.216949
      13A     -1.385644    14A     -1.310095    15A     -1.202321
      16A     -1.129328    17A     -1.084180    18A     -1.046283
      19A     -0.958347    20A     -0.910843    21A     -0.894878
      22A     -0.800141    23A     -0.794762    24A     -0.712310
      25A     -0.707371    26A     -0.682603    27A     -0.637558
      28A     -0.633297    29A     -0.608139    30A     -0.589416
      31A     -0.587220    32A     -0.574363    33A     -0.563409
      34A     -0.551963    35A     -0.535437    36A     -0.490466
      37A     -0.454891    38A     -0.427803    39A     -0.420780
      40A     -0.408907    41A     -0.338686    42A     -0.332043

  @DF-RHF Final Energy:  -525.54247110853021

   => Energetics <=

    Nuclear Repulsion Energy =            657.9538497402239727
    One-Electron Energy =               -2018.2101600100595533
    Two-Electron Energy =                 834.7138391613052590
    Total Energy =                       -525.5424711085302079
  Basis Set: (AUG-CC-PVTZ AUX)
    Blend: AUG-CC-PVTZ-RI
    Molecular point group: c1

    Geometry (in Angstrom), charge = 0, multiplicity = 1:

       Center              X                  Y                   Z               Mass
    ------------   -----------------  -----------------  -----------------  -----------------
         N            0.824669925152    -0.261487508078    -0.037185852631    14.003074004430
         N            1.367116925152    -1.488838508078    -0.266264852631    14.003074004430
         N           -1.073212074848     1.025095491922    -0.452930852631    14.003074004430
         N           -1.260059074848    -1.205655508078     0.429921147369    14.003074004430
         C            1.768285925152     0.732645491922     0.134414147369    12.000000000000
         C            2.987184925152     0.090751491922     0.008798147369    12.000000000000
         C           -0.581780074848    -0.141979508078    -0.017655852631    12.000000000000
         C            1.462511925152     2.162241491922     0.438853147369    12.000000000000
         C            2.687960925152    -1.261744508078    -0.239123852631    12.000000000000
         C           -2.432450974848     1.131921291922    -0.430711952631    12.000000000000
         C           -2.595346074848    -1.079986508078     0.404428147369    12.000000000000
         C           -3.232892074848     0.084457491922    -0.020430852631    12.000000000000
         H            3.961431925152     0.552458491922     0.100117147369     1.007825032230
         H            1.021761925152     2.676241491922    -0.417270852631     1.007825032230
         H            0.763016925152     2.257862491922     1.274207147369     1.007825032230
         H            2.395000925152     2.662064491922     0.714217147369     1.007825032230
         H            3.364723925152    -2.089668508078    -0.409048852631     1.007825032230
         H           -2.821911074848     2.079055491922    -0.772507852631     1.007825032230
         H           -3.159866074848    -1.942580508078     0.753332147369     1.007825032230
         H           -4.314106074848     0.173389491922    -0.023988852631     1.007825032230

  Basis Set: AUG-CC-PVTZ
    Blend: AUG-CC-PVTZ
  Basis Set: (AUG-CC-PVTZ AUX)
    Blend: AUG-CC-PVTZ-JKFIT
	 Reference Energy          =    -525.5424711085302079 [Eh]
	 Singles Energy            =      -0.0000000000000000 [Eh]
	 Same-Spin Energy          =      -0.5776846415906439 [Eh]
	 Opposite-Spin Energy      =      -1.7390675326362490 [Eh]
	 Correlation Energy        =      -2.3167521742268931 [Eh]
	 Total Energy              =    -527.8592232827570569 [Eh]

	 ================> DF-SCS-MP2 Energies <==================
	-----------------------------------------------------------
	 SCS Same-Spin Scale       =       0.3333333333333333 [-]
	 SCS Opposite-Spin Scale   =       1.2000000000000000 [-]
	 SCS Same-Spin Energy      =      -0.1925615471968813 [Eh]
	 SCS Opposite-Spin Energy  =      -2.0868810391634987 [Eh]
	 SCS Correlation Energy    =      -2.2794425863603798 [Eh]
	 SCS Total Energy          =    -527.8219136948905543 [Eh]
	-----------------------------------------------------------

  Dipole Moment: [D]
     X:    -2.6171      Y:     2.5503      Z:     0.4434     Total:     3.6810

*** Psi4 exiting successfully. Buy a developer a beer!
