                               Psi4 1.4a3.dev225

  ==> Input File <==

--------------------------------------------------------------------------
#psi4
#
memory 32 gb

molecule  {
0 1
  N        0.8160970    -0.2990240    -0.0443680
  N        1.3665136    -1.5444071    -0.2768126
  N       -1.0817850     0.9875590    -0.4601130
  N       -1.2686320    -1.2431920     0.4227390
  C        1.7597130     0.6951090     0.1272320
  C        2.9786120     0.0532150     0.0016160
  C       -0.5903530    -0.1795160    -0.0248380
  C        1.4539390     2.1247050     0.4316710
  C        2.6793880    -1.2992810    -0.2463060
  C       -2.4210880     1.0928180    -0.4382200
  C       -2.6039190    -1.1175230     0.3972460
  C       -3.2414650     0.0469210    -0.0276130
  H        3.9528590     0.5149220     0.0929350
  H        1.0131890     2.6387050    -0.4244530
  H        0.7544440     2.2203260     1.2670250
  H        2.3864280     2.6245280     0.7070350
  H        3.3561510    -2.1272050    -0.4162310
  H       -2.8304840     2.0415190    -0.7796900
  H       -3.1684390    -1.9801170     0.7461500
  H       -4.3226790     0.1358530    -0.0311710
units angstrom
no_reorient  #important for SAPT in psi4, default
symmetry c1  #important for SAPT in psi4, default
}

set PROPERTIES_ORIGIN ["COM"]
properties('MP2/aug-cc-pvtz', properties = ['dipole'])
--------------------------------------------------------------------------

    Molecular point group: c1
  Charge       = 0
  Multiplicity = 1
  Basis Set: AUG-CC-PVTZ
    Blend: AUG-CC-PVTZ
  Basis Set: (AUG-CC-PVTZ AUX)
    Blend: AUG-CC-PVTZ-JKFIT

    Orbital Energies [Eh]
    ---------------------

    Doubly Occupied:

       1A    -15.640486     2A    -15.582990     3A    -15.581763
       4A    -15.577967     5A    -11.366880     6A    -11.311110
       7A    -11.309036     8A    -11.288943     9A    -11.255581
      10A    -11.252100    11A    -11.235522    12A    -11.217295
      13A     -1.380694    14A     -1.310724    15A     -1.205467
      16A     -1.130451    17A     -1.084293    18A     -1.043956
      19A     -0.959998    20A     -0.908580    21A     -0.895457
      22A     -0.798917    23A     -0.793243    24A     -0.713081
      25A     -0.706920    26A     -0.682539    27A     -0.636466
      28A     -0.632767    29A     -0.606835    30A     -0.588748
      31A     -0.585882    32A     -0.574308    33A     -0.564061
      34A     -0.551596    35A     -0.536583    36A     -0.491244
      37A     -0.456691    38A     -0.430142    39A     -0.420040
      40A     -0.408303    41A     -0.339322    42A     -0.332521

  @DF-RHF Final Energy:  -525.54299697057058

   => Energetics <=

    Nuclear Repulsion Energy =            657.7345286308147934
    One-Electron Energy =               -2017.7760428198744194
    Two-Electron Energy =                 834.4985172184890416
    Total Energy =                       -525.5429969705705844
  Basis Set: (AUG-CC-PVTZ AUX)
    Blend: AUG-CC-PVTZ-RI
    Molecular point group: c1

    Geometry (in Angstrom), charge = 0, multiplicity = 1:

       Center              X                  Y                   Z               Mass
    ------------   -----------------  -----------------  -----------------  -----------------
         N            0.822478265456    -0.259792636258    -0.036867004723    14.003074004430
         N            1.372894865456    -1.505175736258    -0.269311604723    14.003074004430
         N           -1.075403734544     1.026790363742    -0.452612004723    14.003074004430
         N           -1.262250734544    -1.203960636258     0.430239995277    14.003074004430
         C            1.766094265456     0.734340363742     0.134732995277    12.000000000000
         C            2.984993265456     0.092446363742     0.009116995277    12.000000000000
         C           -0.583971734544    -0.140284636258    -0.017337004723    12.000000000000
         C            1.460320265456     2.163936363742     0.439171995277    12.000000000000
         C            2.685769265456    -1.260049636258    -0.238805004723    12.000000000000
         C           -2.414706734544     1.132049363742    -0.430719004723    12.000000000000
         C           -2.597537734544    -1.078291636258     0.404746995277    12.000000000000
         C           -3.235083734544     0.086152363742    -0.020112004723    12.000000000000
         H            3.959240265456     0.554153363742     0.100435995277     1.007825032230
         H            1.019570265456     2.677936363742    -0.416952004723     1.007825032230
         H            0.760825265456     2.259557363742     1.274525995277     1.007825032230
         H            2.392809265456     2.663759363742     0.714535995277     1.007825032230
         H            3.362532265456    -2.087973636258    -0.408730004723     1.007825032230
         H           -2.824102734544     2.080750363742    -0.772189004723     1.007825032230
         H           -3.162057734544    -1.940885636258     0.753650995277     1.007825032230
         H           -4.316297734544     0.175084363742    -0.023670004723     1.007825032230

  Basis Set: AUG-CC-PVTZ
    Blend: AUG-CC-PVTZ
  Basis Set: (AUG-CC-PVTZ AUX)
    Blend: AUG-CC-PVTZ-JKFIT
	 Reference Energy          =    -525.5429969705705844 [Eh]
	 Singles Energy            =      -0.0000000000000000 [Eh]
	 Same-Spin Energy          =      -0.5773523072208764 [Eh]
	 Opposite-Spin Energy      =      -1.7387735173587446 [Eh]
	 Correlation Energy        =      -2.3161258245796210 [Eh]
	 Total Energy              =    -527.8591227951502560 [Eh]

	 ================> DF-SCS-MP2 Energies <==================
	-----------------------------------------------------------
	 SCS Same-Spin Scale       =       0.3333333333333333 [-]
	 SCS Opposite-Spin Scale   =       1.2000000000000000 [-]
	 SCS Same-Spin Energy      =      -0.1924507690736255 [Eh]
	 SCS Opposite-Spin Energy  =      -2.0865282208304934 [Eh]
	 SCS Correlation Energy    =      -2.2789789899041186 [Eh]
	 SCS Total Energy          =    -527.8219759604746741 [Eh]
	-----------------------------------------------------------

  Dipole Moment: [D]
     X:    -2.5317      Y:     2.5724      Z:     0.4433     Total:     3.6364

*** Psi4 exiting successfully. Buy a developer a beer!
