                               Psi4 1.4a3.dev225

  ==> Input File <==

--------------------------------------------------------------------------
#psi4
#
memory 32 gb

molecule  {
0 1
  N        0.8160970    -0.2990240    -0.0443680
  N        1.3585440    -1.5263750    -0.2734470
  N       -1.0817850     0.9875590    -0.4601130
  N       -1.2686320    -1.2431920     0.4227390
  C        1.7597130     0.6951090     0.1272320
  C        2.9786120     0.0532150     0.0016160
  C       -0.5903530    -0.1795160    -0.0248380
  C        1.4539390     2.1247050     0.4316710
  C        2.7286549    -1.2908105    -0.2452937
  C       -2.4210880     1.0928180    -0.4382200
  C       -2.6039190    -1.1175230     0.3972460
  C       -3.2414650     0.0469210    -0.0276130
  H        3.9528590     0.5149220     0.0929350
  H        1.0131890     2.6387050    -0.4244530
  H        0.7544440     2.2203260     1.2670250
  H        2.3864280     2.6245280     0.7070350
  H        3.3561510    -2.1272050    -0.4162310
  H       -2.8304840     2.0415190    -0.7796900
  H       -3.1684390    -1.9801170     0.7461500
  H       -4.3226790     0.1358530    -0.0311710
units angstrom
no_reorient  #important for SAPT in psi4, default
symmetry c1  #important for SAPT in psi4, default
}

set PROPERTIES_ORIGIN ["COM"]
properties('MP2/aug-cc-pvtz', properties = ['dipole'])
--------------------------------------------------------------------------

    Molecular point group: c1
  Charge       = 0
  Multiplicity = 1
  Basis Set: AUG-CC-PVTZ
    Blend: AUG-CC-PVTZ
  Basis Set: (AUG-CC-PVTZ AUX)
    Blend: AUG-CC-PVTZ-JKFIT

    Orbital Energies [Eh]
    ---------------------

    Doubly Occupied:

       1A    -15.645611     2A    -15.583508     3A    -15.583170
       4A    -15.579609     5A    -11.368257     6A    -11.312115
       7A    -11.310020     8A    -11.286052     9A    -11.255276
      10A    -11.253624    11A    -11.234725    12A    -11.217786
      13A     -1.382788    14A     -1.310839    15A     -1.206785
      16A     -1.123483    17A     -1.081792    18A     -1.046256
      19A     -0.957583    20A     -0.909401    21A     -0.898999
      22A     -0.804162    23A     -0.794072    24A     -0.713425
      25A     -0.706839    26A     -0.682759    27A     -0.637372
      28A     -0.634051    29A     -0.607221    30A     -0.590948
      31A     -0.586819    32A     -0.576126    33A     -0.561551
      34A     -0.550500    35A     -0.539477    36A     -0.492376
      37A     -0.452907    38A     -0.430944    39A     -0.420509
      40A     -0.406950    41A     -0.340053    42A     -0.325179

  @DF-RHF Final Energy:  -525.53615766313294

   => Energetics <=

    Nuclear Repulsion Energy =            657.4169646131789477
    One-Electron Energy =               -2017.1024035828945671
    Two-Electron Energy =                 834.1492813065825658
    Total Energy =                       -525.5361576631329399
  Basis Set: (AUG-CC-PVTZ AUX)
    Blend: AUG-CC-PVTZ-RI
    Molecular point group: c1

    Geometry (in Angstrom), charge = 0, multiplicity = 1:

       Center              X                  Y                   Z               Mass
    ------------   -----------------  -----------------  -----------------  -----------------
         N            0.819482143562    -0.262005043319    -0.037237308544    14.003074004430
         N            1.361929143562    -1.489356043319    -0.266316308544    14.003074004430
         N           -1.078399856438     1.024577956681    -0.452982308544    14.003074004430
         N           -1.265246856438    -1.206173043319     0.429869691456    14.003074004430
         C            1.763098143562     0.732127956681     0.134362691456    12.000000000000
         C            2.981997143562     0.090233956681     0.008746691456    12.000000000000
         C           -0.586967856438    -0.142497043319    -0.017707308544    12.000000000000
         C            1.457324143562     2.161723956681     0.438801691456    12.000000000000
         C            2.732040043562    -1.253791543319    -0.238163008544    12.000000000000
         C           -2.417702856438     1.129836956681    -0.431089308544    12.000000000000
         C           -2.600533856438    -1.080504043319     0.404376691456    12.000000000000
         C           -3.238079856438     0.083939956681    -0.020482308544    12.000000000000
         H            3.956244143562     0.551940956681     0.100065691456     1.007825032230
         H            1.016574143562     2.675723956681    -0.417322308544     1.007825032230
         H            0.757829143562     2.257344956681     1.274155691456     1.007825032230
         H            2.389813143562     2.661546956681     0.714165691456     1.007825032230
         H            3.359536143562    -2.090186043319    -0.409100308544     1.007825032230
         H           -2.827098856438     2.078537956681    -0.772559308544     1.007825032230
         H           -3.165053856438    -1.943098043319     0.753280691456     1.007825032230
         H           -4.319293856438     0.172871956681    -0.024040308544     1.007825032230

  Basis Set: AUG-CC-PVTZ
    Blend: AUG-CC-PVTZ
  Basis Set: (AUG-CC-PVTZ AUX)
    Blend: AUG-CC-PVTZ-JKFIT
	 Reference Energy          =    -525.5361576631329399 [Eh]
	 Singles Energy            =      -0.0000000000000000 [Eh]
	 Same-Spin Energy          =      -0.5792072187118664 [Eh]
	 Opposite-Spin Energy      =      -1.7415620934521314 [Eh]
	 Correlation Energy        =      -2.3207693121639981 [Eh]
	 Total Energy              =    -527.8569269752969149 [Eh]

	 ================> DF-SCS-MP2 Energies <==================
	-----------------------------------------------------------
	 SCS Same-Spin Scale       =       0.3333333333333333 [-]
	 SCS Opposite-Spin Scale   =       1.2000000000000000 [-]
	 SCS Same-Spin Energy      =      -0.1930690729039555 [Eh]
	 SCS Opposite-Spin Energy  =      -2.0898745121425577 [Eh]
	 SCS Correlation Energy    =      -2.2829435850465130 [Eh]
	 SCS Total Energy          =    -527.8191012481794360 [Eh]
	-----------------------------------------------------------

  Dipole Moment: [D]
     X:    -2.6691      Y:     2.5796      Z:     0.4460     Total:     3.7386

*** Psi4 exiting successfully. Buy a developer a beer!
