                               Psi4 1.3.2 release

  ==> Input File <==

--------------------------------------------------------------------------
#psi4
#
memory 32 gb

molecule  {
0 1
  N        0.8160970    -0.2990240    -0.0443680
  N        1.3802515    -1.5168914    -0.2716238
  N       -1.0817850     0.9875590    -0.4601130
  N       -1.2686320    -1.2431920     0.4227390
  C        1.7597130     0.6951090     0.1272320
  C        2.9786120     0.0532150     0.0016160
  C       -0.5903530    -0.1795160    -0.0248380
  C        1.4539390     2.1247050     0.4316710
  C        2.6793880    -1.2992810    -0.2463060
  C       -2.4210880     1.0928180    -0.4382200
  C       -2.6039190    -1.1175230     0.3972460
  C       -3.2414650     0.0469210    -0.0276130
  H        3.9528590     0.5149220     0.0929350
  H        1.0131890     2.6387050    -0.4244530
  H        0.7544440     2.2203260     1.2670250
  H        2.3864280     2.6245280     0.7070350
  H        3.3561510    -2.1272050    -0.4162310
  H       -2.8304840     2.0415190    -0.7796900
  H       -3.1684390    -1.9801170     0.7461500
  H       -4.3226790     0.1358530    -0.0311710
units angstrom
no_reorient  #important for SAPT in psi4, default
symmetry c1  #important for SAPT in psi4, default
}

set PROPERTIES_ORIGIN ["COM"]
properties('MP2/aug-cc-pvtz', properties = ['dipole'])
--------------------------------------------------------------------------

    Molecular point group: c1
  Charge       = 0
  Multiplicity = 1
  Basis Set: AUG-CC-PVTZ
    Blend: AUG-CC-PVTZ
  Basis Set: (AUG-CC-PVTZ AUX)
    Blend: AUG-CC-PVTZ-JKFIT

    Orbital Energies [Eh]
    ---------------------

    Doubly Occupied:

       1A    -15.641075     2A    -15.582544     3A    -15.578805
       4A    -15.578717     5A    -11.367935     6A    -11.311697
       7A    -11.309625     8A    -11.286002     9A    -11.252753
      10A    -11.251747    11A    -11.234182    12A    -11.215885
      13A     -1.387669    14A     -1.313813    15A     -1.206151
      16A     -1.133913    17A     -1.083506    18A     -1.045560
      19A     -0.958238    20A     -0.909319    21A     -0.897153
      22A     -0.800272    23A     -0.795409    24A     -0.713206
      25A     -0.708199    26A     -0.683078    27A     -0.638844
      28A     -0.634126    29A     -0.607253    30A     -0.591096
      31A     -0.586842    32A     -0.575646    33A     -0.563671
      34A     -0.553533    35A     -0.536287    36A     -0.491745
      37A     -0.451867    38A     -0.430663    39A     -0.420199
      40A     -0.409259    41A     -0.339912    42A     -0.332237

  @DF-RHF Final Energy:  -525.54568874376071

   => Energetics <=

    Nuclear Repulsion Energy =            658.5657923495776913
    One-Electron Energy =               -2019.4036966065264096
    Two-Electron Energy =                 835.2922155131878981
    Total Energy =                       -525.5456887437607065
  Basis Set: (AUG-CC-PVTZ AUX)
    Blend: AUG-CC-PVTZ-RI
    Molecular point group: c1

    Geometry (in Angstrom), charge = 0, multiplicity = 1:

       Center              X                  Y                   Z               Mass
    ------------   -----------------  -----------------  -----------------  -----------------
         N            0.821276497815    -0.262199661922    -0.037320911938    14.003074004430
         N            1.385430997815    -1.480067061922    -0.264576711938    14.003074004430
         N           -1.076605502185     1.024383338078    -0.453065911938    14.003074004430
         N           -1.263452502185    -1.206367661922     0.429786088062    14.003074004430
         C            1.764892497815     0.731933338078     0.134279088062    12.000000000000
         C            2.983791497815     0.090039338078     0.008663088062    12.000000000000
         C           -0.585173502185    -0.142691661922    -0.017790911938    12.000000000000
         C            1.459118497815     2.161529338078     0.438718088062    12.000000000000
         C            2.684567497815    -1.262456661922    -0.239258911938    12.000000000000
         C           -2.415908502185     1.129642338078    -0.431172911938    12.000000000000
         C           -2.598739502185    -1.080698661922     0.404293088062    12.000000000000
         C           -3.236285502185     0.083745338078    -0.020565911938    12.000000000000
         H            3.958038497815     0.551746338078     0.099982088062     1.007825032230
         H            1.018368497815     2.675529338078    -0.417405911938     1.007825032230
         H            0.759623497815     2.257150338078     1.274072088062     1.007825032230
         H            2.391607497815     2.661352338078     0.714082088062     1.007825032230
         H            3.361330497815    -2.090380661922    -0.409183911938     1.007825032230
         H           -2.825304502185     2.078343338078    -0.772642911938     1.007825032230
         H           -3.163259502185    -1.943292661922     0.753197088062     1.007825032230
         H           -4.317499502185     0.172677338078    -0.024123911938     1.007825032230

  Basis Set: AUG-CC-PVTZ
    Blend: AUG-CC-PVTZ
  Basis Set: (AUG-CC-PVTZ AUX)
    Blend: AUG-CC-PVTZ-JKFIT
	 Reference Energy          =    -525.5456887437607065 [Eh]
	 Singles Energy            =      -0.0000000000000000 [Eh]
	 Same-Spin Energy          =      -0.5767996255341095 [Eh]
	 Opposite-Spin Energy      =      -1.7371734154418097 [Eh]
	 Correlation Energy        =      -2.3139730409759194 [Eh]
	 Total Energy              =    -527.8596617847366588 [Eh]

	 ================> DF-SCS-MP2 Energies <==================
	-----------------------------------------------------------
	 SCS Same-Spin Scale       =       0.3333333333333333 [-]
	 SCS Opposite-Spin Scale   =       1.2000000000000000 [-]
	 SCS Same-Spin Energy      =      -0.1922665418447032 [Eh]
	 SCS Opposite-Spin Energy  =      -2.0846080985301714 [Eh]
	 SCS Correlation Energy    =      -2.2768746403748743 [Eh]
	 SCS Total Energy          =    -527.8225633841356057 [Eh]
	-----------------------------------------------------------

  Dipole Moment: [D]
     X:    -2.5880      Y:     2.5176      Z:     0.4303     Total:     3.6361

*** Psi4 exiting successfully. Buy a developer a beer!
