                               Psi4 1.3.2 release

  ==> Input File <==

--------------------------------------------------------------------------
#psi4
#
memory 32 gb

molecule  {
0 1
  N        0.8160970    -0.2990240    -0.0443680
  N        1.3585440    -1.5263750    -0.2734470
  N       -1.0817850     0.9875590    -0.4601130
  N       -1.2686320    -1.2431920     0.4227390
  C        1.7597130     0.6951090     0.1272320
  C        2.9786120     0.0532150     0.0016160
  C       -0.5115232    -0.2264607    -0.0071889
  C        1.4539390     2.1247050     0.4316710
  C        2.6793880    -1.2992810    -0.2463060
  C       -2.4210880     1.0928180    -0.4382200
  C       -2.6039190    -1.1175230     0.3972460
  C       -3.2414650     0.0469210    -0.0276130
  H        3.9528590     0.5149220     0.0929350
  H        1.0131890     2.6387050    -0.4244530
  H        0.7544440     2.2203260     1.2670250
  H        2.3864280     2.6245280     0.7070350
  H        3.3561510    -2.1272050    -0.4162310
  H       -2.8304840     2.0415190    -0.7796900
  H       -3.1684390    -1.9801170     0.7461500
  H       -4.3226790     0.1358530    -0.0311710
units angstrom
no_reorient  #important for SAPT in psi4, default
symmetry c1  #important for SAPT in psi4, default
}

set PROPERTIES_ORIGIN ["COM"]
properties('MP2/aug-cc-pvtz', properties = ['dipole'])
--------------------------------------------------------------------------

    Molecular point group: c1
  Charge       = 0
  Multiplicity = 1
  Basis Set: AUG-CC-PVTZ
    Blend: AUG-CC-PVTZ
  Basis Set: (AUG-CC-PVTZ AUX)
    Blend: AUG-CC-PVTZ-JKFIT

    Orbital Energies [Eh]
    ---------------------

    Doubly Occupied:

       1A    -15.649542     2A    -15.588663     3A    -15.577128
       4A    -15.570501     5A    -11.367764     6A    -11.303527
       7A    -11.303488     8A    -11.296697     9A    -11.264137
      10A    -11.244772    11A    -11.238095    12A    -11.226287
      13A     -1.403897    14A     -1.295363    15A     -1.186510
      16A     -1.146117    17A     -1.091925    18A     -1.043603
      19A     -0.964718    20A     -0.903906    21A     -0.895094
      22A     -0.807374    23A     -0.804894    24A     -0.711371
      25A     -0.702945    26A     -0.684157    27A     -0.645564
      28A     -0.633696    29A     -0.606135    30A     -0.596428
      31A     -0.585229    32A     -0.571963    33A     -0.569532
      34A     -0.550280    35A     -0.541482    36A     -0.485554
      37A     -0.460983    38A     -0.422518    39A     -0.411867
      40A     -0.402202    41A     -0.340659    42A     -0.332572

  @DF-RHF Final Energy:  -525.53076623961181

   => Energetics <=

    Nuclear Repulsion Energy =            658.4247576019178041
    One-Electron Energy =               -2019.0527687263804637
    Two-Electron Energy =                 835.0972448848509657
    Total Energy =                       -525.5307662396118076
  Basis Set: (AUG-CC-PVTZ AUX)
    Blend: AUG-CC-PVTZ-RI
    Molecular point group: c1

    Geometry (in Angstrom), charge = 0, multiplicity = 1:

       Center              X                  Y                   Z               Mass
    ------------   -----------------  -----------------  -----------------  -----------------
         N            0.817265963459    -0.257850847905    -0.038484484739    14.003074004430
         N            1.359712963459    -1.485201847905    -0.267563484739    14.003074004430
         N           -1.080616036541     1.028732152095    -0.454229484739    14.003074004430
         N           -1.267463036541    -1.202018847905     0.428622515261    14.003074004430
         C            1.760881963459     0.736282152095     0.133115515261    12.000000000000
         C            2.979780963459     0.094388152095     0.007499515261    12.000000000000
         C           -0.510354236541    -0.185287547905    -0.001305384739    12.000000000000
         C            1.455107963459     2.165878152095     0.437554515261    12.000000000000
         C            2.680556963459    -1.258107847905    -0.240422484739    12.000000000000
         C           -2.419919036541     1.133991152095    -0.432336484739    12.000000000000
         C           -2.602750036541    -1.076349847905     0.403129515261    12.000000000000
         C           -3.240296036541     0.088094152095    -0.021729484739    12.000000000000
         H            3.954027963459     0.556095152095     0.098818515261     1.007825032230
         H            1.014357963459     2.679878152095    -0.418569484739     1.007825032230
         H            0.755612963459     2.261499152095     1.272908515261     1.007825032230
         H            2.387596963459     2.665701152095     0.712918515261     1.007825032230
         H            3.357319963459    -2.086031847905    -0.410347484739     1.007825032230
         H           -2.829315036541     2.082692152095    -0.773806484739     1.007825032230
         H           -3.167270036541    -1.938943847905     0.752033515261     1.007825032230
         H           -4.321510036541     0.177026152095    -0.025287484739     1.007825032230

  Basis Set: AUG-CC-PVTZ
    Blend: AUG-CC-PVTZ
  Basis Set: (AUG-CC-PVTZ AUX)
    Blend: AUG-CC-PVTZ-JKFIT
	 Reference Energy          =    -525.5307662396118076 [Eh]
	 Singles Energy            =      -0.0000000000000000 [Eh]
	 Same-Spin Energy          =      -0.5781522955794198 [Eh]
	 Opposite-Spin Energy      =      -1.7401363884380323 [Eh]
	 Correlation Energy        =      -2.3182886840174524 [Eh]
	 Total Energy              =    -527.8490549236292964 [Eh]

	 ================> DF-SCS-MP2 Energies <==================
	-----------------------------------------------------------
	 SCS Same-Spin Scale       =       0.3333333333333333 [-]
	 SCS Opposite-Spin Scale   =       1.2000000000000000 [-]
	 SCS Same-Spin Energy      =      -0.1927174318598066 [Eh]
	 SCS Opposite-Spin Energy  =      -2.0881636661256389 [Eh]
	 SCS Correlation Energy    =      -2.2808810979854455 [Eh]
	 SCS Total Energy          =    -527.8116473375972646 [Eh]
	-----------------------------------------------------------

  Dipole Moment: [D]
     X:    -1.6799      Y:     2.4690      Z:     0.4577     Total:     3.0212

*** Psi4 exiting successfully. Buy a developer a beer!
