                               Psi4 1.3.2 release

  ==> Input File <==

--------------------------------------------------------------------------
#psi4
#
memory 32 gb

molecule  {
0 1
  N        0.8160970    -0.2990240    -0.0443680
  N        1.3585440    -1.5263750    -0.2734470
  N       -1.0817850     0.9875590    -0.4601130
  N       -1.2686320    -1.2431920     0.4227390
  C        1.7597130     0.6951090     0.1272320
  C        2.9786120     0.0532150     0.0016160
  C       -0.5903530    -0.1795160    -0.0248380
  C        1.4539390     2.1247050     0.4316710
  C        2.6793880    -1.2992810    -0.2463060
  C       -2.4210880     1.0928180    -0.4382200
  C       -2.8030031    -1.0987864     0.3934451
  C       -3.2414650     0.0469210    -0.0276130
  H        3.9528590     0.5149220     0.0929350
  H        1.0131890     2.6387050    -0.4244530
  H        0.7544440     2.2203260     1.2670250
  H        2.3864280     2.6245280     0.7070350
  H        3.3561510    -2.1272050    -0.4162310
  H       -2.8304840     2.0415190    -0.7796900
  H       -3.1684390    -1.9801170     0.7461500
  H       -4.3226790     0.1358530    -0.0311710
units angstrom
no_reorient  #important for SAPT in psi4, default
symmetry c1  #important for SAPT in psi4, default
}

set PROPERTIES_ORIGIN ["COM"]
properties('MP2/aug-cc-pvtz', properties = ['dipole'])
--------------------------------------------------------------------------

    Molecular point group: c1
  Charge       = 0
  Multiplicity = 1
  Basis Set: AUG-CC-PVTZ
    Blend: AUG-CC-PVTZ
  Basis Set: (AUG-CC-PVTZ AUX)
    Blend: AUG-CC-PVTZ-JKFIT

    Orbital Energies [Eh]
    ---------------------

    Doubly Occupied:

       1A    -15.638163     2A    -15.588045     3A    -15.579462
       4A    -15.578173     5A    -11.358402     6A    -11.323321
       7A    -11.306753     8A    -11.283762     9A    -11.252295
      10A    -11.250954    11A    -11.233675    12A    -11.214410
      13A     -1.380720    14A     -1.299492    15A     -1.170355
      16A     -1.133669    17A     -1.087278    18A     -1.050998
      19A     -0.957076    20A     -0.927554    21A     -0.881826
      22A     -0.800053    23A     -0.794344    24A     -0.719983
      25A     -0.702266    26A     -0.683124    27A     -0.639512
      28A     -0.624816    29A     -0.620620    30A     -0.585424
      31A     -0.584484    32A     -0.570160    33A     -0.562216
      34A     -0.550110    35A     -0.533342    36A     -0.471162
      37A     -0.452243    38A     -0.423477    39A     -0.420428
      40A     -0.405297    41A     -0.340745    42A     -0.329309

  @DF-RHF Final Energy:  -525.49720379059170

   => Energetics <=

    Nuclear Repulsion Energy =            655.4570874921787436
    One-Electron Energy =               -2013.2895867651513981
    Two-Electron Energy =                 832.3352954823809569
    Total Energy =                       -525.4972037905916977
  Basis Set: (AUG-CC-PVTZ AUX)
    Blend: AUG-CC-PVTZ-RI
    Molecular point group: c1

    Geometry (in Angstrom), charge = 0, multiplicity = 1:

       Center              X                  Y                   Z               Mass
    ------------   -----------------  -----------------  -----------------  -----------------
         N            0.838099753626    -0.262774640569    -0.036876487445    14.003074004430
         N            1.380546753626    -1.490125640569    -0.265955487445    14.003074004430
         N           -1.059782246374     1.023808359431    -0.452621487445    14.003074004430
         N           -1.246629246374    -1.206942640569     0.430230512555    14.003074004430
         C            1.781715753626     0.731358359431     0.134723512555    12.000000000000
         C            3.000614753626     0.089464359431     0.009107512555    12.000000000000
         C           -0.568350246374    -0.143266640569    -0.017346487445    12.000000000000
         C            1.475941753626     2.160954359431     0.439162512555    12.000000000000
         C            2.701390753626    -1.263031640569    -0.238814487445    12.000000000000
         C           -2.399085246374     1.129067359431    -0.430728487445    12.000000000000
         C           -2.781000346374    -1.062537040569     0.400936612555    12.000000000000
         C           -3.219462246374     0.083170359431    -0.020121487445    12.000000000000
         H            3.974861753626     0.551171359431     0.100426512555     1.007825032230
         H            1.035191753626     2.674954359431    -0.416961487445     1.007825032230
         H            0.776446753626     2.256575359431     1.274516512555     1.007825032230
         H            2.408430753626     2.660777359431     0.714526512555     1.007825032230
         H            3.378153753626    -2.090955640569    -0.408739487445     1.007825032230
         H           -2.808481246374     2.077768359431    -0.772198487445     1.007825032230
         H           -3.146436246374    -1.943867640569     0.753641512555     1.007825032230
         H           -4.300676246374     0.172102359431    -0.023679487445     1.007825032230

  Basis Set: AUG-CC-PVTZ
    Blend: AUG-CC-PVTZ
  Basis Set: (AUG-CC-PVTZ AUX)
    Blend: AUG-CC-PVTZ-JKFIT
	 Reference Energy          =    -525.4972037905916977 [Eh]
	 Singles Energy            =      -0.0000000000000000 [Eh]
	 Same-Spin Energy          =      -0.5791351716400175 [Eh]
	 Opposite-Spin Energy      =      -1.7453419165274102 [Eh]
	 Correlation Energy        =      -2.3244770881674279 [Eh]
	 Total Energy              =    -527.8216808787591390 [Eh]

	 ================> DF-SCS-MP2 Energies <==================
	-----------------------------------------------------------
	 SCS Same-Spin Scale       =       0.3333333333333333 [-]
	 SCS Opposite-Spin Scale   =       1.2000000000000000 [-]
	 SCS Same-Spin Energy      =      -0.1930450572133391 [Eh]
	 SCS Opposite-Spin Energy  =      -2.0944102998328922 [Eh]
	 SCS Correlation Energy    =      -2.2874553570462313 [Eh]
	 SCS Total Energy          =    -527.7846591476379672 [Eh]
	-----------------------------------------------------------

  Dipole Moment: [D]
     X:    -2.8641      Y:     2.6278      Z:     0.4114     Total:     3.9087

*** Psi4 exiting successfully. Buy a developer a beer!
