                               Psi4 1.3.2 release

  ==> Input File <==

--------------------------------------------------------------------------
#psi4
#
memory 32 gb

molecule  {
0 1
  N        0.8160970    -0.2990240    -0.0443680
  N        1.3585440    -1.5263750    -0.2734470
  N       -1.0817850     0.9875590    -0.4601130
  N       -1.2686320    -1.2431920     0.4227390
  C        1.7419627     0.7111900     0.1299839
  C        2.9786120     0.0532150     0.0016160
  C       -0.5903530    -0.1795160    -0.0248380
  C        1.4539390     2.1247050     0.4316710
  C        2.6793880    -1.2992810    -0.2463060
  C       -2.4210880     1.0928180    -0.4382200
  C       -2.6039190    -1.1175230     0.3972460
  C       -3.2414650     0.0469210    -0.0276130
  H        3.9528590     0.5149220     0.0929350
  H        1.0131890     2.6387050    -0.4244530
  H        0.7544440     2.2203260     1.2670250
  H        2.3864280     2.6245280     0.7070350
  H        3.3561510    -2.1272050    -0.4162310
  H       -2.8304840     2.0415190    -0.7796900
  H       -3.1684390    -1.9801170     0.7461500
  H       -4.3226790     0.1358530    -0.0311710
units angstrom
no_reorient  #important for SAPT in psi4, default
symmetry c1  #important for SAPT in psi4, default
}

set PROPERTIES_ORIGIN ["COM"]
properties('MP2/aug-cc-pvtz', properties = ['dipole'])
--------------------------------------------------------------------------

    Molecular point group: c1
  Charge       = 0
  Multiplicity = 1
  Basis Set: AUG-CC-PVTZ
    Blend: AUG-CC-PVTZ
  Basis Set: (AUG-CC-PVTZ AUX)
    Blend: AUG-CC-PVTZ-JKFIT

    Orbital Energies [Eh]
    ---------------------

    Doubly Occupied:

       1A    -15.643670     2A    -15.582775     3A    -15.580940
       4A    -15.578770     5A    -11.367159     6A    -11.311782
       7A    -11.309625     8A    -11.289049     9A    -11.254370
      10A    -11.252925    11A    -11.234501    12A    -11.218836
      13A     -1.385983    14A     -1.312293    15A     -1.206285
      16A     -1.130056    17A     -1.084557    18A     -1.044097
      19A     -0.960512    20A     -0.909168    21A     -0.896448
      22A     -0.799119    23A     -0.795146    24A     -0.712749
      25A     -0.707499    26A     -0.682544    27A     -0.638565
      28A     -0.632884    29A     -0.607503    30A     -0.588414
      31A     -0.587547    32A     -0.576135    33A     -0.568987
      34A     -0.552989    35A     -0.533989    36A     -0.491362
      37A     -0.455017    38A     -0.430724    39A     -0.420430
      40A     -0.407322    41A     -0.338469    42A     -0.328328

  @DF-RHF Final Energy:  -525.54162155539473

   => Energetics <=

    Nuclear Repulsion Energy =            658.2294200204205481
    One-Electron Energy =               -2018.7230337188520934
    Two-Electron Energy =                 834.9519921430368186
    Total Energy =                       -525.5416215553947268
  Basis Set: (AUG-CC-PVTZ AUX)
    Blend: AUG-CC-PVTZ-RI
    Molecular point group: c1

    Geometry (in Angstrom), charge = 0, multiplicity = 1:

       Center              X                  Y                   Z               Mass
    ------------   -----------------  -----------------  -----------------  -----------------
         N            0.824506081847    -0.262575563758    -0.037367717500    14.003074004430
         N            1.366953081847    -1.489926563758    -0.266446717500    14.003074004430
         N           -1.073375918153     1.024007436242    -0.453112717500    14.003074004430
         N           -1.260222918153    -1.206743563758     0.429739282500    14.003074004430
         C            1.750371781847     0.747638436242     0.136984182500    12.000000000000
         C            2.987021081847     0.089663436242     0.008616282500    12.000000000000
         C           -0.581943918153    -0.143067563758    -0.017837717500    12.000000000000
         C            1.462348081847     2.161153436242     0.438671282500    12.000000000000
         C            2.687797081847    -1.262832563758    -0.239305717500    12.000000000000
         C           -2.412678918153     1.129266436242    -0.431219717500    12.000000000000
         C           -2.595509918153    -1.081074563758     0.404246282500    12.000000000000
         C           -3.233055918153     0.083369436242    -0.020612717500    12.000000000000
         H            3.961268081847     0.551370436242     0.099935282500     1.007825032230
         H            1.021598081847     2.675153436242    -0.417452717500     1.007825032230
         H            0.762853081847     2.256774436242     1.274025282500     1.007825032230
         H            2.394837081847     2.660976436242     0.714035282500     1.007825032230
         H            3.364560081847    -2.090756563758    -0.409230717500     1.007825032230
         H           -2.822074918153     2.077967436242    -0.772689717500     1.007825032230
         H           -3.160029918153    -1.943668563758     0.753150282500     1.007825032230
         H           -4.314269918153     0.172301436242    -0.024170717500     1.007825032230

  Basis Set: AUG-CC-PVTZ
    Blend: AUG-CC-PVTZ
  Basis Set: (AUG-CC-PVTZ AUX)
    Blend: AUG-CC-PVTZ-JKFIT
	 Reference Energy          =    -525.5416215553947268 [Eh]
	 Singles Energy            =      -0.0000000000000000 [Eh]
	 Same-Spin Energy          =      -0.5780787692724010 [Eh]
	 Opposite-Spin Energy      =      -1.7392618813416254 [Eh]
	 Correlation Energy        =      -2.3173406506140264 [Eh]
	 Total Energy              =    -527.8589622060087549 [Eh]

	 ================> DF-SCS-MP2 Energies <==================
	-----------------------------------------------------------
	 SCS Same-Spin Scale       =       0.3333333333333333 [-]
	 SCS Opposite-Spin Scale   =       1.2000000000000000 [-]
	 SCS Same-Spin Energy      =      -0.1926929230908003 [Eh]
	 SCS Opposite-Spin Energy  =      -2.0871142576099504 [Eh]
	 SCS Correlation Energy    =      -2.2798071807007507 [Eh]
	 SCS Total Energy          =    -527.8214287360955268 [Eh]
	-----------------------------------------------------------

  Dipole Moment: [D]
     X:    -2.6175      Y:     2.5686      Z:     0.4444     Total:     3.6941

*** Psi4 exiting successfully. Buy a developer a beer!
