                               Psi4 1.3.2 release

  ==> Input File <==

--------------------------------------------------------------------------
#psi4
#
memory 32 gb

molecule  {
0 1
  N        0.8160970    -0.2990240    -0.0443680
  N        1.3585440    -1.5263750    -0.2734470
  N       -1.0817850     0.9875590    -0.4601130
  N       -1.2686320    -1.2431920     0.4227390
  C        1.7597130     0.6951090     0.1272320
  C        2.9786120     0.0532150     0.0016160
  C       -0.5903530    -0.1795160    -0.0248380
  C        1.4539390     2.1247050     0.4316710
  C        2.6793880    -1.2992810    -0.2463060
  C       -2.4210880     1.0928180    -0.4382200
  C       -2.6039190    -1.1175230     0.3972460
  C       -3.2414650     0.0469210    -0.0276130
  H        3.9528590     0.5149220     0.0929350
  H        1.0131890     2.6387050    -0.4244530
  H        0.7544440     2.2203260     1.2670250
  H        2.3864280     2.6245280     0.7070350
  H        3.4811595    -2.2801353    -0.4476188
  H       -2.8304840     2.0415190    -0.7796900
  H       -3.1684390    -1.9801170     0.7461500
  H       -4.3226790     0.1358530    -0.0311710
units angstrom
no_reorient  #important for SAPT in psi4, default
symmetry c1  #important for SAPT in psi4, default
}

set PROPERTIES_ORIGIN ["COM"]
properties('MP2/aug-cc-pvtz', properties = ['dipole'])
--------------------------------------------------------------------------

    Molecular point group: c1
  Charge       = 0
  Multiplicity = 1
  Basis Set: AUG-CC-PVTZ
    Blend: AUG-CC-PVTZ
  Basis Set: (AUG-CC-PVTZ AUX)
    Blend: AUG-CC-PVTZ-JKFIT

    Orbital Energies [Eh]
    ---------------------

    Doubly Occupied:

       1A    -15.643438     2A    -15.583001     3A    -15.582985
       4A    -15.579153     5A    -11.368108     6A    -11.311979
       7A    -11.309903     8A    -11.288237     9A    -11.275223
      10A    -11.253127    11A    -11.235570    12A    -11.219573
      13A     -1.387605    14A     -1.313277    15A     -1.206538
      16A     -1.129046    17A     -1.085367    18A     -1.044479
      19A     -0.959986    20A     -0.909449    21A     -0.893661
      22A     -0.796361    23A     -0.785136    24A     -0.712526
      25A     -0.708027    26A     -0.679968    27A     -0.638341
      28A     -0.630044    29A     -0.604846    30A     -0.589328
      31A     -0.582389    32A     -0.565976    33A     -0.563921
      34A     -0.553664    35A     -0.521386    36A     -0.492226
      37A     -0.453809    38A     -0.430961    39A     -0.420610
      40A     -0.408553    41A     -0.338927    42A     -0.333686

  @DF-RHF Final Energy:  -525.52085839255949

   => Energetics <=

    Nuclear Repulsion Energy =            657.2975418741698377
    One-Electron Energy =               -2016.8560196224111678
    Two-Electron Energy =                 834.0376193556818407
    Total Energy =                       -525.5208583925594894
  Basis Set: (AUG-CC-PVTZ AUX)
    Blend: AUG-CC-PVTZ-RI
    Molecular point group: c1

    Geometry (in Angstrom), charge = 0, multiplicity = 1:

       Center              X                  Y                   Z               Mass
    ------------   -----------------  -----------------  -----------------  -----------------
         N            0.822388383798    -0.260407210114    -0.036963805256    14.003074004430
         N            1.364835383798    -1.487758210114    -0.266042805256    14.003074004430
         N           -1.075493616202     1.026175789886    -0.452708805256    14.003074004430
         N           -1.262340616202    -1.204575210114     0.430143194744    14.003074004430
         C            1.766004383798     0.733725789886     0.134636194744    12.000000000000
         C            2.984903383798     0.091831789886     0.009020194744    12.000000000000
         C           -0.584061616202    -0.140899210114    -0.017433805256    12.000000000000
         C            1.460230383798     2.163321789886     0.439075194744    12.000000000000
         C            2.685679383798    -1.260664210114    -0.238901805256    12.000000000000
         C           -2.414796616202     1.131434789886    -0.430815805256    12.000000000000
         C           -2.597627616202    -1.078906210114     0.404650194744    12.000000000000
         C           -3.235173616202     0.085537789886    -0.020208805256    12.000000000000
         H            3.959150383798     0.553538789886     0.100339194744     1.007825032230
         H            1.019480383798     2.677321789886    -0.417048805256     1.007825032230
         H            0.760735383798     2.258942789886     1.274429194744     1.007825032230
         H            2.392719383798     2.663144789886     0.714439194744     1.007825032230
         H            3.487450883798    -2.241518510114    -0.440214605256     1.007825032230
         H           -2.824192616202     2.080135789886    -0.772285805256     1.007825032230
         H           -3.162147616202    -1.941500210114     0.753554194744     1.007825032230
         H           -4.316387616202     0.174469789886    -0.023766805256     1.007825032230

  Basis Set: AUG-CC-PVTZ
    Blend: AUG-CC-PVTZ
  Basis Set: (AUG-CC-PVTZ AUX)
    Blend: AUG-CC-PVTZ-JKFIT
	 Reference Energy          =    -525.5208583925594894 [Eh]
	 Singles Energy            =      -0.0000000000000000 [Eh]
	 Same-Spin Energy          =      -0.5780200814946760 [Eh]
	 Opposite-Spin Energy      =      -1.7406875163710482 [Eh]
	 Correlation Energy        =      -2.3187075978657243 [Eh]
	 Total Energy              =    -527.8395659904251715 [Eh]

	 ================> DF-SCS-MP2 Energies <==================
	-----------------------------------------------------------
	 SCS Same-Spin Scale       =       0.3333333333333333 [-]
	 SCS Opposite-Spin Scale   =       1.2000000000000000 [-]
	 SCS Same-Spin Energy      =      -0.1926733604982253 [Eh]
	 SCS Opposite-Spin Energy  =      -2.0888250196452578 [Eh]
	 SCS Correlation Energy    =      -2.2814983801434829 [Eh]
	 SCS Total Energy          =    -527.8023567727029786 [Eh]
	-----------------------------------------------------------

  Dipole Moment: [D]
     X:    -2.6361      Y:     2.5988      Z:     0.4492     Total:     3.7289

*** Psi4 exiting successfully. Buy a developer a beer!
