                               Psi4 1.3.2 release

  ==> Input File <==

--------------------------------------------------------------------------
#psi4
#
memory 32 gb

molecule  {
0 1
  N        0.8160970    -0.2990240    -0.0443680
  N        1.3585440    -1.5263750    -0.2734470
  N       -1.0794022     1.0316265    -0.4759826
  N       -1.2686320    -1.2431920     0.4227390
  C        1.7597130     0.6951090     0.1272320
  C        2.9786120     0.0532150     0.0016160
  C       -0.5903530    -0.1795160    -0.0248380
  C        1.4539390     2.1247050     0.4316710
  C        2.6793880    -1.2992810    -0.2463060
  C       -2.4210880     1.0928180    -0.4382200
  C       -2.6039190    -1.1175230     0.3972460
  C       -3.2414650     0.0469210    -0.0276130
  H        3.9528590     0.5149220     0.0929350
  H        1.0131890     2.6387050    -0.4244530
  H        0.7544440     2.2203260     1.2670250
  H        2.3864280     2.6245280     0.7070350
  H        3.3561510    -2.1272050    -0.4162310
  H       -2.8304840     2.0415190    -0.7796900
  H       -3.1684390    -1.9801170     0.7461500
  H       -4.3226790     0.1358530    -0.0311710
units angstrom
no_reorient  #important for SAPT in psi4, default
symmetry c1  #important for SAPT in psi4, default
}

set PROPERTIES_ORIGIN ["COM"]
properties('MP2/aug-cc-pvtz', properties = ['dipole'])
--------------------------------------------------------------------------

    Molecular point group: c1
  Charge       = 0
  Multiplicity = 1
  Basis Set: AUG-CC-PVTZ
    Blend: AUG-CC-PVTZ
  Basis Set: (AUG-CC-PVTZ AUX)
    Blend: AUG-CC-PVTZ-JKFIT

    Orbital Energies [Eh]
    ---------------------

    Doubly Occupied:

       1A    -15.643827     2A    -15.588359     3A    -15.582296
       4A    -15.580326     5A    -11.373042     6A    -11.310393
       7A    -11.310372     8A    -11.287674     9A    -11.255642
      10A    -11.251934    11A    -11.234741    12A    -11.218204
      13A     -1.385888    14A     -1.307373    15A     -1.205147
      16A     -1.129313    17A     -1.084430    18A     -1.043866
      19A     -0.959247    20A     -0.905952    21A     -0.895911
      22A     -0.799414    23A     -0.795087    24A     -0.709178
      25A     -0.707576    26A     -0.682238    27A     -0.637409
      28A     -0.633370    29A     -0.606401    30A     -0.588415
      31A     -0.583968    32A     -0.573187    33A     -0.564786
      34A     -0.552462    35A     -0.536767    36A     -0.494569
      37A     -0.456081    38A     -0.431875    39A     -0.422412
      40A     -0.406855    41A     -0.337220    42A     -0.333166

  @DF-RHF Final Energy:  -525.53927362605225

   => Energetics <=

    Nuclear Repulsion Energy =            657.1743897062202677
    One-Electron Energy =               -2016.6145856791533788
    Two-Electron Energy =                 833.9009223468807477
    Total Energy =                       -525.5392736260522497
  Basis Set: (AUG-CC-PVTZ AUX)
    Blend: AUG-CC-PVTZ-RI
    Molecular point group: c1

    Geometry (in Angstrom), charge = 0, multiplicity = 1:

       Center              X                  Y                   Z               Mass
    ------------   -----------------  -----------------  -----------------  -----------------
         N            0.822966989020    -0.265225001449    -0.035773176512    14.003074004430
         N            1.365413989020    -1.492576001449    -0.264852176512    14.003074004430
         N           -1.072532210980     1.065425498551    -0.467387776512    14.003074004430
         N           -1.261762010980    -1.209393001449     0.431333823488    14.003074004430
         C            1.766582989020     0.728907998551     0.135826823488    12.000000000000
         C            2.985481989020     0.087013998551     0.010210823488    12.000000000000
         C           -0.583483010980    -0.145717001449    -0.016243176512    12.000000000000
         C            1.460808989020     2.158503998551     0.440265823488    12.000000000000
         C            2.686257989020    -1.265482001449    -0.237711176512    12.000000000000
         C           -2.414218010980     1.126616998551    -0.429625176512    12.000000000000
         C           -2.597049010980    -1.083724001449     0.405840823488    12.000000000000
         C           -3.234595010980     0.080719998551    -0.019018176512    12.000000000000
         H            3.959728989020     0.548720998551     0.101529823488     1.007825032230
         H            1.020058989020     2.672503998551    -0.415858176512     1.007825032230
         H            0.761313989020     2.254124998551     1.275619823488     1.007825032230
         H            2.393297989020     2.658326998551     0.715629823488     1.007825032230
         H            3.363020989020    -2.093406001449    -0.407636176512     1.007825032230
         H           -2.823614010980     2.075317998551    -0.771095176512     1.007825032230
         H           -3.161569010980    -1.946318001449     0.754744823488     1.007825032230
         H           -4.315809010980     0.169651998551    -0.022576176512     1.007825032230

  Basis Set: AUG-CC-PVTZ
    Blend: AUG-CC-PVTZ
  Basis Set: (AUG-CC-PVTZ AUX)
    Blend: AUG-CC-PVTZ-JKFIT
	 Reference Energy          =    -525.5392736260522497 [Eh]
	 Singles Energy            =      -0.0000000000000000 [Eh]
	 Same-Spin Energy          =      -0.5779165633149450 [Eh]
	 Opposite-Spin Energy      =      -1.7400319761423946 [Eh]
	 Correlation Energy        =      -2.3179485394573396 [Eh]
	 Total Energy              =    -527.8572221655095973 [Eh]

	 ================> DF-SCS-MP2 Energies <==================
	-----------------------------------------------------------
	 SCS Same-Spin Scale       =       0.3333333333333333 [-]
	 SCS Opposite-Spin Scale   =       1.2000000000000000 [-]
	 SCS Same-Spin Energy      =      -0.1926388544383150 [Eh]
	 SCS Opposite-Spin Energy  =      -2.0880383713708732 [Eh]
	 SCS Correlation Energy    =      -2.2806772258091881 [Eh]
	 SCS Total Energy          =    -527.8199508518614493 [Eh]
	-----------------------------------------------------------

  Dipole Moment: [D]
     X:    -2.5089      Y:     2.4747      Z:     0.4666     Total:     3.5548

*** Psi4 exiting successfully. Buy a developer a beer!
