                               Psi4 1.3.2 release

  ==> Input File <==

--------------------------------------------------------------------------
#psi4
#
memory 32 gb

molecule  {
0 1
  N        0.8160970    -0.2990240    -0.0443680
  N        1.3585440    -1.5263750    -0.2734470
  N       -1.0817850     0.9875590    -0.4601130
  N       -1.2686320    -1.2431920     0.4227390
  C        1.7597130     0.6951090     0.1272320
  C        2.9786120     0.0532150     0.0016160
  C       -0.5903530    -0.1795160    -0.0248380
  C        1.4539390     2.1247050     0.4316710
  C        2.6793880    -1.2992810    -0.2463060
  C       -2.4210880     1.0928180    -0.4382200
  C       -2.7034611    -1.1081547     0.3953456
  C       -3.2414650     0.0469210    -0.0276130
  H        3.9528590     0.5149220     0.0929350
  H        1.0131890     2.6387050    -0.4244530
  H        0.7544440     2.2203260     1.2670250
  H        2.3864280     2.6245280     0.7070350
  H        3.3561510    -2.1272050    -0.4162310
  H       -2.8304840     2.0415190    -0.7796900
  H       -3.1684390    -1.9801170     0.7461500
  H       -4.3226790     0.1358530    -0.0311710
units angstrom
no_reorient  #important for SAPT in psi4, default
symmetry c1  #important for SAPT in psi4, default
}

set PROPERTIES_ORIGIN ["COM"]
properties('MP2/aug-cc-pvtz', properties = ['dipole'])
--------------------------------------------------------------------------

    Molecular point group: c1
  Charge       = 0
  Multiplicity = 1
  Basis Set: AUG-CC-PVTZ
    Blend: AUG-CC-PVTZ
  Basis Set: (AUG-CC-PVTZ AUX)
    Blend: AUG-CC-PVTZ-JKFIT

    Orbital Energies [Eh]
    ---------------------

    Doubly Occupied:

       1A    -15.639971     2A    -15.584955     3A    -15.579972
       4A    -15.579686     5A    -11.362718     6A    -11.317891
       7A    -11.308400     8A    -11.285148     9A    -11.252597
      10A    -11.252282    11A    -11.234108    12A    -11.215739
      13A     -1.383099    14A     -1.303961    15A     -1.186253
      16A     -1.130826    17A     -1.085262    18A     -1.049350
      19A     -0.957823    20A     -0.918719    21A     -0.888187
      22A     -0.798666    23A     -0.795443    24A     -0.714717
      25A     -0.703383    26A     -0.683096    27A     -0.637878
      28A     -0.628982    29A     -0.616272    30A     -0.588547
      31A     -0.585992    32A     -0.572030    33A     -0.563060
      34A     -0.551045    35A     -0.534560    36A     -0.483144
      37A     -0.453638    38A     -0.422961    39A     -0.417513
      40A     -0.412678    41A     -0.340182    42A     -0.330728

  @DF-RHF Final Energy:  -525.52893098341974

   => Energetics <=

    Nuclear Repulsion Energy =            656.7990644920312207
    One-Electron Energy =               -2015.9530694999350544
    Two-Electron Energy =                 833.6250740244840927
    Total Energy =                       -525.5289309834197411
  Basis Set: (AUG-CC-PVTZ AUX)
    Blend: AUG-CC-PVTZ-RI
    Molecular point group: c1

    Geometry (in Angstrom), charge = 0, multiplicity = 1:

       Center              X                  Y                   Z               Mass
    ------------   -----------------  -----------------  -----------------  -----------------
         N            0.830637596675    -0.262072346814    -0.037018958255    14.003074004430
         N            1.373084596675    -1.489423346814    -0.266097958255    14.003074004430
         N           -1.067244403325     1.024510653186    -0.452763958255    14.003074004430
         N           -1.254091403325    -1.206240346814     0.430088041745    14.003074004430
         C            1.774253596675     0.732060653186     0.134581041745    12.000000000000
         C            2.993152596675     0.090166653186     0.008965041745    12.000000000000
         C           -0.575812403325    -0.142564346814    -0.017488958255    12.000000000000
         C            1.468479596675     2.161656653186     0.439020041745    12.000000000000
         C            2.693928596675    -1.262329346814    -0.238956958255    12.000000000000
         C           -2.406547403325     1.129769653186    -0.430870958255    12.000000000000
         C           -2.688920503325    -1.071203046814     0.402694641745    12.000000000000
         C           -3.226924403325     0.083872653186    -0.020263958255    12.000000000000
         H            3.967399596675     0.551873653186     0.100284041745     1.007825032230
         H            1.027729596675     2.675656653186    -0.417103958255     1.007825032230
         H            0.768984596675     2.257277653186     1.274374041745     1.007825032230
         H            2.400968596675     2.661479653186     0.714384041745     1.007825032230
         H            3.370691596675    -2.090253346814    -0.408881958255     1.007825032230
         H           -2.815943403325     2.078470653186    -0.772340958255     1.007825032230
         H           -3.153898403325    -1.943165346814     0.753499041745     1.007825032230
         H           -4.308138403325     0.172804653186    -0.023821958255     1.007825032230

  Basis Set: AUG-CC-PVTZ
    Blend: AUG-CC-PVTZ
  Basis Set: (AUG-CC-PVTZ AUX)
    Blend: AUG-CC-PVTZ-JKFIT
	 Reference Energy          =    -525.5289309834197411 [Eh]
	 Singles Energy            =      -0.0000000000000000 [Eh]
	 Same-Spin Energy          =      -0.5783475576577963 [Eh]
	 Opposite-Spin Energy      =      -1.7414616570248951 [Eh]
	 Correlation Energy        =      -2.3198092146826914 [Eh]
	 Total Energy              =    -527.8487401981024050 [Eh]

	 ================> DF-SCS-MP2 Energies <==================
	-----------------------------------------------------------
	 SCS Same-Spin Scale       =       0.3333333333333333 [-]
	 SCS Opposite-Spin Scale   =       1.2000000000000000 [-]
	 SCS Same-Spin Energy      =      -0.1927825192192654 [Eh]
	 SCS Opposite-Spin Energy  =      -2.0897539884298739 [Eh]
	 SCS Correlation Energy    =      -2.2825365076491395 [Eh]
	 SCS Total Energy          =    -527.8114674910689246 [Eh]
	-----------------------------------------------------------

  Dipole Moment: [D]
     X:    -2.7362      Y:     2.5959      Z:     0.4240     Total:     3.7955

*** Psi4 exiting successfully. Buy a developer a beer!
