                               Psi4 1.3.2 release

  ==> Input File <==

--------------------------------------------------------------------------
#psi4
#
memory 32 gb

molecule  {
0 1
  N        0.8160970    -0.2990240    -0.0443680
  N        1.3585440    -1.5263750    -0.2734470
  N       -1.0817850     0.9875590    -0.4601130
  N       -1.2686320    -1.2431920     0.4227390
  C        1.7597130     0.6951090     0.1272320
  C        2.9786120     0.0532150     0.0016160
  C       -0.5903530    -0.1795160    -0.0248380
  C        1.4539390     2.1247050     0.4316710
  C        2.6793880    -1.2992810    -0.2463060
  C       -2.4210880     1.0928180    -0.4382200
  C       -2.6039190    -1.1175230     0.3972460
  C       -3.2017709     0.0203676    -0.0188138
  H        3.9528590     0.5149220     0.0929350
  H        1.0131890     2.6387050    -0.4244530
  H        0.7544440     2.2203260     1.2670250
  H        2.3864280     2.6245280     0.7070350
  H        3.3561510    -2.1272050    -0.4162310
  H       -2.8304840     2.0415190    -0.7796900
  H       -3.1684390    -1.9801170     0.7461500
  H       -4.3226790     0.1358530    -0.0311710
units angstrom
no_reorient  #important for SAPT in psi4, default
symmetry c1  #important for SAPT in psi4, default
}

set PROPERTIES_ORIGIN ["COM"]
properties('MP2/aug-cc-pvtz', properties = ['dipole'])
--------------------------------------------------------------------------

    Molecular point group: c1
  Charge       = 0
  Multiplicity = 1
  Basis Set: AUG-CC-PVTZ
    Blend: AUG-CC-PVTZ
  Basis Set: (AUG-CC-PVTZ AUX)
    Blend: AUG-CC-PVTZ-JKFIT

    Orbital Energies [Eh]
    ---------------------

    Doubly Occupied:

       1A    -15.641531     2A    -15.583415     3A    -15.581009
       4A    -15.577132     5A    -11.366085     6A    -11.313363
       7A    -11.302736     8A    -11.286316     9A    -11.254012
      10A    -11.251791    11A    -11.234677    12A    -11.216901
      13A     -1.385994    14A     -1.314170    15A     -1.206766
      16A     -1.130784    17A     -1.084800    18A     -1.046082
      19A     -0.958628    20A     -0.913149    21A     -0.894566
      22A     -0.800498    23A     -0.795186    24A     -0.715727
      25A     -0.707621    26A     -0.678864    27A     -0.638547
      28A     -0.625998    29A     -0.612544    30A     -0.589354
      31A     -0.587406    32A     -0.576280    33A     -0.563491
      34A     -0.553225    35A     -0.535327    36A     -0.486927
      37A     -0.454721    38A     -0.431110    39A     -0.421304
      40A     -0.409770    41A     -0.338482    42A     -0.331973

  @DF-RHF Final Energy:  -525.54034562869560

   => Energetics <=

    Nuclear Repulsion Energy =            659.2036440840630576
    One-Electron Energy =               -2020.6914525160723315
    Two-Electron Energy =                 835.9474628033137833
    Total Energy =                       -525.5403456286956043
  Basis Set: (AUG-CC-PVTZ AUX)
    Blend: AUG-CC-PVTZ-RI
    Molecular point group: c1

    Geometry (in Angstrom), charge = 0, multiplicity = 1:

       Center              X                  Y                   Z               Mass
    ------------   -----------------  -----------------  -----------------  -----------------
         N            0.820199767640    -0.259379479850    -0.037821052793    14.003074004430
         N            1.362646767640    -1.486730479850    -0.266900052793    14.003074004430
         N           -1.077682232360     1.027203520150    -0.453566052793    14.003074004430
         N           -1.264529232360    -1.203547479850     0.429285947207    14.003074004430
         C            1.763815767640     0.734753520150     0.133778947207    12.000000000000
         C            2.982714767640     0.092859520150     0.008162947207    12.000000000000
         C           -0.586250232360    -0.139871479850    -0.018291052793    12.000000000000
         C            1.458041767640     2.164349520150     0.438217947207    12.000000000000
         C            2.683490767640    -1.259636479850    -0.239759052793    12.000000000000
         C           -2.416985232360     1.132462520150    -0.431673052793    12.000000000000
         C           -2.599816232360    -1.077878479850     0.403792947207    12.000000000000
         C           -3.197668132360     0.060012120150    -0.012266852793    12.000000000000
         H            3.956961767640     0.554566520150     0.099481947207     1.007825032230
         H            1.017291767640     2.678349520150    -0.417906052793     1.007825032230
         H            0.758546767640     2.259970520150     1.273571947207     1.007825032230
         H            2.390530767640     2.664172520150     0.713581947207     1.007825032230
         H            3.360253767640    -2.087560479850    -0.409684052793     1.007825032230
         H           -2.826381232360     2.081163520150    -0.773143052793     1.007825032230
         H           -3.164336232360    -1.940472479850     0.752696947207     1.007825032230
         H           -4.318576232360     0.175497520150    -0.024624052793     1.007825032230

  Basis Set: AUG-CC-PVTZ
    Blend: AUG-CC-PVTZ
  Basis Set: (AUG-CC-PVTZ AUX)
    Blend: AUG-CC-PVTZ-JKFIT
	 Reference Energy          =    -525.5403456286956043 [Eh]
	 Singles Energy            =      -0.0000000000000000 [Eh]
	 Same-Spin Energy          =      -0.5778539651518411 [Eh]
	 Opposite-Spin Energy      =      -1.7388733902779161 [Eh]
	 Correlation Energy        =      -2.3167273554297569 [Eh]
	 Total Energy              =    -527.8570729841253524 [Eh]

	 ================> DF-SCS-MP2 Energies <==================
	-----------------------------------------------------------
	 SCS Same-Spin Scale       =       0.3333333333333333 [-]
	 SCS Opposite-Spin Scale   =       1.2000000000000000 [-]
	 SCS Same-Spin Energy      =      -0.1926179883839470 [Eh]
	 SCS Opposite-Spin Energy  =      -2.0866480683334991 [Eh]
	 SCS Correlation Energy    =      -2.2792660567174461 [Eh]
	 SCS Total Energy          =    -527.8196116854130651 [Eh]
	-----------------------------------------------------------

  Dipole Moment: [D]
     X:    -2.5847      Y:     2.5974      Z:     0.4230     Total:     3.6887

*** Psi4 exiting successfully. Buy a developer a beer!
