                               Psi4 1.3.2 release

  ==> Input File <==

--------------------------------------------------------------------------
#psi4
#
memory 32 gb

molecule  {
0 1
  N        0.8160970    -0.2990240    -0.0443680
  N        1.3585440    -1.5263750    -0.2734470
  N       -1.0817850     0.9875590    -0.4601130
  N       -1.2686320    -1.2431920     0.4227390
  C        1.7597130     0.6951090     0.1272320
  C        3.0402883     0.1811531     0.0297730
  C       -0.5903530    -0.1795160    -0.0248380
  C        1.4539390     2.1247050     0.4316710
  C        2.6793880    -1.2992810    -0.2463060
  C       -2.4210880     1.0928180    -0.4382200
  C       -2.6039190    -1.1175230     0.3972460
  C       -3.2414650     0.0469210    -0.0276130
  H        3.9528590     0.5149220     0.0929350
  H        1.0131890     2.6387050    -0.4244530
  H        0.7544440     2.2203260     1.2670250
  H        2.3864280     2.6245280     0.7070350
  H        3.3561510    -2.1272050    -0.4162310
  H       -2.8304840     2.0415190    -0.7796900
  H       -3.1684390    -1.9801170     0.7461500
  H       -4.3226790     0.1358530    -0.0311710
units angstrom
no_reorient  #important for SAPT in psi4, default
symmetry c1  #important for SAPT in psi4, default
}

set PROPERTIES_ORIGIN ["COM"]
properties('MP2/aug-cc-pvtz', properties = ['dipole'])
--------------------------------------------------------------------------

    Molecular point group: c1
  Charge       = 0
  Multiplicity = 1
  Basis Set: AUG-CC-PVTZ
    Blend: AUG-CC-PVTZ
  Basis Set: (AUG-CC-PVTZ AUX)
    Blend: AUG-CC-PVTZ-JKFIT

    Orbital Energies [Eh]
    ---------------------

    Doubly Occupied:

       1A    -15.640402     2A    -15.589227     3A    -15.581572
       4A    -15.578385     5A    -11.368012     6A    -11.311192
       7A    -11.309429     8A    -11.291792     9A    -11.269260
      10A    -11.251994    11A    -11.230707    12A    -11.223179
      13A     -1.384400    14A     -1.311029    15A     -1.205741
      16A     -1.125952    17A     -1.085658    18A     -1.040435
      19A     -0.952099    20A     -0.909396    21A     -0.894286
      22A     -0.812596    23A     -0.794399    24A     -0.712607
      25A     -0.706098    26A     -0.676087    27A     -0.647760
      28A     -0.636043    29A     -0.619588    30A     -0.597069
      31A     -0.585974    32A     -0.576096    33A     -0.563356
      34A     -0.550278    35A     -0.516169    36A     -0.491563
      37A     -0.451538    38A     -0.430413    39A     -0.419786
      40A     -0.403171    41A     -0.342347    42A     -0.329736

  @DF-RHF Final Energy:  -525.51922788200238

   => Energetics <=

    Nuclear Repulsion Energy =            656.2658678276712862
    One-Electron Energy =               -2014.7365515129374671
    Two-Electron Energy =                 832.9514558032636842
    Total Energy =                       -525.5192278820023830
  Basis Set: (AUG-CC-PVTZ AUX)
    Blend: AUG-CC-PVTZ-RI
    Molecular point group: c1

    Geometry (in Angstrom), charge = 0, multiplicity = 1:

       Center              X                  Y                   Z               Mass
    ------------   -----------------  -----------------  -----------------  -----------------
         N            0.818551874022    -0.270960921057    -0.039272208504    14.003074004430
         N            1.360998874022    -1.498311921057    -0.268351208504    14.003074004430
         N           -1.079330125978     1.015622078943    -0.455017208504    14.003074004430
         N           -1.266177125978    -1.215128921057     0.427834791496    14.003074004430
         C            1.762167874022     0.723172078943     0.132327791496    12.000000000000
         C            3.042743174022     0.209216178943     0.034868791496    12.000000000000
         C           -0.587898125978    -0.151452921057    -0.019742208504    12.000000000000
         C            1.456393874022     2.152768078943     0.436766791496    12.000000000000
         C            2.681842874022    -1.271217921057    -0.241210208504    12.000000000000
         C           -2.418633125978     1.120881078943    -0.433124208504    12.000000000000
         C           -2.601464125978    -1.089459921057     0.402341791496    12.000000000000
         C           -3.239010125978     0.074984078943    -0.022517208504    12.000000000000
         H            3.955313874022     0.542985078943     0.098030791496     1.007825032230
         H            1.015643874022     2.666768078943    -0.419357208504     1.007825032230
         H            0.756898874022     2.248389078943     1.272120791496     1.007825032230
         H            2.388882874022     2.652591078943     0.712130791496     1.007825032230
         H            3.358605874022    -2.099141921057    -0.411135208504     1.007825032230
         H           -2.828029125978     2.069582078943    -0.774594208504     1.007825032230
         H           -3.165984125978    -1.952053921057     0.751245791496     1.007825032230
         H           -4.320224125978     0.163916078943    -0.026075208504     1.007825032230

  Basis Set: AUG-CC-PVTZ
    Blend: AUG-CC-PVTZ
  Basis Set: (AUG-CC-PVTZ AUX)
    Blend: AUG-CC-PVTZ-JKFIT
	 Reference Energy          =    -525.5192278820023830 [Eh]
	 Singles Energy            =      -0.0000000000000000 [Eh]
	 Same-Spin Energy          =      -0.5761643739849629 [Eh]
	 Opposite-Spin Energy      =      -1.7389804410512544 [Eh]
	 Correlation Energy        =      -2.3151448150362173 [Eh]
	 Total Energy              =    -527.8343726970385887 [Eh]

	 ================> DF-SCS-MP2 Energies <==================
	-----------------------------------------------------------
	 SCS Same-Spin Scale       =       0.3333333333333333 [-]
	 SCS Opposite-Spin Scale   =       1.2000000000000000 [-]
	 SCS Same-Spin Energy      =      -0.1920547913283210 [Eh]
	 SCS Opposite-Spin Energy  =      -2.0867765292615053 [Eh]
	 SCS Correlation Energy    =      -2.2788313205898261 [Eh]
	 SCS Total Energy          =    -527.7980592025921851 [Eh]
	-----------------------------------------------------------

  Dipole Moment: [D]
     X:    -2.4908      Y:     2.4389      Z:     0.4071     Total:     3.5097

*** Psi4 exiting successfully. Buy a developer a beer!
