                               Psi4 1.3.2 release

  ==> Input File <==

--------------------------------------------------------------------------
#psi4
#
memory 32 gb

molecule  {
0 1
  N        0.8160970    -0.2990240    -0.0443680
  N        1.4443117    -1.4860021    -0.2669567
  N       -1.0817850     0.9875590    -0.4601130
  N       -1.2686320    -1.2431920     0.4227390
  C        1.7597130     0.6951090     0.1272320
  C        2.9786120     0.0532150     0.0016160
  C       -0.5903530    -0.1795160    -0.0248380
  C        1.4539390     2.1247050     0.4316710
  C        2.6793880    -1.2992810    -0.2463060
  C       -2.4210880     1.0928180    -0.4382200
  C       -2.6039190    -1.1175230     0.3972460
  C       -3.2414650     0.0469210    -0.0276130
  H        3.9528590     0.5149220     0.0929350
  H        1.0131890     2.6387050    -0.4244530
  H        0.7544440     2.2203260     1.2670250
  H        2.3864280     2.6245280     0.7070350
  H        3.3561510    -2.1272050    -0.4162310
  H       -2.8304840     2.0415190    -0.7796900
  H       -3.1684390    -1.9801170     0.7461500
  H       -4.3226790     0.1358530    -0.0311710
units angstrom
no_reorient  #important for SAPT in psi4, default
symmetry c1  #important for SAPT in psi4, default
}

set PROPERTIES_ORIGIN ["COM"]
properties('MP2/aug-cc-pvtz', properties = ['dipole'])
--------------------------------------------------------------------------

    Molecular point group: c1
  Charge       = 0
  Multiplicity = 1
  Basis Set: AUG-CC-PVTZ
    Blend: AUG-CC-PVTZ
  Basis Set: (AUG-CC-PVTZ AUX)
    Blend: AUG-CC-PVTZ-JKFIT

    Orbital Energies [Eh]
    ---------------------

    Doubly Occupied:

       1A    -15.638250     2A    -15.582955     3A    -15.579289
       4A    -15.569749     5A    -11.369678     6A    -11.312236
       7A    -11.310079     8A    -11.283678     9A    -11.252980
      10A    -11.242844    11A    -11.232560    12A    -11.211666
      13A     -1.393036    14A     -1.317893    15A     -1.206575
      16A     -1.148920    17A     -1.081873    18A     -1.046305
      19A     -0.956522    20A     -0.910145    21A     -0.899200
      22A     -0.801065    23A     -0.795681    24A     -0.713429
      25A     -0.710406    26A     -0.684827    27A     -0.641477
      28A     -0.637089    29A     -0.607998    30A     -0.597106
      31A     -0.586506    32A     -0.576349    33A     -0.562340
      34A     -0.556176    35A     -0.537250    36A     -0.492060
      37A     -0.441020    38A     -0.431006    39A     -0.419321
      40A     -0.414979    41A     -0.347679    42A     -0.329170

  @DF-RHF Final Energy:  -525.54321158599294

   => Energetics <=

    Nuclear Repulsion Energy =            659.5439948535612302
    One-Electron Energy =               -2021.3156779174148596
    Two-Electron Energy =                 836.2284714778608077
    Total Energy =                       -525.5432115859929354
  Basis Set: (AUG-CC-PVTZ AUX)
    Blend: AUG-CC-PVTZ-RI
    Molecular point group: c1

    Geometry (in Angstrom), charge = 0, multiplicity = 1:

       Center              X                  Y                   Z               Mass
    ------------   -----------------  -----------------  -----------------  -----------------
         N            0.815672622740    -0.264901804256    -0.037729181743    14.003074004430
         N            1.443887322740    -1.451879904256    -0.260317881743    14.003074004430
         N           -1.082209377260     1.021681195744    -0.453474181743    14.003074004430
         N           -1.269056377260    -1.209069804256     0.429377818257    14.003074004430
         C            1.759288622740     0.729231195744     0.133870818257    12.000000000000
         C            2.978187622740     0.087337195744     0.008254818257    12.000000000000
         C           -0.590777377260    -0.145393804256    -0.018199181743    12.000000000000
         C            1.453514622740     2.158827195744     0.438309818257    12.000000000000
         C            2.678963622740    -1.265158804256    -0.239667181743    12.000000000000
         C           -2.421512377260     1.126940195744    -0.431581181743    12.000000000000
         C           -2.604343377260    -1.083400804256     0.403884818257    12.000000000000
         C           -3.241889377260     0.081043195744    -0.020974181743    12.000000000000
         H            3.952434622740     0.549044195744     0.099573818257     1.007825032230
         H            1.012764622740     2.672827195744    -0.417814181743     1.007825032230
         H            0.754019622740     2.254448195744     1.273663818257     1.007825032230
         H            2.386003622740     2.658650195744     0.713673818257     1.007825032230
         H            3.355726622740    -2.093082804256    -0.409592181743     1.007825032230
         H           -2.830908377260     2.075641195744    -0.773051181743     1.007825032230
         H           -3.168863377260    -1.945994804256     0.752788818257     1.007825032230
         H           -4.323103377260     0.169975195744    -0.024532181743     1.007825032230

  Basis Set: AUG-CC-PVTZ
    Blend: AUG-CC-PVTZ
  Basis Set: (AUG-CC-PVTZ AUX)
    Blend: AUG-CC-PVTZ-JKFIT
	 Reference Energy          =    -525.5432115859929354 [Eh]
	 Singles Energy            =      -0.0000000000000000 [Eh]
	 Same-Spin Energy          =      -0.5747706887174768 [Eh]
	 Opposite-Spin Energy      =      -1.7333433669497573 [Eh]
	 Correlation Energy        =      -2.3081140556672342 [Eh]
	 Total Energy              =    -527.8513256416601962 [Eh]

	 ================> DF-SCS-MP2 Energies <==================
	-----------------------------------------------------------
	 SCS Same-Spin Scale       =       0.3333333333333333 [-]
	 SCS Opposite-Spin Scale   =       1.2000000000000000 [-]
	 SCS Same-Spin Energy      =      -0.1915902295724923 [Eh]
	 SCS Opposite-Spin Energy  =      -2.0800120403397089 [Eh]
	 SCS Correlation Energy    =      -2.2716022699122012 [Eh]
	 SCS Total Energy          =    -527.8148138559051858 [Eh]
	-----------------------------------------------------------

  Dipole Moment: [D]
     X:    -2.6237      Y:     2.3898      Z:     0.3999     Total:     3.5714

*** Psi4 exiting successfully. Buy a developer a beer!
