                               Psi4 1.3.2 release

  ==> Input File <==

--------------------------------------------------------------------------
#psi4
#
memory 32 gb

molecule  {
0 1
  N        0.8160970    -0.2990240    -0.0443680
  N        1.3585440    -1.5263750    -0.2734470
  N       -1.0817850     0.9875590    -0.4601130
  N       -1.2666254    -1.2213523     0.4145461
  C        1.7597130     0.6951090     0.1272320
  C        2.9786120     0.0532150     0.0016160
  C       -0.5903530    -0.1795160    -0.0248380
  C        1.4539390     2.1247050     0.4316710
  C        2.6793880    -1.2992810    -0.2463060
  C       -2.4210880     1.0928180    -0.4382200
  C       -2.6039190    -1.1175230     0.3972460
  C       -3.2414650     0.0469210    -0.0276130
  H        3.9528590     0.5149220     0.0929350
  H        1.0131890     2.6387050    -0.4244530
  H        0.7544440     2.2203260     1.2670250
  H        2.3864280     2.6245280     0.7070350
  H        3.3561510    -2.1272050    -0.4162310
  H       -2.8304840     2.0415190    -0.7796900
  H       -3.1684390    -1.9801170     0.7461500
  H       -4.3226790     0.1358530    -0.0311710
units angstrom
no_reorient  #important for SAPT in psi4, default
symmetry c1  #important for SAPT in psi4, default
}

set PROPERTIES_ORIGIN ["COM"]
properties('MP2/aug-cc-pvtz', properties = ['dipole'])
--------------------------------------------------------------------------

    Molecular point group: c1
  Charge       = 0
  Multiplicity = 1
  Basis Set: AUG-CC-PVTZ
    Blend: AUG-CC-PVTZ
  Basis Set: (AUG-CC-PVTZ AUX)
    Blend: AUG-CC-PVTZ-JKFIT

    Orbital Energies [Eh]
    ---------------------

    Doubly Occupied:

       1A    -15.641157     2A    -15.581540     3A    -15.580992
       4A    -15.575418     5A    -11.364356     6A    -11.311258
       7A    -11.310359     8A    -11.286189     9A    -11.253978
      10A    -11.253043    11A    -11.234337    12A    -11.216761
      13A     -1.386664    14A     -1.315093    15A     -1.206602
      16A     -1.129451    17A     -1.084102    18A     -1.045558
      19A     -0.958350    20A     -0.911381    21A     -0.896206
      22A     -0.800174    23A     -0.795559    24A     -0.713513
      25A     -0.709111    26A     -0.682557    27A     -0.638603
      28A     -0.633543    29A     -0.607520    30A     -0.591062
      31A     -0.586957    32A     -0.575814    33A     -0.563607
      34A     -0.552566    35A     -0.535475    36A     -0.490058
      37A     -0.454482    38A     -0.430160    39A     -0.418718
      40A     -0.408146    41A     -0.338452    42A     -0.331882

  @DF-RHF Final Energy:  -525.54443088061942

   => Energetics <=

    Nuclear Repulsion Energy =            658.8845510757993225
    One-Electron Energy =               -2020.0564558795595076
    Two-Electron Energy =                 835.6274739231408830
    Total Energy =                       -525.5444308806194158
  Basis Set: (AUG-CC-PVTZ AUX)
    Blend: AUG-CC-PVTZ-RI
    Molecular point group: c1

    Geometry (in Angstrom), charge = 0, multiplicity = 1:

       Center              X                  Y                   Z               Mass
    ------------   -----------------  -----------------  -----------------  -----------------
         N            0.822999898343    -0.263280552097    -0.036444720900    14.003074004430
         N            1.365446898343    -1.490631552097    -0.265523720900    14.003074004430
         N           -1.074882101657     1.023302447903    -0.452189720900    14.003074004430
         N           -1.259722501657    -1.185608852097     0.422469379100    14.003074004430
         C            1.766615898343     0.730852447903     0.135155279100    12.000000000000
         C            2.985514898343     0.088958447903     0.009539279100    12.000000000000
         C           -0.583450101657    -0.143772552097    -0.016914720900    12.000000000000
         C            1.460841898343     2.160448447903     0.439594279100    12.000000000000
         C            2.686290898343    -1.263537552097    -0.238382720900    12.000000000000
         C           -2.414185101657     1.128561447903    -0.430296720900    12.000000000000
         C           -2.597016101657    -1.081779552097     0.405169279100    12.000000000000
         C           -3.234562101657     0.082664447903    -0.019689720900    12.000000000000
         H            3.959761898343     0.550665447903     0.100858279100     1.007825032230
         H            1.020091898343     2.674448447903    -0.416529720900     1.007825032230
         H            0.761346898343     2.256069447903     1.274948279100     1.007825032230
         H            2.393330898343     2.660271447903     0.714958279100     1.007825032230
         H            3.363053898343    -2.091461552097    -0.408307720900     1.007825032230
         H           -2.823581101657     2.077262447903    -0.771766720900     1.007825032230
         H           -3.161536101657    -1.944373552097     0.754073279100     1.007825032230
         H           -4.315776101657     0.171596447903    -0.023247720900     1.007825032230

  Basis Set: AUG-CC-PVTZ
    Blend: AUG-CC-PVTZ
  Basis Set: (AUG-CC-PVTZ AUX)
    Blend: AUG-CC-PVTZ-JKFIT
	 Reference Energy          =    -525.5444308806194158 [Eh]
	 Singles Energy            =      -0.0000000000000000 [Eh]
	 Same-Spin Energy          =      -0.5774304360128510 [Eh]
	 Opposite-Spin Energy      =      -1.7380339881127058 [Eh]
	 Correlation Energy        =      -2.3154644241255569 [Eh]
	 Total Energy              =    -527.8598953047450095 [Eh]

	 ================> DF-SCS-MP2 Energies <==================
	-----------------------------------------------------------
	 SCS Same-Spin Scale       =       0.3333333333333333 [-]
	 SCS Opposite-Spin Scale   =       1.2000000000000000 [-]
	 SCS Same-Spin Energy      =      -0.1924768120042837 [Eh]
	 SCS Opposite-Spin Energy  =      -2.0856407857352468 [Eh]
	 SCS Correlation Energy    =      -2.2781175977395307 [Eh]
	 SCS Total Energy          =    -527.8225484783589536 [Eh]
	-----------------------------------------------------------

  Dipole Moment: [D]
     X:    -2.6269      Y:     2.5215      Z:     0.4546     Total:     3.6695

*** Psi4 exiting successfully. Buy a developer a beer!
