                               Psi4 1.4a3.dev225

  ==> Input File <==

--------------------------------------------------------------------------
#psi4
#
memory 32 gb

molecule  {
0 1
  N        0.8160970    -0.2990240    -0.0443680
  N        1.3585440    -1.5263750    -0.2734470
  N       -1.0817850     0.9875590    -0.4601130
  N       -1.2686320    -1.2431920     0.4227390
  C        1.7597130     0.6951090     0.1272320
  C        2.9786120     0.0532150     0.0016160
  C       -0.5903530    -0.1795160    -0.0248380
  C        1.4539390     2.1247050     0.4316710
  C        2.6793880    -1.2992810    -0.2463060
  C       -2.4210880     1.0928180    -0.4382200
  C       -2.6039190    -1.1175230     0.3972460
  C       -3.2414650     0.0469210    -0.0276130
  H        3.9978807     0.5362583     0.0971550
  H        1.0131890     2.6387050    -0.4244530
  H        0.7544440     2.2203260     1.2670250
  H        2.3864280     2.6245280     0.7070350
  H        3.3561510    -2.1272050    -0.4162310
  H       -2.8304840     2.0415190    -0.7796900
  H       -3.1684390    -1.9801170     0.7461500
  H       -4.3226790     0.1358530    -0.0311710
units angstrom
no_reorient  #important for SAPT in psi4, default
symmetry c1  #important for SAPT in psi4, default
}

set PROPERTIES_ORIGIN ["COM"]
properties('MP2/aug-cc-pvtz', properties = ['dipole'])
--------------------------------------------------------------------------

    Molecular point group: c1
  Charge       = 0
  Multiplicity = 1
  Basis Set: AUG-CC-PVTZ
    Blend: AUG-CC-PVTZ
  Basis Set: (AUG-CC-PVTZ AUX)
    Blend: AUG-CC-PVTZ-JKFIT

    Orbital Energies [Eh]
    ---------------------

    Doubly Occupied:

       1A    -15.642420     2A    -15.582525     3A    -15.581813
       4A    -15.578780     5A    -11.367546     6A    -11.311614
       7A    -11.309581     8A    -11.287131     9A    -11.255006
      10A    -11.252784    11A    -11.234656    12A    -11.222912
      13A     -1.386617    14A     -1.312715    15A     -1.206140
      16A     -1.129594    17A     -1.083996    18A     -1.044677
      19A     -0.958295    20A     -0.909099    21A     -0.896202
      22A     -0.800203    23A     -0.791849    24A     -0.713090
      25A     -0.707402    26A     -0.681726    27A     -0.638355
      28A     -0.631721    29A     -0.605374    30A     -0.588305
      31A     -0.584970    32A     -0.574592    33A     -0.561329
      34A     -0.552681    35A     -0.535996    36A     -0.491728
      37A     -0.455043    38A     -0.430603    39A     -0.420306
      40A     -0.407894    41A     -0.338248    42A     -0.332632

  @DF-RHF Final Energy:  -525.54110391483528

   => Energetics <=

    Nuclear Repulsion Energy =            658.0137751662228993
    One-Electron Energy =               -2018.3134539199775190
    Two-Electron Energy =                 834.7585748389192304
    Total Energy =                       -525.5411039148352756
  Basis Set: (AUG-CC-PVTZ AUX)
    Blend: AUG-CC-PVTZ-RI
    Molecular point group: c1

    Geometry (in Angstrom), charge = 0, multiplicity = 1:

       Center              X                  Y                   Z               Mass
    ------------   -----------------  -----------------  -----------------  -----------------
         N            0.822891977436    -0.261504385536    -0.037187990516    14.003074004430
         N            1.365338977436    -1.488855385536    -0.266266990516    14.003074004430
         N           -1.074990022564     1.025078614464    -0.452932990516    14.003074004430
         N           -1.261837022564    -1.205672385536     0.429919009484    14.003074004430
         C            1.766507977436     0.732628614464     0.134412009484    12.000000000000
         C            2.985406977436     0.090734614464     0.008796009484    12.000000000000
         C           -0.583558022564    -0.141996385536    -0.017657990516    12.000000000000
         C            1.460733977436     2.162224614464     0.438851009484    12.000000000000
         C            2.686182977436    -1.261761385536    -0.239125990516    12.000000000000
         C           -2.414293022564     1.130337614464    -0.431039990516    12.000000000000
         C           -2.597124022564    -1.080003385536     0.404426009484    12.000000000000
         C           -3.234670022564     0.084440614464    -0.020432990516    12.000000000000
         H            4.004675677436     0.573777914464     0.104335009484     1.007825032230
         H            1.019983977436     2.676224614464    -0.417272990516     1.007825032230
         H            0.761238977436     2.257845614464     1.274205009484     1.007825032230
         H            2.393222977436     2.662047614464     0.714215009484     1.007825032230
         H            3.362945977436    -2.089685385536    -0.409050990516     1.007825032230
         H           -2.823689022564     2.079038614464    -0.772509990516     1.007825032230
         H           -3.161644022564    -1.942597385536     0.753330009484     1.007825032230
         H           -4.315884022564     0.173372614464    -0.023990990516     1.007825032230

  Basis Set: AUG-CC-PVTZ
    Blend: AUG-CC-PVTZ
  Basis Set: (AUG-CC-PVTZ AUX)
    Blend: AUG-CC-PVTZ-JKFIT
	 Reference Energy          =    -525.5411039148352756 [Eh]
	 Singles Energy            =      -0.0000000000000000 [Eh]
	 Same-Spin Energy          =      -0.5776572310681727 [Eh]
	 Opposite-Spin Energy      =      -1.7390252131106834 [Eh]
	 Correlation Energy        =      -2.3166824441788560 [Eh]
	 Total Energy              =    -527.8577863590140851 [Eh]

	 ================> DF-SCS-MP2 Energies <==================
	-----------------------------------------------------------
	 SCS Same-Spin Scale       =       0.3333333333333333 [-]
	 SCS Opposite-Spin Scale   =       1.2000000000000000 [-]
	 SCS Same-Spin Energy      =      -0.1925524103560576 [Eh]
	 SCS Opposite-Spin Energy  =      -2.0868302557328198 [Eh]
	 SCS Correlation Energy    =      -2.2793826660888774 [Eh]
	 SCS Total Energy          =    -527.8204865809241255 [Eh]
	-----------------------------------------------------------

  Dipole Moment: [D]
     X:    -2.5886      Y:     2.5497      Z:     0.4388     Total:     3.6598

*** Psi4 exiting successfully. Buy a developer a beer!
