                               Psi4 1.4a3.dev225

  ==> Input File <==

--------------------------------------------------------------------------
#psi4
#
memory 32 gb

molecule  {
0 1
  N        0.8160970    -0.2990240    -0.0443680
  N        1.3585440    -1.5263750    -0.2734470
  N       -1.0817850     0.9875590    -0.4601130
  N       -1.2686320    -1.2431920     0.4227390
  C        1.7597130     0.6951090     0.1272320
  C        2.9786120     0.0532150     0.0016160
  C       -0.5903530    -0.1795160    -0.0248380
  C        1.4580343     2.1055581     0.4275936
  C        2.6793880    -1.2992810    -0.2463060
  C       -2.4210880     1.0928180    -0.4382200
  C       -2.6039190    -1.1175230     0.3972460
  C       -3.2414650     0.0469210    -0.0276130
  H        3.9528590     0.5149220     0.0929350
  H        1.0131890     2.6387050    -0.4244530
  H        0.7544440     2.2203260     1.2670250
  H        2.3864280     2.6245280     0.7070350
  H        3.3561510    -2.1272050    -0.4162310
  H       -2.8304840     2.0415190    -0.7796900
  H       -3.1684390    -1.9801170     0.7461500
  H       -4.3226790     0.1358530    -0.0311710
units angstrom
no_reorient  #important for SAPT in psi4, default
symmetry c1  #important for SAPT in psi4, default
}

set PROPERTIES_ORIGIN ["COM"]
properties('MP2/aug-cc-pvtz', properties = ['dipole'])
--------------------------------------------------------------------------

    Molecular point group: c1
  Charge       = 0
  Multiplicity = 1
  Basis Set: AUG-CC-PVTZ
    Blend: AUG-CC-PVTZ
  Basis Set: (AUG-CC-PVTZ AUX)
    Blend: AUG-CC-PVTZ-JKFIT

    Orbital Energies [Eh]
    ---------------------

    Doubly Occupied:

       1A    -15.642143     2A    -15.582391     3A    -15.581612
       4A    -15.578670     5A    -11.367400     6A    -11.311503
       7A    -11.309473     8A    -11.286040     9A    -11.254615
      10A    -11.252696    11A    -11.234952    12A    -11.217430
      13A     -1.386522    14A     -1.312589    15A     -1.206043
      16A     -1.129681    17A     -1.086324    18A     -1.045193
      19A     -0.958666    20A     -0.909087    21A     -0.896500
      22A     -0.800376    23A     -0.795425    24A     -0.713344
      25A     -0.707982    26A     -0.683499    27A     -0.638480
      28A     -0.633625    29A     -0.607090    30A     -0.589790
      31A     -0.586079    32A     -0.574314    33A     -0.565609
      34A     -0.550503    35A     -0.536365    36A     -0.491058
      37A     -0.455093    38A     -0.430455    39A     -0.420138
      40A     -0.407770    41A     -0.338098    42A     -0.331937

  @DF-RHF Final Energy:  -525.54288806493787

   => Energetics <=

    Nuclear Repulsion Energy =            658.6347065410230925
    One-Electron Energy =               -2019.5420709809548043
    Two-Electron Energy =                 835.3644763749939557
    Total Energy =                       -525.5428880649378698
  Basis Set: (AUG-CC-PVTZ AUX)
    Blend: AUG-CC-PVTZ-RI
    Molecular point group: c1

    Geometry (in Angstrom), charge = 0, multiplicity = 1:

       Center              X                  Y                   Z               Mass
    ------------   -----------------  -----------------  -----------------  -----------------
         N            0.822868428436    -0.259934707447    -0.036855759648    14.003074004430
         N            1.365315428436    -1.487285707447    -0.265934759648    14.003074004430
         N           -1.075013571564     1.026648292553    -0.452600759648    14.003074004430
         N           -1.261860571564    -1.204102707447     0.430251240352    14.003074004430
         C            1.766484428436     0.734198292553     0.134744240352    12.000000000000
         C            2.985383428436     0.092304292553     0.009128240352    12.000000000000
         C           -0.583581571564    -0.140426707447    -0.017325759648    12.000000000000
         C            1.464805728436     2.144647392553     0.435105840352    12.000000000000
         C            2.686159428436    -1.260191707447    -0.238793759648    12.000000000000
         C           -2.414316571564     1.131907292553    -0.430707759648    12.000000000000
         C           -2.597147571564    -1.078433707447     0.404758240352    12.000000000000
         C           -3.234693571564     0.086010292553    -0.020100759648    12.000000000000
         H            3.959630428436     0.554011292553     0.100447240352     1.007825032230
         H            1.019960428436     2.677794292553    -0.416940759648     1.007825032230
         H            0.761215428436     2.259415292553     1.274537240352     1.007825032230
         H            2.393199428436     2.663617292553     0.714547240352     1.007825032230
         H            3.362922428436    -2.088115707447    -0.408718759648     1.007825032230
         H           -2.823712571564     2.080608292553    -0.772177759648     1.007825032230
         H           -3.161667571564    -1.941027707447     0.753662240352     1.007825032230
         H           -4.315907571564     0.174942292553    -0.023658759648     1.007825032230

  Basis Set: AUG-CC-PVTZ
    Blend: AUG-CC-PVTZ
  Basis Set: (AUG-CC-PVTZ AUX)
    Blend: AUG-CC-PVTZ-JKFIT
	 Reference Energy          =    -525.5428880649378698 [Eh]
	 Singles Energy            =      -0.0000000000000000 [Eh]
	 Same-Spin Energy          =      -0.5777835505266874 [Eh]
	 Opposite-Spin Energy      =      -1.7388404970040068 [Eh]
	 Correlation Energy        =      -2.3166240475306941 [Eh]
	 Total Energy              =    -527.8595121124685647 [Eh]

	 ================> DF-SCS-MP2 Energies <==================
	-----------------------------------------------------------
	 SCS Same-Spin Scale       =       0.3333333333333333 [-]
	 SCS Opposite-Spin Scale   =       1.2000000000000000 [-]
	 SCS Same-Spin Energy      =      -0.1925945168422291 [Eh]
	 SCS Opposite-Spin Energy  =      -2.0866085964048082 [Eh]
	 SCS Correlation Energy    =      -2.2792031132470374 [Eh]
	 SCS Total Energy          =    -527.8220911781849054 [Eh]
	-----------------------------------------------------------

  Dipole Moment: [D]
     X:    -2.5789      Y:     2.5546      Z:     0.4389     Total:     3.6564

*** Psi4 exiting successfully. Buy a developer a beer!
