                               Psi4 1.4a3.dev225

  ==> Input File <==

--------------------------------------------------------------------------
#psi4
#
memory 32 gb

molecule  {
0 1
  N        0.8160970    -0.2990240    -0.0443680
  N        1.3585440    -1.5263750    -0.2734470
  N       -1.0817850     0.9875590    -0.4601130
  N       -1.2686320    -1.2431920     0.4227390
  C        1.7597130     0.6951090     0.1272320
  C        2.9786120     0.0532150     0.0016160
  C       -0.5903530    -0.1795160    -0.0248380
  C        1.4539390     2.1247050     0.4316710
  C        2.6793880    -1.2992810    -0.2463060
  C       -2.4210880     1.0928180    -0.4382200
  C       -2.6039190    -1.1175230     0.3972460
  C       -3.2414650     0.0469210    -0.0276130
  H        3.9708677     0.5234565     0.0946230
  H        1.0131890     2.6387050    -0.4244530
  H        0.7544440     2.2203260     1.2670250
  H        2.3864280     2.6245280     0.7070350
  H        3.3561510    -2.1272050    -0.4162310
  H       -2.8304840     2.0415190    -0.7796900
  H       -3.1684390    -1.9801170     0.7461500
  H       -4.3226790     0.1358530    -0.0311710
units angstrom
no_reorient  #important for SAPT in psi4, default
symmetry c1  #important for SAPT in psi4, default
}

set PROPERTIES_ORIGIN ["COM"]
properties('MP2/aug-cc-pvtz', properties = ['dipole'])
--------------------------------------------------------------------------

    Molecular point group: c1
  Charge       = 0
  Multiplicity = 1
  Basis Set: AUG-CC-PVTZ
    Blend: AUG-CC-PVTZ
  Basis Set: (AUG-CC-PVTZ AUX)
    Blend: AUG-CC-PVTZ-JKFIT

    Orbital Energies [Eh]
    ---------------------

    Doubly Occupied:

       1A    -15.642232     2A    -15.582460     3A    -15.581595
       4A    -15.578701     5A    -11.367450     6A    -11.311558
       7A    -11.309519     8A    -11.286887     9A    -11.254713
      10A    -11.252725    11A    -11.234681    12A    -11.219574
      13A     -1.386436    14A     -1.312610    15A     -1.206072
      16A     -1.129471    17A     -1.084108    18A     -1.044862
      19A     -0.958573    20A     -0.909073    21A     -0.896395
      22A     -0.800129    23A     -0.793817    24A     -0.713113
      25A     -0.707384    26A     -0.682175    27A     -0.638263
      28A     -0.632664    29A     -0.606362    30A     -0.588858
      31A     -0.586173    32A     -0.574940    33A     -0.563067
      34A     -0.552692    35A     -0.535950    36A     -0.491685
      37A     -0.455068    38A     -0.430543    39A     -0.420250
      40A     -0.407781    41A     -0.338122    42A     -0.332468

  @DF-RHF Final Energy:  -525.54297015640691

   => Energetics <=

    Nuclear Repulsion Energy =            658.1687627486641077
    One-Electron Energy =               -2018.6210618444465581
    Two-Electron Energy =                 834.9093289393756550
    Total Energy =                       -525.5429701564069092
  Basis Set: (AUG-CC-PVTZ AUX)
    Blend: AUG-CC-PVTZ-RI
    Molecular point group: c1

    Geometry (in Angstrom), charge = 0, multiplicity = 1:

       Center              X                  Y                   Z               Mass
    ------------   -----------------  -----------------  -----------------  -----------------
         N            0.823062050184    -0.261423785924    -0.037172049147    14.003074004430
         N            1.365509050184    -1.488774785924    -0.266251049147    14.003074004430
         N           -1.074819949816     1.025159214076    -0.452917049147    14.003074004430
         N           -1.261666949816    -1.205591785924     0.429934950853    14.003074004430
         C            1.766678050184     0.732709214076     0.134427950853    12.000000000000
         C            2.985577050184     0.090815214076     0.008811950853    12.000000000000
         C           -0.583387949816    -0.141915785924    -0.017642049147    12.000000000000
         C            1.460904050184     2.162305214076     0.438866950853    12.000000000000
         C            2.686353050184    -1.261680785924    -0.239110049147    12.000000000000
         C           -2.414122949816     1.130418214076    -0.431024049147    12.000000000000
         C           -2.596953949816    -1.079922785924     0.404441950853    12.000000000000
         C           -3.234499949816     0.084521214076    -0.020417049147    12.000000000000
         H            3.977832750184     0.561056714076     0.101818950853     1.007825032230
         H            1.020154050184     2.676305214076    -0.417257049147     1.007825032230
         H            0.761409050184     2.257926214076     1.274220950853     1.007825032230
         H            2.393393050184     2.662128214076     0.714230950853     1.007825032230
         H            3.363116050184    -2.089604785924    -0.409035049147     1.007825032230
         H           -2.823518949816     2.079119214076    -0.772494049147     1.007825032230
         H           -3.161473949816    -1.942516785924     0.753345950853     1.007825032230
         H           -4.315713949816     0.173453214076    -0.023975049147     1.007825032230

  Basis Set: AUG-CC-PVTZ
    Blend: AUG-CC-PVTZ
  Basis Set: (AUG-CC-PVTZ AUX)
    Blend: AUG-CC-PVTZ-JKFIT
	 Reference Energy          =    -525.5429701564069092 [Eh]
	 Singles Energy            =      -0.0000000000000000 [Eh]
	 Same-Spin Energy          =      -0.5775969868936143 [Eh]
	 Opposite-Spin Energy      =      -1.7387765991845134 [Eh]
	 Correlation Energy        =      -2.3163735860781278 [Eh]
	 Total Energy              =    -527.8593437424850663 [Eh]

	 ================> DF-SCS-MP2 Energies <==================
	-----------------------------------------------------------
	 SCS Same-Spin Scale       =       0.3333333333333333 [-]
	 SCS Opposite-Spin Scale   =       1.2000000000000000 [-]
	 SCS Same-Spin Energy      =      -0.1925323289645381 [Eh]
	 SCS Opposite-Spin Energy  =      -2.0865319190214162 [Eh]
	 SCS Correlation Energy    =      -2.2790642479859544 [Eh]
	 SCS Total Energy          =    -527.8220344043928662 [Eh]
	-----------------------------------------------------------

  Dipole Moment: [D]
     X:    -2.5827      Y:     2.5530      Z:     0.4395     Total:     3.6581

*** Psi4 exiting successfully. Buy a developer a beer!
