                               Psi4 1.4a3.dev225

  ==> Input File <==

--------------------------------------------------------------------------
#psi4
#
memory 32 gb

molecule  {
0 1
  N        0.8160970    -0.2990240    -0.0443680
  N        1.3585440    -1.5263750    -0.2734470
  N       -1.0817850     0.9875590    -0.4601130
  N       -1.2686320    -1.2431920     0.4227390
  C        1.7597130     0.6951090     0.1272320
  C        2.9786120     0.0532150     0.0016160
  C       -0.5903530    -0.1795160    -0.0248380
  C        1.4539390     2.1247050     0.4316710
  C        2.6793880    -1.2992810    -0.2463060
  C       -2.4210880     1.0928180    -0.4382200
  C       -2.6039190    -1.1175230     0.3972460
  C       -3.2414650     0.0469210    -0.0276130
  H        3.9078373     0.4935857     0.0887150
  H        1.0131890     2.6387050    -0.4244530
  H        0.7544440     2.2203260     1.2670250
  H        2.3864280     2.6245280     0.7070350
  H        3.3561510    -2.1272050    -0.4162310
  H       -2.8304840     2.0415190    -0.7796900
  H       -3.1684390    -1.9801170     0.7461500
  H       -4.3226790     0.1358530    -0.0311710
units angstrom
no_reorient  #important for SAPT in psi4, default
symmetry c1  #important for SAPT in psi4, default
}

set PROPERTIES_ORIGIN ["COM"]
properties('MP2/aug-cc-pvtz', properties = ['dipole'])
--------------------------------------------------------------------------

    Molecular point group: c1
  Charge       = 0
  Multiplicity = 1
  Basis Set: AUG-CC-PVTZ
    Blend: AUG-CC-PVTZ
  Basis Set: (AUG-CC-PVTZ AUX)
    Blend: AUG-CC-PVTZ-JKFIT

    Orbital Energies [Eh]
    ---------------------

    Doubly Occupied:

       1A    -15.641848     2A    -15.582334     3A    -15.581137
       4A    -15.578546     5A    -11.367256     6A    -11.311451
       7A    -11.309398     8A    -11.286413     9A    -11.254114
      10A    -11.252610    11A    -11.234755    12A    -11.211519
      13A     -1.386063    14A     -1.312401    15A     -1.205938
      16A     -1.129240    17A     -1.084548    18A     -1.045466
      19A     -0.959457    20A     -0.909072    21A     -0.897023
      22A     -0.800874    23A     -0.798504    24A     -0.713281
      25A     -0.707413    26A     -0.683522    27A     -0.638316
      28A     -0.635619    29A     -0.609510    30A     -0.591865
      31A     -0.587013    32A     -0.575528    33A     -0.565569
      34A     -0.552634    35A     -0.535762    36A     -0.491598
      37A     -0.455105    38A     -0.430427    39A     -0.420143
      40A     -0.407563    41A     -0.337876    42A     -0.332166

  @DF-RHF Final Energy:  -525.54278504585523

   => Energetics <=

    Nuclear Repulsion Energy =            658.5520197727215646
    One-Electron Energy =               -2019.3678593098231886
    Two-Electron Energy =                 835.2730544912462847
    Total Energy =                       -525.5427850458552257
  Basis Set: (AUG-CC-PVTZ AUX)
    Blend: AUG-CC-PVTZ-RI
    Molecular point group: c1

    Geometry (in Angstrom), charge = 0, multiplicity = 1:

       Center              X                  Y                   Z               Mass
    ------------   -----------------  -----------------  -----------------  -----------------
         N            0.823458887018    -0.261235720583    -0.037134852619    14.003074004430
         N            1.365905887018    -1.488586720583    -0.266213852619    14.003074004430
         N           -1.074423112982     1.025347279417    -0.452879852619    14.003074004430
         N           -1.261270112982    -1.205403720583     0.429972147381    14.003074004430
         C            1.767074887018     0.732897279417     0.134465147381    12.000000000000
         C            2.985973887018     0.091003279417     0.008849147381    12.000000000000
         C           -0.582991112982    -0.141727720583    -0.017604852619    12.000000000000
         C            1.461300887018     2.162493279417     0.438904147381    12.000000000000
         C            2.686749887018    -1.261492720583    -0.239072852619    12.000000000000
         C           -2.413726112982     1.130606279417    -0.430986852619    12.000000000000
         C           -2.596557112982    -1.079734720583     0.404479147381    12.000000000000
         C           -3.234103112982     0.084709279417    -0.020379852619    12.000000000000
         H            3.915199187018     0.531373979417     0.095948147381     1.007825032230
         H            1.020550887018     2.676493279417    -0.417219852619     1.007825032230
         H            0.761805887018     2.258114279417     1.274258147381     1.007825032230
         H            2.393789887018     2.662316279417     0.714268147381     1.007825032230
         H            3.363512887018    -2.089416720583    -0.408997852619     1.007825032230
         H           -2.823122112982     2.079307279417    -0.772456852619     1.007825032230
         H           -3.161077112982    -1.942328720583     0.753383147381     1.007825032230
         H           -4.315317112982     0.173641279417    -0.023937852619     1.007825032230

  Basis Set: AUG-CC-PVTZ
    Blend: AUG-CC-PVTZ
  Basis Set: (AUG-CC-PVTZ AUX)
    Blend: AUG-CC-PVTZ-JKFIT
	 Reference Energy          =    -525.5427850458552257 [Eh]
	 Singles Energy            =      -0.0000000000000000 [Eh]
	 Same-Spin Energy          =      -0.5774770087727896 [Eh]
	 Opposite-Spin Energy      =      -1.7383360750112611 [Eh]
	 Correlation Energy        =      -2.3158130837840507 [Eh]
	 Total Energy              =    -527.8585981296392902 [Eh]

	 ================> DF-SCS-MP2 Energies <==================
	-----------------------------------------------------------
	 SCS Same-Spin Scale       =       0.3333333333333333 [-]
	 SCS Opposite-Spin Scale   =       1.2000000000000000 [-]
	 SCS Same-Spin Energy      =      -0.1924923362575965 [Eh]
	 SCS Opposite-Spin Energy  =      -2.0860032900135130 [Eh]
	 SCS Correlation Energy    =      -2.2784956262711096 [Eh]
	 SCS Total Energy          =    -527.8212806721263632 [Eh]
	-----------------------------------------------------------

  Dipole Moment: [D]
     X:    -2.5734      Y:     2.5593      Z:     0.4409     Total:     3.6560

*** Psi4 exiting successfully. Buy a developer a beer!
