                               Psi4 1.3.2 release

  ==> Input File <==

--------------------------------------------------------------------------
#psi4
#
memory 32 gb

molecule  {
0 1
  N        0.8160970    -0.2990240    -0.0443680
  N        1.3585440    -1.5263750    -0.2734470
  N       -1.1034267     0.9797223    -0.4560637
  N       -1.2686320    -1.2431920     0.4227390
  C        1.7597130     0.6951090     0.1272320
  C        2.9786120     0.0532150     0.0016160
  C       -0.5903530    -0.1795160    -0.0248380
  C        1.4539390     2.1247050     0.4316710
  C        2.6793880    -1.2992810    -0.2463060
  C       -2.4210880     1.0928180    -0.4382200
  C       -2.6039190    -1.1175230     0.3972460
  C       -3.2414650     0.0469210    -0.0276130
  H        3.9528590     0.5149220     0.0929350
  H        1.0131890     2.6387050    -0.4244530
  H        0.7544440     2.2203260     1.2670250
  H        2.3864280     2.6245280     0.7070350
  H        3.3561510    -2.1272050    -0.4162310
  H       -2.8304840     2.0415190    -0.7796900
  H       -3.1684390    -1.9801170     0.7461500
  H       -4.3226790     0.1358530    -0.0311710
units angstrom
no_reorient  #important for SAPT in psi4, default
symmetry c1  #important for SAPT in psi4, default
}

set PROPERTIES_ORIGIN ["COM"]
properties('MP2/aug-cc-pvtz', properties = ['dipole'])
--------------------------------------------------------------------------

    Molecular point group: c1
  Charge       = 0
  Multiplicity = 1
  Basis Set: AUG-CC-PVTZ
    Blend: AUG-CC-PVTZ
  Basis Set: (AUG-CC-PVTZ AUX)
    Blend: AUG-CC-PVTZ-JKFIT

    Orbital Energies [Eh]
    ---------------------

    Doubly Occupied:

       1A    -15.643238     2A    -15.582126     3A    -15.579857
       4A    -15.578045     5A    -11.367738     6A    -11.308631
       7A    -11.307798     8A    -11.287404     9A    -11.255184
      10A    -11.251335    11A    -11.235395    12A    -11.217898
      13A     -1.386963    14A     -1.315208    15A     -1.208099
      16A     -1.130191    17A     -1.084581    18A     -1.044641
      19A     -0.959442    20A     -0.908226    21A     -0.898214
      22A     -0.801294    23A     -0.796308    24A     -0.714806
      25A     -0.707708    26A     -0.682852    27A     -0.638892
      28A     -0.632993    29A     -0.607782    30A     -0.590650
      31A     -0.587491    32A     -0.576408    33A     -0.564494
      34A     -0.553713    35A     -0.536393    36A     -0.490874
      37A     -0.455270    38A     -0.432266    39A     -0.417700
      40A     -0.407275    41A     -0.337721    42A     -0.332961

  @DF-RHF Final Energy:  -525.54444228056468

   => Energetics <=

    Nuclear Repulsion Energy =            658.5060335329576446
    One-Electron Energy =               -2019.2688264309535953
    Two-Electron Energy =                 835.2183506174312697
    Total Energy =                       -525.5444422805646809
  Basis Set: (AUG-CC-PVTZ AUX)
    Blend: AUG-CC-PVTZ-RI
    Molecular point group: c1

    Geometry (in Angstrom), charge = 0, multiplicity = 1:

       Center              X                  Y                   Z               Mass
    ------------   -----------------  -----------------  -----------------  -----------------
         N            0.825068610568    -0.260684512149    -0.037515647301    14.003074004430
         N            1.367515610568    -1.488035512149    -0.266594647301    14.003074004430
         N           -1.094455089432     1.018061787851    -0.449211347301    14.003074004430
         N           -1.259660389432    -1.204852512149     0.429591352699    14.003074004430
         C            1.768684610568     0.733448487851     0.134084352699    12.000000000000
         C            2.987583610568     0.091554487851     0.008468352699    12.000000000000
         C           -0.581381389432    -0.141176512149    -0.017985647301    12.000000000000
         C            1.462910610568     2.163044487851     0.438523352699    12.000000000000
         C            2.688359610568    -1.260941512149    -0.239453647301    12.000000000000
         C           -2.412116389432     1.131157487851    -0.431367647301    12.000000000000
         C           -2.594947389432    -1.079183512149     0.404098352699    12.000000000000
         C           -3.232493389432     0.085260487851    -0.020760647301    12.000000000000
         H            3.961830610568     0.553261487851     0.099787352699     1.007825032230
         H            1.022160610568     2.677044487851    -0.417600647301     1.007825032230
         H            0.763415610568     2.258665487851     1.273877352699     1.007825032230
         H            2.395399610568     2.662867487851     0.713887352699     1.007825032230
         H            3.365122610568    -2.088865512149    -0.409378647301     1.007825032230
         H           -2.821512389432     2.079858487851    -0.772837647301     1.007825032230
         H           -3.159467389432    -1.941777512149     0.753002352699     1.007825032230
         H           -4.313707389432     0.174192487851    -0.024318647301     1.007825032230

  Basis Set: AUG-CC-PVTZ
    Blend: AUG-CC-PVTZ
  Basis Set: (AUG-CC-PVTZ AUX)
    Blend: AUG-CC-PVTZ-JKFIT
	 Reference Energy          =    -525.5444422805646809 [Eh]
	 Singles Energy            =      -0.0000000000000000 [Eh]
	 Same-Spin Energy          =      -0.5773633450578063 [Eh]
	 Opposite-Spin Energy      =      -1.7379340747400167 [Eh]
	 Correlation Energy        =      -2.3152974197978229 [Eh]
	 Total Energy              =    -527.8597397003625247 [Eh]

	 ================> DF-SCS-MP2 Energies <==================
	-----------------------------------------------------------
	 SCS Same-Spin Scale       =       0.3333333333333333 [-]
	 SCS Opposite-Spin Scale   =       1.2000000000000000 [-]
	 SCS Same-Spin Energy      =      -0.1924544483526021 [Eh]
	 SCS Opposite-Spin Energy  =      -2.0855208896880200 [Eh]
	 SCS Correlation Energy    =      -2.2779753380406222 [Eh]
	 SCS Total Energy          =    -527.8224176186053000 [Eh]
	-----------------------------------------------------------

  Dipole Moment: [D]
     X:    -2.5029      Y:     2.5768      Z:     0.4298     Total:     3.6179

*** Psi4 exiting successfully. Buy a developer a beer!
