                               Psi4 1.3.2 release

  ==> Input File <==

--------------------------------------------------------------------------
#psi4
#
memory 32 gb

molecule  {
0 1
  N        0.8160970    -0.2990240    -0.0443680
  N        1.3896203    -1.6606056    -0.2999804
  N       -1.0817850     0.9875590    -0.4601130
  N       -1.2686320    -1.2431920     0.4227390
  C        1.7597130     0.6951090     0.1272320
  C        2.9786120     0.0532150     0.0016160
  C       -0.5903530    -0.1795160    -0.0248380
  C        1.4539390     2.1247050     0.4316710
  C        2.6793880    -1.2992810    -0.2463060
  C       -2.4210880     1.0928180    -0.4382200
  C       -2.6039190    -1.1175230     0.3972460
  C       -3.2414650     0.0469210    -0.0276130
  H        3.9528590     0.5149220     0.0929350
  H        1.0131890     2.6387050    -0.4244530
  H        0.7544440     2.2203260     1.2670250
  H        2.3864280     2.6245280     0.7070350
  H        3.3561510    -2.1272050    -0.4162310
  H       -2.8304840     2.0415190    -0.7796900
  H       -3.1684390    -1.9801170     0.7461500
  H       -4.3226790     0.1358530    -0.0311710
units angstrom
no_reorient  #important for SAPT in psi4, default
symmetry c1  #important for SAPT in psi4, default
}

set PROPERTIES_ORIGIN ["COM"]
properties('MP2/aug-cc-pvtz', properties = ['dipole'])
--------------------------------------------------------------------------

    Molecular point group: c1
  Charge       = 0
  Multiplicity = 1
  Basis Set: AUG-CC-PVTZ
    Blend: AUG-CC-PVTZ
  Basis Set: (AUG-CC-PVTZ AUX)
    Blend: AUG-CC-PVTZ-JKFIT

    Orbital Energies [Eh]
    ---------------------

    Doubly Occupied:

       1A    -15.631409     2A    -15.596346     3A    -15.577939
       4A    -15.574079     5A    -11.363023     6A    -11.308548
       7A    -11.306404     8A    -11.301041     9A    -11.265637
      10A    -11.248803    11A    -11.240182    12A    -11.219062
      13A     -1.355629    14A     -1.296594    15A     -1.202159
      16A     -1.131953    17A     -1.085327    18A     -1.037742
      19A     -0.967515    20A     -0.905455    21A     -0.889420
      22A     -0.795508    23A     -0.780056    24A     -0.713377
      25A     -0.703035    26A     -0.681754    27A     -0.629523
      28A     -0.627754    29A     -0.605281    30A     -0.587968
      31A     -0.581993    32A     -0.571053    33A     -0.554781
      34A     -0.543741    35A     -0.537708    36A     -0.490065
      37A     -0.467119    38A     -0.427840    39A     -0.418381
      40A     -0.410333    41A     -0.349263    42A     -0.327556

  @DF-RHF Final Energy:  -525.52553550709536

   => Energetics <=

    Nuclear Repulsion Energy =            654.3416507494044936
    One-Electron Energy =               -2011.1176566812662259
    Two-Electron Energy =                 831.2504704247662630
    Total Energy =                       -525.5255355070953556
  Basis Set: (AUG-CC-PVTZ AUX)
    Blend: AUG-CC-PVTZ-RI
    Molecular point group: c1

    Geometry (in Angstrom), charge = 0, multiplicity = 1:

       Center              X                  Y                   Z               Mass
    ------------   -----------------  -----------------  -----------------  -----------------
         N            0.820456931457    -0.249627793222    -0.034840325803    14.003074004430
         N            1.393980231457    -1.611209393222    -0.290452725803    14.003074004430
         N           -1.077425068543     1.036955206778    -0.450585325803    14.003074004430
         N           -1.264272068543    -1.193795793222     0.432266674197    14.003074004430
         C            1.764072931457     0.744505206778     0.136759674197    12.000000000000
         C            2.982971931457     0.102611206778     0.011143674197    12.000000000000
         C           -0.585993068543    -0.130119793222    -0.015310325803    12.000000000000
         C            1.458298931457     2.174101206778     0.441198674197    12.000000000000
         C            2.683747931457    -1.249884793222    -0.236778325803    12.000000000000
         C           -2.416728068543     1.142214206778    -0.428692325803    12.000000000000
         C           -2.599559068543    -1.068126793222     0.406773674197    12.000000000000
         C           -3.237105068543     0.096317206778    -0.018085325803    12.000000000000
         H            3.957218931457     0.564318206778     0.102462674197     1.007825032230
         H            1.017548931457     2.688101206778    -0.414925325803     1.007825032230
         H            0.758803931457     2.269722206778     1.276552674197     1.007825032230
         H            2.390787931457     2.673924206778     0.716562674197     1.007825032230
         H            3.360510931457    -2.077808793222    -0.406703325803     1.007825032230
         H           -2.826124068543     2.090915206778    -0.770162325803     1.007825032230
         H           -3.164079068543    -1.930720793222     0.755677674197     1.007825032230
         H           -4.318319068543     0.185249206778    -0.021643325803     1.007825032230

  Basis Set: AUG-CC-PVTZ
    Blend: AUG-CC-PVTZ
  Basis Set: (AUG-CC-PVTZ AUX)
    Blend: AUG-CC-PVTZ-JKFIT
	 Reference Energy          =    -525.5255355070953556 [Eh]
	 Singles Energy            =      -0.0000000000000000 [Eh]
	 Same-Spin Energy          =      -0.5774196960617424 [Eh]
	 Opposite-Spin Energy      =      -1.7419275316217531 [Eh]
	 Correlation Energy        =      -2.3193472276834957 [Eh]
	 Total Energy              =    -527.8448827347788210 [Eh]

	 ================> DF-SCS-MP2 Energies <==================
	-----------------------------------------------------------
	 SCS Same-Spin Scale       =       0.3333333333333333 [-]
	 SCS Opposite-Spin Scale   =       1.2000000000000000 [-]
	 SCS Same-Spin Energy      =      -0.1924732320205808 [Eh]
	 SCS Opposite-Spin Energy  =      -2.0903130379461037 [Eh]
	 SCS Correlation Energy    =      -2.2827862699666843 [Eh]
	 SCS Total Energy          =    -527.8083217770620195 [Eh]
	-----------------------------------------------------------

  Dipole Moment: [D]
     X:    -2.2735      Y:     2.6894      Z:     0.4689     Total:     3.5527

*** Psi4 exiting successfully. Buy a developer a beer!
