                               Psi4 1.3.2 release

  ==> Input File <==

--------------------------------------------------------------------------
#psi4
#
memory 32 gb

molecule  {
0 1
  N        0.8160970    -0.2990240    -0.0443680
  N        1.3146425    -1.5443303    -0.2762754
  N       -1.0817850     0.9875590    -0.4601130
  N       -1.2686320    -1.2431920     0.4227390
  C        1.7597130     0.6951090     0.1272320
  C        2.9786120     0.0532150     0.0016160
  C       -0.5903530    -0.1795160    -0.0248380
  C        1.4539390     2.1247050     0.4316710
  C        2.6793880    -1.2992810    -0.2463060
  C       -2.4210880     1.0928180    -0.4382200
  C       -2.6039190    -1.1175230     0.3972460
  C       -3.2414650     0.0469210    -0.0276130
  H        3.9528590     0.5149220     0.0929350
  H        1.0131890     2.6387050    -0.4244530
  H        0.7544440     2.2203260     1.2670250
  H        2.3864280     2.6245280     0.7070350
  H        3.3561510    -2.1272050    -0.4162310
  H       -2.8304840     2.0415190    -0.7796900
  H       -3.1684390    -1.9801170     0.7461500
  H       -4.3226790     0.1358530    -0.0311710
units angstrom
no_reorient  #important for SAPT in psi4, default
symmetry c1  #important for SAPT in psi4, default
}

set PROPERTIES_ORIGIN ["COM"]
properties('MP2/aug-cc-pvtz', properties = ['dipole'])
--------------------------------------------------------------------------

    Molecular point group: c1
  Charge       = 0
  Multiplicity = 1
  Basis Set: AUG-CC-PVTZ
    Blend: AUG-CC-PVTZ
  Basis Set: (AUG-CC-PVTZ AUX)
    Blend: AUG-CC-PVTZ-JKFIT

    Orbital Energies [Eh]
    ---------------------

    Doubly Occupied:

       1A    -15.644318     2A    -15.586537     3A    -15.582176
       4A    -15.578345     5A    -11.366352     6A    -11.311183
       7A    -11.309196     8A    -11.288151     9A    -11.259771
      10A    -11.252559    11A    -11.235697    12A    -11.220164
      13A     -1.384181    14A     -1.310165    15A     -1.205805
      16A     -1.121273    17A     -1.085739    18A     -1.043489
      19A     -0.959837    20A     -0.908567    21A     -0.895477
      22A     -0.799998    23A     -0.794756    24A     -0.713005
      25A     -0.705693    26A     -0.681395    27A     -0.637261
      28A     -0.632304    29A     -0.607061    30A     -0.588783
      31A     -0.584949    32A     -0.573773    33A     -0.563867
      34A     -0.551091    35A     -0.535054    36A     -0.491496
      37A     -0.460508    38A     -0.430174    39A     -0.420043
      40A     -0.405110    41A     -0.338109    42A     -0.328695

  @DF-RHF Final Energy:  -525.53602658908358

   => Energetics <=

    Nuclear Repulsion Energy =            657.7458262218286791
    One-Electron Energy =               -2017.7794981584934249
    Two-Electron Energy =                 834.4976453475810558
    Total Energy =                       -525.5360265890835763
  Basis Set: (AUG-CC-PVTZ AUX)
    Blend: AUG-CC-PVTZ-RI
    Molecular point group: c1

    Geometry (in Angstrom), charge = 0, multiplicity = 1:

       Center              X                  Y                   Z               Mass
    ------------   -----------------  -----------------  -----------------  -----------------
         N            0.827015859225    -0.259799354589    -0.036913998046    14.003074004430
         N            1.325561359225    -1.505105654589    -0.268821398046    14.003074004430
         N           -1.070866140775     1.026783645411    -0.452658998046    14.003074004430
         N           -1.257713140775    -1.203967354589     0.430193001954    14.003074004430
         C            1.770631859225     0.734333645411     0.134686001954    12.000000000000
         C            2.989530859225     0.092439645411     0.009070001954    12.000000000000
         C           -0.579434140775    -0.140291354589    -0.017383998046    12.000000000000
         C            1.464857859225     2.163929645411     0.439125001954    12.000000000000
         C            2.690306859225    -1.260056354589    -0.238851998046    12.000000000000
         C           -2.410169140775     1.132042645411    -0.430765998046    12.000000000000
         C           -2.593000140775    -1.078298354589     0.404700001954    12.000000000000
         C           -3.230546140775     0.086145645411    -0.020158998046    12.000000000000
         H            3.963777859225     0.554146645411     0.100389001954     1.007825032230
         H            1.024107859225     2.677929645411    -0.416998998046     1.007825032230
         H            0.765362859225     2.259550645411     1.274479001954     1.007825032230
         H            2.397346859225     2.663752645411     0.714489001954     1.007825032230
         H            3.367069859225    -2.087980354589    -0.408776998046     1.007825032230
         H           -2.819565140775     2.080743645411    -0.772235998046     1.007825032230
         H           -3.157520140775    -1.940892354589     0.753604001954     1.007825032230
         H           -4.311760140775     0.175077645411    -0.023716998046     1.007825032230

  Basis Set: AUG-CC-PVTZ
    Blend: AUG-CC-PVTZ
  Basis Set: (AUG-CC-PVTZ AUX)
    Blend: AUG-CC-PVTZ-JKFIT
	 Reference Energy          =    -525.5360265890835763 [Eh]
	 Singles Energy            =      -0.0000000000000000 [Eh]
	 Same-Spin Energy          =      -0.5791846879422669 [Eh]
	 Opposite-Spin Energy      =      -1.7417927176828334 [Eh]
	 Correlation Energy        =      -2.3209774056251002 [Eh]
	 Total Energy              =    -527.8570039947086343 [Eh]

	 ================> DF-SCS-MP2 Energies <==================
	-----------------------------------------------------------
	 SCS Same-Spin Scale       =       0.3333333333333333 [-]
	 SCS Opposite-Spin Scale   =       1.2000000000000000 [-]
	 SCS Same-Spin Energy      =      -0.1930615626474223 [Eh]
	 SCS Opposite-Spin Energy  =      -2.0901512612194000 [Eh]
	 SCS Correlation Energy    =      -2.2832128238668221 [Eh]
	 SCS Total Energy          =    -527.8192394129504237 [Eh]
	-----------------------------------------------------------

  Dipole Moment: [D]
     X:    -2.5650      Y:     2.6211      Z:     0.4572     Total:     3.6957

*** Psi4 exiting successfully. Buy a developer a beer!
