                               Psi4 1.3.2 release

  ==> Input File <==

--------------------------------------------------------------------------
#psi4
#
memory 32 gb

molecule  {
0 1
  N        0.8160970    -0.2990240    -0.0443680
  N        1.3802502    -1.5168352    -0.2719279
  N       -1.0817850     0.9875590    -0.4601130
  N       -1.2686320    -1.2431920     0.4227390
  C        1.7597130     0.6951090     0.1272320
  C        2.9786120     0.0532150     0.0016160
  C       -0.5903530    -0.1795160    -0.0248380
  C        1.4539390     2.1247050     0.4316710
  C        2.6793880    -1.2992810    -0.2463060
  C       -2.4210880     1.0928180    -0.4382200
  C       -2.6039190    -1.1175230     0.3972460
  C       -3.2414650     0.0469210    -0.0276130
  H        3.9528590     0.5149220     0.0929350
  H        1.0131890     2.6387050    -0.4244530
  H        0.7544440     2.2203260     1.2670250
  H        2.3864280     2.6245280     0.7070350
  H        3.3561510    -2.1272050    -0.4162310
  H       -2.8304840     2.0415190    -0.7796900
  H       -3.1684390    -1.9801170     0.7461500
  H       -4.3226790     0.1358530    -0.0311710
units angstrom
no_reorient  #important for SAPT in psi4, default
symmetry c1  #important for SAPT in psi4, default
}

set PROPERTIES_ORIGIN ["COM"]
properties('MP2/aug-cc-pvtz', properties = ['dipole'])
--------------------------------------------------------------------------

    Molecular point group: c1
  Charge       = 0
  Multiplicity = 1
  Basis Set: AUG-CC-PVTZ
    Blend: AUG-CC-PVTZ
  Basis Set: (AUG-CC-PVTZ AUX)
    Blend: AUG-CC-PVTZ-JKFIT

    Orbital Energies [Eh]
    ---------------------

    Doubly Occupied:

       1A    -15.641072     2A    -15.582546     3A    -15.578808
       4A    -15.578717     5A    -11.367935     6A    -11.311697
       7A    -11.309626     8A    -11.286001     9A    -11.252756
      10A    -11.251745    11A    -11.234182    12A    -11.215884
      13A     -1.387669    14A     -1.313814    15A     -1.206153
      16A     -1.133913    17A     -1.083505    18A     -1.045560
      19A     -0.958237    20A     -0.909320    21A     -0.897154
      22A     -0.800272    23A     -0.795409    24A     -0.713208
      25A     -0.708201    26A     -0.683079    27A     -0.638841
      28A     -0.634124    29A     -0.607254    30A     -0.591096
      31A     -0.586845    32A     -0.575645    33A     -0.563670
      34A     -0.553534    35A     -0.536286    36A     -0.491746
      37A     -0.451866    38A     -0.430663    39A     -0.420202
      40A     -0.409256    41A     -0.339915    42A     -0.332237

  @DF-RHF Final Energy:  -525.54568803489303

   => Energetics <=

    Nuclear Repulsion Energy =            658.5656989162370110
    One-Electron Energy =               -2019.4034969886790805
    Two-Electron Energy =                 835.2921100375491505
    Total Energy =                       -525.5456880348930326
  Basis Set: (AUG-CC-PVTZ AUX)
    Blend: AUG-CC-PVTZ-RI
    Molecular point group: c1

    Geometry (in Angstrom), charge = 0, multiplicity = 1:

       Center              X                  Y                   Z               Mass
    ------------   -----------------  -----------------  -----------------  -----------------
         N            0.821276611537    -0.262204578200    -0.037294309798    14.003074004430
         N            1.385429811537    -1.480015778200    -0.264854209798    14.003074004430
         N           -1.076605388463     1.024378421800    -0.453039309798    14.003074004430
         N           -1.263452388463    -1.206372578200     0.429812690202    14.003074004430
         C            1.764892611537     0.731928421800     0.134305690202    12.000000000000
         C            2.983791611537     0.090034421800     0.008689690202    12.000000000000
         C           -0.585173388463    -0.142696578200    -0.017764309798    12.000000000000
         C            1.459118611537     2.161524421800     0.438744690202    12.000000000000
         C            2.684567611537    -1.262461578200    -0.239232309798    12.000000000000
         C           -2.415908388463     1.129637421800    -0.431146309798    12.000000000000
         C           -2.598739388463    -1.080703578200     0.404319690202    12.000000000000
         C           -3.236285388463     0.083740421800    -0.020539309798    12.000000000000
         H            3.958038611537     0.551741421800     0.100008690202     1.007825032230
         H            1.018368611537     2.675524421800    -0.417379309798     1.007825032230
         H            0.759623611537     2.257145421800     1.274098690202     1.007825032230
         H            2.391607611537     2.661347421800     0.714108690202     1.007825032230
         H            3.361330611537    -2.090385578200    -0.409157309798     1.007825032230
         H           -2.825304388463     2.078338421800    -0.772616309798     1.007825032230
         H           -3.163259388463    -1.943297578200     0.753223690202     1.007825032230
         H           -4.317499388463     0.172672421800    -0.024097309798     1.007825032230

  Basis Set: AUG-CC-PVTZ
    Blend: AUG-CC-PVTZ
  Basis Set: (AUG-CC-PVTZ AUX)
    Blend: AUG-CC-PVTZ-JKFIT
	 Reference Energy          =    -525.5456880348930326 [Eh]
	 Singles Energy            =      -0.0000000000000000 [Eh]
	 Same-Spin Energy          =      -0.5767997043676245 [Eh]
	 Opposite-Spin Energy      =      -1.7371734942798138 [Eh]
	 Correlation Energy        =      -2.3139731986474383 [Eh]
	 Total Energy              =    -527.8596612335404643 [Eh]

	 ================> DF-SCS-MP2 Energies <==================
	-----------------------------------------------------------
	 SCS Same-Spin Scale       =       0.3333333333333333 [-]
	 SCS Opposite-Spin Scale   =       1.2000000000000000 [-]
	 SCS Same-Spin Energy      =      -0.1922665681225415 [Eh]
	 SCS Opposite-Spin Energy  =      -2.0846081931357765 [Eh]
	 SCS Correlation Energy    =      -2.2768747612583180 [Eh]
	 SCS Total Energy          =    -527.8225627961513737 [Eh]
	-----------------------------------------------------------

  Dipole Moment: [D]
     X:    -2.5882      Y:     2.5176      Z:     0.4305     Total:     3.6362

*** Psi4 exiting successfully. Buy a developer a beer!
