                               Psi4 1.3.2 release

  ==> Input File <==

--------------------------------------------------------------------------
#psi4
#
memory 32 gb

molecule  {
0 1
  N        0.8160970    -0.2990240    -0.0443680
  N        1.3585440    -1.5263750    -0.2734470
  N       -1.0817850     0.9875590    -0.4601130
  N       -1.2686320    -1.2431920     0.4227390
  C        1.7832822     0.7364550     0.1353765
  C        2.9786120     0.0532150     0.0016160
  C       -0.5903530    -0.1795160    -0.0248380
  C        1.4539390     2.1247050     0.4316710
  C        2.6793880    -1.2992810    -0.2463060
  C       -2.4210880     1.0928180    -0.4382200
  C       -2.6039190    -1.1175230     0.3972460
  C       -3.2414650     0.0469210    -0.0276130
  H        3.9528590     0.5149220     0.0929350
  H        1.0131890     2.6387050    -0.4244530
  H        0.7544440     2.2203260     1.2670250
  H        2.3864280     2.6245280     0.7070350
  H        3.3561510    -2.1272050    -0.4162310
  H       -2.8304840     2.0415190    -0.7796900
  H       -3.1684390    -1.9801170     0.7461500
  H       -4.3226790     0.1358530    -0.0311710
units angstrom
no_reorient  #important for SAPT in psi4, default
symmetry c1  #important for SAPT in psi4, default
}

set PROPERTIES_ORIGIN ["COM"]
properties('MP2/aug-cc-pvtz', properties = ['dipole'])
--------------------------------------------------------------------------

    Molecular point group: c1
  Charge       = 0
  Multiplicity = 1
  Basis Set: AUG-CC-PVTZ
    Blend: AUG-CC-PVTZ
  Basis Set: (AUG-CC-PVTZ AUX)
    Blend: AUG-CC-PVTZ-JKFIT

    Orbital Energies [Eh]
    ---------------------

    Doubly Occupied:

       1A    -15.639654     2A    -15.585957     3A    -15.580443
       4A    -15.576571     5A    -11.365053     6A    -11.310180
       7A    -11.308087     8A    -11.289746     9A    -11.255160
      10A    -11.250917    11A    -11.233894    12A    -11.220898
      13A     -1.379145    14A     -1.309666    15A     -1.204231
      16A     -1.126554    17A     -1.087048    18A     -1.043388
      19A     -0.963877    20A     -0.907494    21A     -0.892079
      22A     -0.798881    23A     -0.789088    24A     -0.712615
      25A     -0.707563    26A     -0.682993    27A     -0.635249
      28A     -0.631852    29A     -0.606708    30A     -0.588493
      31A     -0.587408    32A     -0.576140    33A     -0.564934
      34A     -0.551404    35A     -0.542935    36A     -0.489289
      37A     -0.455515    38A     -0.429264    39A     -0.418894
      40A     -0.406846    41A     -0.336841    42A     -0.330946

  @DF-RHF Final Energy:  -525.53843701032713

   => Energetics <=

    Nuclear Repulsion Energy =            657.5197245790087663
    One-Electron Energy =               -2017.3685154321331083
    Two-Electron Energy =                 834.3103538427970989
    Total Energy =                       -525.5384370103271294
  Basis Set: (AUG-CC-PVTZ AUX)
    Blend: AUG-CC-PVTZ-RI
    Molecular point group: c1

    Geometry (in Angstrom), charge = 0, multiplicity = 1:

       Center              X                  Y                   Z               Mass
    ------------   -----------------  -----------------  -----------------  -----------------
         N            0.821408569298    -0.264469552178    -0.037771973267    14.003074004430
         N            1.363855569298    -1.491820552178    -0.266850973267    14.003074004430
         N           -1.076473430702     1.022113447822    -0.453516973267    14.003074004430
         N           -1.263320430702    -1.208637552178     0.429335026733    14.003074004430
         C            1.788593769298     0.771009447822     0.141972526733    12.000000000000
         C            2.983923569298     0.087769447822     0.008212026733    12.000000000000
         C           -0.585041430702    -0.144961552178    -0.018241973267    12.000000000000
         C            1.459250569298     2.159259447822     0.438267026733    12.000000000000
         C            2.684699569298    -1.264726552178    -0.239709973267    12.000000000000
         C           -2.415776430702     1.127372447822    -0.431623973267    12.000000000000
         C           -2.598607430702    -1.082968552178     0.403842026733    12.000000000000
         C           -3.236153430702     0.081475447822    -0.021016973267    12.000000000000
         H            3.958170569298     0.549476447822     0.099531026733     1.007825032230
         H            1.018500569298     2.673259447822    -0.417856973267     1.007825032230
         H            0.759755569298     2.254880447822     1.273621026733     1.007825032230
         H            2.391739569298     2.659082447822     0.713631026733     1.007825032230
         H            3.361462569298    -2.092650552178    -0.409634973267     1.007825032230
         H           -2.825172430702     2.076073447822    -0.773093973267     1.007825032230
         H           -3.163127430702    -1.945562552178     0.752746026733     1.007825032230
         H           -4.317367430702     0.170407447822    -0.024574973267     1.007825032230

  Basis Set: AUG-CC-PVTZ
    Blend: AUG-CC-PVTZ
  Basis Set: (AUG-CC-PVTZ AUX)
    Blend: AUG-CC-PVTZ-JKFIT
	 Reference Energy          =    -525.5384370103271294 [Eh]
	 Singles Energy            =      -0.0000000000000000 [Eh]
	 Same-Spin Energy          =      -0.5782766332797409 [Eh]
	 Opposite-Spin Energy      =      -1.7400745421087673 [Eh]
	 Correlation Energy        =      -2.3183511753885080 [Eh]
	 Total Energy              =    -527.8567881857156863 [Eh]

	 ================> DF-SCS-MP2 Energies <==================
	-----------------------------------------------------------
	 SCS Same-Spin Scale       =       0.3333333333333333 [-]
	 SCS Opposite-Spin Scale   =       1.2000000000000000 [-]
	 SCS Same-Spin Energy      =      -0.1927588777599136 [Eh]
	 SCS Opposite-Spin Energy  =      -2.0880894505305205 [Eh]
	 SCS Correlation Energy    =      -2.2808483282904342 [Eh]
	 SCS Total Energy          =    -527.8192853386175329 [Eh]
	-----------------------------------------------------------

  Dipole Moment: [D]
     X:    -2.4266      Y:     2.5937      Z:     0.4495     Total:     3.5801

*** Psi4 exiting successfully. Buy a developer a beer!
