                               Psi4 1.3.2 release

  ==> Input File <==

--------------------------------------------------------------------------
#psi4
#
memory 32 gb

molecule  {
0 1
  N        0.8160970    -0.2990240    -0.0443680
  N        1.3585440    -1.5263750    -0.2734470
  N       -0.9937877     1.0153284    -0.4749727
  N       -1.2686320    -1.2431920     0.4227390
  C        1.7597130     0.6951090     0.1272320
  C        2.9786120     0.0532150     0.0016160
  C       -0.5903530    -0.1795160    -0.0248380
  C        1.4539390     2.1247050     0.4316710
  C        2.6793880    -1.2992810    -0.2463060
  C       -2.4210880     1.0928180    -0.4382200
  C       -2.6039190    -1.1175230     0.3972460
  C       -3.2414650     0.0469210    -0.0276130
  H        3.9528590     0.5149220     0.0929350
  H        1.0131890     2.6387050    -0.4244530
  H        0.7544440     2.2203260     1.2670250
  H        2.3864280     2.6245280     0.7070350
  H        3.3561510    -2.1272050    -0.4162310
  H       -2.8304840     2.0415190    -0.7796900
  H       -3.1684390    -1.9801170     0.7461500
  H       -4.3226790     0.1358530    -0.0311710
units angstrom
no_reorient  #important for SAPT in psi4, default
symmetry c1  #important for SAPT in psi4, default
}

set PROPERTIES_ORIGIN ["COM"]
properties('MP2/aug-cc-pvtz', properties = ['dipole'])
--------------------------------------------------------------------------

    Molecular point group: c1
  Charge       = 0
  Multiplicity = 1
  Basis Set: AUG-CC-PVTZ
    Blend: AUG-CC-PVTZ
  Basis Set: (AUG-CC-PVTZ AUX)
    Blend: AUG-CC-PVTZ-JKFIT

    Orbital Energies [Eh]
    ---------------------

    Doubly Occupied:

       1A    -15.637660     2A    -15.591955     3A    -15.581183
       4A    -15.578774     5A    -11.366367     6A    -11.321991
       7A    -11.316000     8A    -11.284058     9A    -11.257928
      10A    -11.251883    11A    -11.232052    12A    -11.214969
      13A     -1.384093    14A     -1.304109    15A     -1.199085
      16A     -1.125279    17A     -1.082716    18A     -1.046018
      19A     -0.956308    20A     -0.914134    21A     -0.888525
      22A     -0.796844    23A     -0.790258    24A     -0.708049
      25A     -0.705047    26A     -0.681347    27A     -0.636177
      28A     -0.634397    29A     -0.604718    30A     -0.586577
      31A     -0.582919    32A     -0.570763    33A     -0.561283
      34A     -0.548802    35A     -0.533740    36A     -0.492797
      37A     -0.454777    38A     -0.429538    39A     -0.423787
      40A     -0.408660    41A     -0.338837    42A     -0.329983

  @DF-RHF Final Energy:  -525.53064928636809

   => Energetics <=

    Nuclear Repulsion Energy =            657.4966840009441285
    One-Electron Energy =               -2017.3458959669560500
    Two-Electron Energy =                 834.3185626796437191
    Total Energy =                       -525.5306492863680887
  Basis Set: (AUG-CC-PVTZ AUX)
    Blend: AUG-CC-PVTZ-RI
    Molecular point group: c1

    Geometry (in Angstrom), charge = 0, multiplicity = 1:

       Center              X                  Y                   Z               Mass
    ------------   -----------------  -----------------  -----------------  -----------------
         N            0.815477581203    -0.263799271958    -0.035861520811    14.003074004430
         N            1.357924581203    -1.491150271958    -0.264940520811    14.003074004430
         N           -0.994407118797     1.050553128042    -0.466466220811    14.003074004430
         N           -1.269251418797    -1.207967271958     0.431245479189    14.003074004430
         C            1.759093581203     0.730333728042     0.135738479189    12.000000000000
         C            2.977992581203     0.088439728042     0.010122479189    12.000000000000
         C           -0.590972418797    -0.144291271958    -0.016331520811    12.000000000000
         C            1.453319581203     2.159929728042     0.440177479189    12.000000000000
         C            2.678768581203    -1.264056271958    -0.237799520811    12.000000000000
         C           -2.421707418797     1.128042728042    -0.429713520811    12.000000000000
         C           -2.604538418797    -1.082298271958     0.405752479189    12.000000000000
         C           -3.242084418797     0.082145728042    -0.019106520811    12.000000000000
         H            3.952239581203     0.550146728042     0.101441479189     1.007825032230
         H            1.012569581203     2.673929728042    -0.415946520811     1.007825032230
         H            0.753824581203     2.255550728042     1.275531479189     1.007825032230
         H            2.385808581203     2.659752728042     0.715541479189     1.007825032230
         H            3.355531581203    -2.091980271958    -0.407724520811     1.007825032230
         H           -2.831103418797     2.076743728042    -0.771183520811     1.007825032230
         H           -3.169058418797    -1.944892271958     0.754656479189     1.007825032230
         H           -4.323298418797     0.171077728042    -0.022664520811     1.007825032230

  Basis Set: AUG-CC-PVTZ
    Blend: AUG-CC-PVTZ
  Basis Set: (AUG-CC-PVTZ AUX)
    Blend: AUG-CC-PVTZ-JKFIT
	 Reference Energy          =    -525.5306492863680887 [Eh]
	 Singles Energy            =      -0.0000000000000000 [Eh]
	 Same-Spin Energy          =      -0.5785616430944358 [Eh]
	 Opposite-Spin Energy      =      -1.7421415577453039 [Eh]
	 Correlation Energy        =      -2.3207032008397395 [Eh]
	 Total Energy              =    -527.8513524872078051 [Eh]

	 ================> DF-SCS-MP2 Energies <==================
	-----------------------------------------------------------
	 SCS Same-Spin Scale       =       0.3333333333333333 [-]
	 SCS Opposite-Spin Scale   =       1.2000000000000000 [-]
	 SCS Same-Spin Energy      =      -0.1928538810314786 [Eh]
	 SCS Opposite-Spin Energy  =      -2.0905698692943644 [Eh]
	 SCS Correlation Energy    =      -2.2834237503258432 [Eh]
	 SCS Total Energy          =    -527.8140730366939124 [Eh]
	-----------------------------------------------------------

  Dipole Moment: [D]
     X:    -2.8640      Y:     2.4775      Z:     0.4759     Total:     3.8167

*** Psi4 exiting successfully. Buy a developer a beer!
