                               Psi4 1.3.2 release

  ==> Input File <==

--------------------------------------------------------------------------
#psi4
#
memory 32 gb

molecule  {
0 1
  N        0.8160970    -0.2990240    -0.0443680
  N        1.3585440    -1.5263750    -0.2734470
  N       -1.0817850     0.9875590    -0.4601130
  N       -1.2686320    -1.2431920     0.4227390
  C        1.7484836     0.6741395     0.1231018
  C        2.9786120     0.0532150     0.0016160
  C       -0.5903530    -0.1795160    -0.0248380
  C        1.4539390     2.1247050     0.4316710
  C        2.6793880    -1.2992810    -0.2463060
  C       -2.4210880     1.0928180    -0.4382200
  C       -2.6039190    -1.1175230     0.3972460
  C       -3.2414650     0.0469210    -0.0276130
  H        3.9528590     0.5149220     0.0929350
  H        1.0131890     2.6387050    -0.4244530
  H        0.7544440     2.2203260     1.2670250
  H        2.3864280     2.6245280     0.7070350
  H        3.3561510    -2.1272050    -0.4162310
  H       -2.8304840     2.0415190    -0.7796900
  H       -3.1684390    -1.9801170     0.7461500
  H       -4.3226790     0.1358530    -0.0311710
units angstrom
no_reorient  #important for SAPT in psi4, default
symmetry c1  #important for SAPT in psi4, default
}

set PROPERTIES_ORIGIN ["COM"]
properties('MP2/aug-cc-pvtz', properties = ['dipole'])
--------------------------------------------------------------------------

    Molecular point group: c1
  Charge       = 0
  Multiplicity = 1
  Basis Set: AUG-CC-PVTZ
    Blend: AUG-CC-PVTZ
  Basis Set: (AUG-CC-PVTZ AUX)
    Blend: AUG-CC-PVTZ-JKFIT

    Orbital Energies [Eh]
    ---------------------

    Doubly Occupied:

       1A    -15.643097     2A    -15.583424     3A    -15.579709
       4A    -15.579131     5A    -11.368557     6A    -11.312201
       7A    -11.310181     8A    -11.285248     9A    -11.254194
      10A    -11.253588    11A    -11.235131    12A    -11.215577
      13A     -1.390347    14A     -1.314038    15A     -1.206938
      16A     -1.130912    17A     -1.083386    18A     -1.045625
      19A     -0.956197    20A     -0.909857    21A     -0.898949
      22A     -0.801089    23A     -0.797942    24A     -0.713818
      25A     -0.707033    26A     -0.682143    27A     -0.640095
      28A     -0.634151    29A     -0.607470    30A     -0.591047
      31A     -0.586372    32A     -0.574779    33A     -0.563851
      34A     -0.553162    35A     -0.530627    36A     -0.492711
      37A     -0.454633    38A     -0.431127    39A     -0.420842
      40A     -0.408173    41A     -0.340068    42A     -0.331643

  @DF-RHF Final Energy:  -525.54417046321487

   => Energetics <=

    Nuclear Repulsion Energy =            658.6660906689033936
    One-Electron Energy =               -2019.5823935965383953
    Two-Electron Energy =                 835.3721324644202468
    Total Energy =                       -525.5441704632148685
  Basis Set: (AUG-CC-PVTZ AUX)
    Blend: AUG-CC-PVTZ-RI
    Molecular point group: c1

    Geometry (in Angstrom), charge = 0, multiplicity = 1:

       Center              X                  Y                   Z               Mass
    ------------   -----------------  -----------------  -----------------  -----------------
         N            0.824017243174    -0.259798076404    -0.036851801501    14.003074004430
         N            1.366464243174    -1.487149076404    -0.265930801501    14.003074004430
         N           -1.073864756826     1.026784923596    -0.452596801501    14.003074004430
         N           -1.260711756826    -1.203966076404     0.430255198499    14.003074004430
         C            1.756403843174     0.713365423596     0.130617998499    12.000000000000
         C            2.986532243174     0.092440923596     0.009132198499    12.000000000000
         C           -0.582432756826    -0.140290076404    -0.017321801501    12.000000000000
         C            1.461859243174     2.163930923596     0.439187198499    12.000000000000
         C            2.687308243174    -1.260055076404    -0.238789801501    12.000000000000
         C           -2.413167756826     1.132043923596    -0.430703801501    12.000000000000
         C           -2.595998756826    -1.078297076404     0.404762198499    12.000000000000
         C           -3.233544756826     0.086146923596    -0.020096801501    12.000000000000
         H            3.960779243174     0.554147923596     0.100451198499     1.007825032230
         H            1.021109243174     2.677930923596    -0.416936801501     1.007825032230
         H            0.762364243174     2.259551923596     1.274541198499     1.007825032230
         H            2.394348243174     2.663753923596     0.714551198499     1.007825032230
         H            3.364071243174    -2.087979076404    -0.408714801501     1.007825032230
         H           -2.822563756826     2.080744923596    -0.772173801501     1.007825032230
         H           -3.160518756826    -1.940891076404     0.753666198499     1.007825032230
         H           -4.314758756826     0.175078923596    -0.023654801501     1.007825032230

  Basis Set: AUG-CC-PVTZ
    Blend: AUG-CC-PVTZ
  Basis Set: (AUG-CC-PVTZ AUX)
    Blend: AUG-CC-PVTZ-JKFIT
	 Reference Energy          =    -525.5441704632148685 [Eh]
	 Singles Energy            =      -0.0000000000000000 [Eh]
	 Same-Spin Energy          =      -0.5772522455316313 [Eh]
	 Opposite-Spin Energy      =      -1.7380039196177028 [Eh]
	 Correlation Energy        =      -2.3152561651493340 [Eh]
	 Total Energy              =    -527.8594266283641900 [Eh]

	 ================> DF-SCS-MP2 Energies <==================
	-----------------------------------------------------------
	 SCS Same-Spin Scale       =       0.3333333333333333 [-]
	 SCS Opposite-Spin Scale   =       1.2000000000000000 [-]
	 SCS Same-Spin Energy      =      -0.1924174151772104 [Eh]
	 SCS Opposite-Spin Energy  =      -2.0856047035412435 [Eh]
	 SCS Correlation Energy    =      -2.2780221187184537 [Eh]
	 SCS Total Energy          =    -527.8221925819333364 [Eh]
	-----------------------------------------------------------

  Dipole Moment: [D]
     X:    -2.6561      Y:     2.5396      Z:     0.4362     Total:     3.7006

*** Psi4 exiting successfully. Buy a developer a beer!
