                               Psi4 1.3.2 release

  ==> Input File <==

--------------------------------------------------------------------------
#psi4
#
memory 32 gb

molecule  {
0 1
  N        0.8160970    -0.2990240    -0.0443680
  N        1.3585440    -1.5263750    -0.2734470
  N       -1.0817850     0.9875590    -0.4601130
  N       -1.2686320    -1.2431920     0.4227390
  C        1.7597130     0.6951090     0.1272320
  C        3.0212582     0.1378108     0.0202532
  C       -0.5903530    -0.1795160    -0.0248380
  C        1.4539390     2.1247050     0.4316710
  C        2.6793880    -1.2992810    -0.2463060
  C       -2.4210880     1.0928180    -0.4382200
  C       -2.6039190    -1.1175230     0.3972460
  C       -3.2414650     0.0469210    -0.0276130
  H        3.9528590     0.5149220     0.0929350
  H        1.0131890     2.6387050    -0.4244530
  H        0.7544440     2.2203260     1.2670250
  H        2.3864280     2.6245280     0.7070350
  H        3.3561510    -2.1272050    -0.4162310
  H       -2.8304840     2.0415190    -0.7796900
  H       -3.1684390    -1.9801170     0.7461500
  H       -4.3226790     0.1358530    -0.0311710
units angstrom
no_reorient  #important for SAPT in psi4, default
symmetry c1  #important for SAPT in psi4, default
}

set PROPERTIES_ORIGIN ["COM"]
properties('MP2/aug-cc-pvtz', properties = ['dipole'])
--------------------------------------------------------------------------

    Molecular point group: c1
  Charge       = 0
  Multiplicity = 1
  Basis Set: AUG-CC-PVTZ
    Blend: AUG-CC-PVTZ
  Basis Set: (AUG-CC-PVTZ AUX)
    Blend: AUG-CC-PVTZ-JKFIT

    Orbital Energies [Eh]
    ---------------------

    Doubly Occupied:

       1A    -15.640773     2A    -15.586743     3A    -15.581782
       4A    -15.578410     5A    -11.367750     6A    -11.311254
       7A    -11.309401     8A    -11.289797     9A    -11.264972
      10A    -11.252163    11A    -11.231954    12A    -11.221047
      13A     -1.384793    14A     -1.311390    15A     -1.205779
      16A     -1.126653    17A     -1.085154    18A     -1.041628
      19A     -0.954237    20A     -0.909211    21A     -0.894583
      22A     -0.807213    23A     -0.795324    24A     -0.712462
      25A     -0.705642    26A     -0.678489    27A     -0.641516
      28A     -0.636052    29A     -0.616117    30A     -0.595645
      31A     -0.586395    32A     -0.576022    33A     -0.563816
      34A     -0.550949    35A     -0.523213    36A     -0.491614
      37A     -0.453938    38A     -0.430407    39A     -0.419985
      40A     -0.404361    41A     -0.339356    42A     -0.331906

  @DF-RHF Final Energy:  -525.53301076420632

   => Energetics <=

    Nuclear Repulsion Energy =            656.8848920065883021
    One-Electron Energy =               -2016.0160203113975967
    Two-Electron Energy =                 833.5981175406030843
    Total Energy =                       -525.5330107642063240
  Basis Set: (AUG-CC-PVTZ AUX)
    Blend: AUG-CC-PVTZ-RI
    Molecular point group: c1

    Geometry (in Angstrom), charge = 0, multiplicity = 1:

       Center              X                  Y                   Z               Mass
    ------------   -----------------  -----------------  -----------------  -----------------
         N            0.819978463733    -0.267711769491    -0.038558557566    14.003074004430
         N            1.362425463733    -1.495062769491    -0.267637557566    14.003074004430
         N           -1.077903536267     1.018871230509    -0.454303557566    14.003074004430
         N           -1.264750536267    -1.211879769491     0.428548442434    14.003074004430
         C            1.763594463733     0.726421230509     0.133041442434    12.000000000000
         C            3.025139663733     0.169123030509     0.026062642434    12.000000000000
         C           -0.586471536267    -0.148203769491    -0.019028557566    12.000000000000
         C            1.457820463733     2.156017230509     0.437480442434    12.000000000000
         C            2.683269463733    -1.267968769491    -0.240496557566    12.000000000000
         C           -2.417206536267     1.124130230509    -0.432410557566    12.000000000000
         C           -2.600037536267    -1.086210769491     0.403055442434    12.000000000000
         C           -3.237583536267     0.078233230509    -0.021803557566    12.000000000000
         H            3.956740463733     0.546234230509     0.098744442434     1.007825032230
         H            1.017070463733     2.670017230509    -0.418643557566     1.007825032230
         H            0.758325463733     2.251638230509     1.272834442434     1.007825032230
         H            2.390309463733     2.655840230509     0.712844442434     1.007825032230
         H            3.360032463733    -2.095892769491    -0.410421557566     1.007825032230
         H           -2.826602536267     2.072831230509    -0.773880557566     1.007825032230
         H           -3.164557536267    -1.948804769491     0.751959442434     1.007825032230
         H           -4.318797536267     0.167165230509    -0.025361557566     1.007825032230

  Basis Set: AUG-CC-PVTZ
    Blend: AUG-CC-PVTZ
  Basis Set: (AUG-CC-PVTZ AUX)
    Blend: AUG-CC-PVTZ-JKFIT
	 Reference Energy          =    -525.5330107642063240 [Eh]
	 Singles Energy            =      -0.0000000000000000 [Eh]
	 Same-Spin Energy          =      -0.5764843076218600 [Eh]
	 Opposite-Spin Energy      =      -1.7385168588347693 [Eh]
	 Correlation Energy        =      -2.3150011664566295 [Eh]
	 Total Energy              =    -527.8480119306630058 [Eh]

	 ================> DF-SCS-MP2 Energies <==================
	-----------------------------------------------------------
	 SCS Same-Spin Scale       =       0.3333333333333333 [-]
	 SCS Opposite-Spin Scale   =       1.2000000000000000 [-]
	 SCS Same-Spin Energy      =      -0.1921614358739533 [Eh]
	 SCS Opposite-Spin Energy  =      -2.0862202306017230 [Eh]
	 SCS Correlation Energy    =      -2.2783816664756764 [Eh]
	 SCS Total Energy          =    -527.8113924306819627 [Eh]
	-----------------------------------------------------------

  Dipole Moment: [D]
     X:    -2.5115      Y:     2.4846      Z:     0.4194     Total:     3.5577

*** Psi4 exiting successfully. Buy a developer a beer!
