                               Psi4 1.3.2 release

  ==> Input File <==

--------------------------------------------------------------------------
#psi4
#
memory 32 gb

molecule  {
0 1
  N        0.8160970    -0.2990240    -0.0443680
  N        1.3585440    -1.5263750    -0.2734470
  N       -1.0817850     0.9875590    -0.4601130
  N       -1.2686320    -1.2431920     0.4227390
  C        1.7597130     0.6951090     0.1272320
  C        2.9786120     0.0532150     0.0016160
  C       -0.7146692    -0.1188800    -0.0471992
  C        1.4539390     2.1247050     0.4316710
  C        2.6793880    -1.2992810    -0.2463060
  C       -2.4210880     1.0928180    -0.4382200
  C       -2.6039190    -1.1175230     0.3972460
  C       -3.2414650     0.0469210    -0.0276130
  H        3.9528590     0.5149220     0.0929350
  H        1.0131890     2.6387050    -0.4244530
  H        0.7544440     2.2203260     1.2670250
  H        2.3864280     2.6245280     0.7070350
  H        3.3561510    -2.1272050    -0.4162310
  H       -2.8304840     2.0415190    -0.7796900
  H       -3.1684390    -1.9801170     0.7461500
  H       -4.3226790     0.1358530    -0.0311710
units angstrom
no_reorient  #important for SAPT in psi4, default
symmetry c1  #important for SAPT in psi4, default
}

set PROPERTIES_ORIGIN ["COM"]
properties('MP2/aug-cc-pvtz', properties = ['dipole'])
--------------------------------------------------------------------------

    Molecular point group: c1
  Charge       = 0
  Multiplicity = 1
  Basis Set: AUG-CC-PVTZ
    Blend: AUG-CC-PVTZ
  Basis Set: (AUG-CC-PVTZ AUX)
    Blend: AUG-CC-PVTZ-JKFIT

    Orbital Energies [Eh]
    ---------------------

    Doubly Occupied:

       1A    -15.626412     2A    -15.591847     3A    -15.589820
       4A    -15.569982     5A    -11.369055     6A    -11.324176
       7A    -11.319351     8A    -11.271722     9A    -11.264067
      10A    -11.240493    11A    -11.229576    12A    -11.204438
      13A     -1.379999    14A     -1.331298    15A     -1.238487
      16A     -1.113567    17A     -1.076330    18A     -1.036352
      19A     -0.950058    20A     -0.929367    21A     -0.892626
      22A     -0.787950    23A     -0.779251    24A     -0.727932
      25A     -0.708183    26A     -0.673826    27A     -0.637841
      28A     -0.635264    29A     -0.616228    30A     -0.590382
      31A     -0.577887    32A     -0.573466    33A     -0.554933
      34A     -0.546992    35A     -0.527255    36A     -0.490250
      37A     -0.457660    38A     -0.449036    39A     -0.431898
      40A     -0.406974    41A     -0.336199    42A     -0.320341

  @DF-RHF Final Energy:  -525.51983943945527

   => Energetics <=

    Nuclear Repulsion Energy =            658.3195112222473426
    One-Electron Energy =               -2018.9211641855927155
    Two-Electron Energy =                 835.0818135238899913
    Total Energy =                       -525.5198394394552679
  Basis Set: (AUG-CC-PVTZ AUX)
    Blend: AUG-CC-PVTZ-RI
    Molecular point group: c1

    Geometry (in Angstrom), charge = 0, multiplicity = 1:

       Center              X                  Y                   Z               Mass
    ------------   -----------------  -----------------  -----------------  -----------------
         N            0.832494784822    -0.265915625269    -0.035485116249    14.003074004430
         N            1.374941784822    -1.493266625269    -0.264564116249    14.003074004430
         N           -1.065387215178     1.020667374731    -0.451230116249    14.003074004430
         N           -1.252234215178    -1.210083625269     0.431621883751    14.003074004430
         C            1.776110784822     0.728217374731     0.136114883751    12.000000000000
         C            2.995009784822     0.086323374731     0.010498883751    12.000000000000
         C           -0.698271415178    -0.085771625269    -0.038316316249    12.000000000000
         C            1.470336784822     2.157813374731     0.440553883751    12.000000000000
         C            2.695785784822    -1.266172625269    -0.237423116249    12.000000000000
         C           -2.404690215178     1.125926374731    -0.429337116249    12.000000000000
         C           -2.587521215178    -1.084414625269     0.406128883751    12.000000000000
         C           -3.225067215178     0.080029374731    -0.018730116249    12.000000000000
         H            3.969256784822     0.548030374731     0.101817883751     1.007825032230
         H            1.029586784822     2.671813374731    -0.415570116249     1.007825032230
         H            0.770841784822     2.253434374731     1.275907883751     1.007825032230
         H            2.402825784822     2.657636374731     0.715917883751     1.007825032230
         H            3.372548784822    -2.094096625269    -0.407348116249     1.007825032230
         H           -2.814086215178     2.074627374731    -0.770807116249     1.007825032230
         H           -3.152041215178    -1.947008625269     0.755032883751     1.007825032230
         H           -4.306281215178     0.168961374731    -0.022288116249     1.007825032230

  Basis Set: AUG-CC-PVTZ
    Blend: AUG-CC-PVTZ
  Basis Set: (AUG-CC-PVTZ AUX)
    Blend: AUG-CC-PVTZ-JKFIT
	 Reference Energy          =    -525.5198394394552679 [Eh]
	 Singles Energy            =      -0.0000000000000000 [Eh]
	 Same-Spin Energy          =      -0.5778200541646259 [Eh]
	 Opposite-Spin Energy      =      -1.7392844759605879 [Eh]
	 Correlation Energy        =      -2.3171045301252136 [Eh]
	 Total Energy              =    -527.8369439695804886 [Eh]

	 ================> DF-SCS-MP2 Energies <==================
	-----------------------------------------------------------
	 SCS Same-Spin Scale       =       0.3333333333333333 [-]
	 SCS Opposite-Spin Scale   =       1.2000000000000000 [-]
	 SCS Same-Spin Energy      =      -0.1926066847215420 [Eh]
	 SCS Opposite-Spin Energy  =      -2.0871413711527054 [Eh]
	 SCS Correlation Energy    =      -2.2797480558742471 [Eh]
	 SCS Total Energy          =    -527.7995874953295470 [Eh]
	-----------------------------------------------------------

  Dipole Moment: [D]
     X:    -3.9411      Y:     2.6839      Z:     0.4137     Total:     4.7861

*** Psi4 exiting successfully. Buy a developer a beer!
