                               Psi4 1.3.2 release

  ==> Input File <==

--------------------------------------------------------------------------
#psi4
#
memory 32 gb

molecule  {
0 1
  N        0.8160970    -0.2990240    -0.0443680
  N        1.3585440    -1.5263750    -0.2734470
  N       -1.0817850     0.9875590    -0.4601130
  N       -1.2686320    -1.2431920     0.4227390
  C        1.7597130     0.6951090     0.1272320
  C        2.9786120     0.0532150     0.0016160
  C       -0.7896158    -0.1625844    -0.0220710
  C        1.4539390     2.1247050     0.4316710
  C        2.6793880    -1.2992810    -0.2463060
  C       -2.4210880     1.0928180    -0.4382200
  C       -2.6039190    -1.1175230     0.3972460
  C       -3.2414650     0.0469210    -0.0276130
  H        3.9528590     0.5149220     0.0929350
  H        1.0131890     2.6387050    -0.4244530
  H        0.7544440     2.2203260     1.2670250
  H        2.3864280     2.6245280     0.7070350
  H        3.3561510    -2.1272050    -0.4162310
  H       -2.8304840     2.0415190    -0.7796900
  H       -3.1684390    -1.9801170     0.7461500
  H       -4.3226790     0.1358530    -0.0311710
units angstrom
no_reorient  #important for SAPT in psi4, default
symmetry c1  #important for SAPT in psi4, default
}

set PROPERTIES_ORIGIN ["COM"]
properties('MP2/aug-cc-pvtz', properties = ['dipole'])
--------------------------------------------------------------------------

    Molecular point group: c1
  Charge       = 0
  Multiplicity = 1
  Basis Set: AUG-CC-PVTZ
    Blend: AUG-CC-PVTZ
  Basis Set: (AUG-CC-PVTZ AUX)
    Blend: AUG-CC-PVTZ-JKFIT

    Orbital Energies [Eh]
    ---------------------

    Doubly Occupied:

       1A    -15.615213     2A    -15.599375     3A    -15.596248
       4A    -15.562505     5A    -11.374422     6A    -11.330332
       7A    -11.329036     8A    -11.269446     9A    -11.264163
      10A    -11.232621    11A    -11.225563    12A    -11.197681
      13A     -1.387365    14A     -1.326562    15A     -1.262140
      16A     -1.111002    17A     -1.071178    18A     -1.028068
      19A     -0.944506    20A     -0.937101    21A     -0.896235
      22A     -0.781011    23A     -0.773555    24A     -0.732868
      25A     -0.710797    26A     -0.669091    27A     -0.641368
      28A     -0.638834    29A     -0.621252    30A     -0.589656
      31A     -0.575933    32A     -0.569646    33A     -0.547689
      34A     -0.540764    35A     -0.520964    36A     -0.481364
      37A     -0.470318    38A     -0.456966    39A     -0.429300
      40A     -0.412756    41A     -0.330511    42A     -0.313671

  @DF-RHF Final Energy:  -525.49999935792425

   => Energetics <=

    Nuclear Repulsion Energy =            658.2727637223396187
    One-Electron Energy =               -2018.8073759525348123
    Two-Electron Energy =                 835.0346128722710546
    Total Energy =                       -525.4999993579242528
  Basis Set: (AUG-CC-PVTZ AUX)
    Blend: AUG-CC-PVTZ-RI
    Molecular point group: c1

    Geometry (in Angstrom), charge = 0, multiplicity = 1:

       Center              X                  Y                   Z               Mass
    ------------   -----------------  -----------------  -----------------  -----------------
         N            0.838113149855    -0.262639328909    -0.037368849470    14.003074004430
         N            1.380560149855    -1.489990328909    -0.266447849470    14.003074004430
         N           -1.059768850145     1.023943671091    -0.453113849470    14.003074004430
         N           -1.246615850145    -1.206807328909     0.429738150530    14.003074004430
         C            1.781729149855     0.731493671091     0.134231150530    12.000000000000
         C            3.000628149855     0.089599671091     0.008615150530    12.000000000000
         C           -0.767599650145    -0.126199728909    -0.015071849470    12.000000000000
         C            1.475955149855     2.161089671091     0.438670150530    12.000000000000
         C            2.701404149855    -1.262896328909    -0.239306849470    12.000000000000
         C           -2.399071850145     1.129202671091    -0.431220849470    12.000000000000
         C           -2.581902850145    -1.081138328909     0.404245150530    12.000000000000
         C           -3.219448850145     0.083305671091    -0.020613849470    12.000000000000
         H            3.974875149855     0.551306671091     0.099934150530     1.007825032230
         H            1.035205149855     2.675089671091    -0.417453849470     1.007825032230
         H            0.776460149855     2.256710671091     1.274024150530     1.007825032230
         H            2.408444149855     2.660912671091     0.714034150530     1.007825032230
         H            3.378167149855    -2.090820328909    -0.409231849470     1.007825032230
         H           -2.808467850145     2.077903671091    -0.772690849470     1.007825032230
         H           -3.146422850145    -1.943732328909     0.753149150530     1.007825032230
         H           -4.300662850145     0.172237671091    -0.024171849470     1.007825032230

  Basis Set: AUG-CC-PVTZ
    Blend: AUG-CC-PVTZ
  Basis Set: (AUG-CC-PVTZ AUX)
    Blend: AUG-CC-PVTZ-JKFIT
	 Reference Energy          =    -525.4999993579242528 [Eh]
	 Singles Energy            =      -0.0000000000000000 [Eh]
	 Same-Spin Energy          =      -0.5789303497384757 [Eh]
	 Opposite-Spin Energy      =      -1.7405639711169418 [Eh]
	 Correlation Energy        =      -2.3194943208554175 [Eh]
	 Total Energy              =    -527.8194936787796223 [Eh]

	 ================> DF-SCS-MP2 Energies <==================
	-----------------------------------------------------------
	 SCS Same-Spin Scale       =       0.3333333333333333 [-]
	 SCS Opposite-Spin Scale   =       1.2000000000000000 [-]
	 SCS Same-Spin Energy      =      -0.1929767832461586 [Eh]
	 SCS Opposite-Spin Energy  =      -2.0886767653403302 [Eh]
	 SCS Correlation Energy    =      -2.2816535485864886 [Eh]
	 SCS Total Energy          =    -527.7816529065107716 [Eh]
	-----------------------------------------------------------

  Dipole Moment: [D]
     X:    -4.7275      Y:     2.6546      Z:     0.4643     Total:     5.4417

*** Psi4 exiting successfully. Buy a developer a beer!
