                               Psi4 1.4a3.dev225

  ==> Input File <==

--------------------------------------------------------------------------
#psi4
#
memory 32 gb

molecule  {
0 1
  N        0.8160970    -0.2990240    -0.0443680
  N        1.3585440    -1.5263750    -0.2734470
  N       -1.0817850     0.9875590    -0.4601130
  N       -1.2686320    -1.2431920     0.4227390
  C        1.7597130     0.6951090     0.1272320
  C        2.9786120     0.0532150     0.0016160
  C       -0.5903530    -0.1795160    -0.0248380
  C        1.4539390     2.1247050     0.4316710
  C        2.6793880    -1.2992810    -0.2463060
  C       -2.4210880     1.0928180    -0.4382200
  C       -2.6039190    -1.1175230     0.3972460
  C       -3.2414650     0.0469210    -0.0276130
  H        3.9528590     0.5149220     0.0929350
  H        1.0131890     2.6387050    -0.4244530
  H        0.7544440     2.2203260     1.2670250
  H        2.3864280     2.6245280     0.7070350
  H        3.3561510    -2.1272050    -0.4162310
  H       -2.8380081     2.0589547    -0.7859657
  H       -3.1684390    -1.9801170     0.7461500
  H       -4.3226790     0.1358530    -0.0311710
units angstrom
no_reorient  #important for SAPT in psi4, default
symmetry c1  #important for SAPT in psi4, default
}

set PROPERTIES_ORIGIN ["COM"]
properties('MP2/aug-cc-pvtz', properties = ['dipole'])
--------------------------------------------------------------------------

    Molecular point group: c1
  Charge       = 0
  Multiplicity = 1
  Basis Set: AUG-CC-PVTZ
    Blend: AUG-CC-PVTZ
  Basis Set: (AUG-CC-PVTZ AUX)
    Blend: AUG-CC-PVTZ-JKFIT

    Orbital Energies [Eh]
    ---------------------

    Doubly Occupied:

       1A    -15.642178     2A    -15.582604     3A    -15.581501
       4A    -15.578701     5A    -11.367546     6A    -11.313750
       7A    -11.309596     8A    -11.286782     9A    -11.254575
      10A    -11.252855    11A    -11.234727    12A    -11.217347
      13A     -1.386389    14A     -1.312621    15A     -1.206018
      16A     -1.129340    17A     -1.084239    18A     -1.044952
      19A     -0.958822    20A     -0.907801    21A     -0.896471
      22A     -0.799317    23A     -0.795055    24A     -0.712566
      25A     -0.707234    26A     -0.682409    27A     -0.638292
      28A     -0.632460    29A     -0.606162    30A     -0.589277
      31A     -0.585828    32A     -0.575086    33A     -0.564014
      34A     -0.552727    35A     -0.535941    36A     -0.491752
      37A     -0.455090    38A     -0.430590    39A     -0.420100
      40A     -0.407786    41A     -0.338114    42A     -0.332411

  @DF-RHF Final Energy:  -525.54296954405936

   => Energetics <=

    Nuclear Repulsion Energy =            658.1683291728962786
    One-Electron Energy =               -2018.6205439603040759
    Two-Electron Energy =                 834.9092452433483231
    Total Energy =                       -525.5429695440593605
  Basis Set: (AUG-CC-PVTZ AUX)
    Blend: AUG-CC-PVTZ-RI
    Molecular point group: c1

    Geometry (in Angstrom), charge = 0, multiplicity = 1:

       Center              X                  Y                   Z               Mass
    ------------   -----------------  -----------------  -----------------  -----------------
         N            0.823222803654    -0.261479827517    -0.037121910015    14.003074004430
         N            1.365669803654    -1.488830827517    -0.266200910015    14.003074004430
         N           -1.074659196346     1.025103172483    -0.452866910015    14.003074004430
         N           -1.261506196346    -1.205647827517     0.429985089985    14.003074004430
         C            1.766838803654     0.732653172483     0.134478089985    12.000000000000
         C            2.985737803654     0.090759172483     0.008862089985    12.000000000000
         C           -0.583227196346    -0.141971827517    -0.017591910015    12.000000000000
         C            1.461064803654     2.162249172483     0.438917089985    12.000000000000
         C            2.686513803654    -1.261736827517    -0.239059910015    12.000000000000
         C           -2.413962196346     1.130362172483    -0.430973910015    12.000000000000
         C           -2.596793196346    -1.079978827517     0.404492089985    12.000000000000
         C           -3.234339196346     0.084465172483    -0.020366910015    12.000000000000
         H            3.959984803654     0.552466172483     0.100181089985     1.007825032230
         H            1.020314803654     2.676249172483    -0.417206910015     1.007825032230
         H            0.761569803654     2.257870172483     1.274271089985     1.007825032230
         H            2.393553803654     2.662072172483     0.714281089985     1.007825032230
         H            3.363276803654    -2.089660827517    -0.408984910015     1.007825032230
         H           -2.830882296346     2.096498872483    -0.778719610015     1.007825032230
         H           -3.161313196346    -1.942572827517     0.753396089985     1.007825032230
         H           -4.315553196346     0.173397172483    -0.023924910015     1.007825032230

  Basis Set: AUG-CC-PVTZ
    Blend: AUG-CC-PVTZ
  Basis Set: (AUG-CC-PVTZ AUX)
    Blend: AUG-CC-PVTZ-JKFIT
	 Reference Energy          =    -525.5429695440593605 [Eh]
	 Singles Energy            =      -0.0000000000000000 [Eh]
	 Same-Spin Energy          =      -0.5776070294432815 [Eh]
	 Opposite-Spin Energy      =      -1.7387908290926737 [Eh]
	 Correlation Energy        =      -2.3163978585359550 [Eh]
	 Total Energy              =    -527.8593674025953533 [Eh]

	 ================> DF-SCS-MP2 Energies <==================
	-----------------------------------------------------------
	 SCS Same-Spin Scale       =       0.3333333333333333 [-]
	 SCS Opposite-Spin Scale   =       1.2000000000000000 [-]
	 SCS Same-Spin Energy      =      -0.1925356764810938 [Eh]
	 SCS Opposite-Spin Energy  =      -2.0865489949112082 [Eh]
	 SCS Correlation Energy    =      -2.2790846713923019 [Eh]
	 SCS Total Energy          =    -527.8220542154516579 [Eh]
	-----------------------------------------------------------

  Dipole Moment: [D]
     X:    -2.5727      Y:     2.5509      Z:     0.4413     Total:     3.6497

*** Psi4 exiting successfully. Buy a developer a beer!
