                               Psi4 1.3.2 release

  ==> Input File <==

--------------------------------------------------------------------------
#psi4
#
memory 32 gb

molecule  {
0 1
  N        0.8160970    -0.2990240    -0.0443680
  N        1.3585440    -1.5263750    -0.2734470
  N       -1.0817850     0.9875590    -0.4601130
  N       -1.2686320    -1.2431920     0.4227390
  C        1.7597130     0.6951090     0.1272320
  C        2.9786120     0.0532150     0.0016160
  C       -0.5903530    -0.1795160    -0.0248380
  C        1.4539390     2.1247050     0.4316710
  C        2.6581244    -1.3953927    -0.2639240
  C       -2.4210880     1.0928180    -0.4382200
  C       -2.6039190    -1.1175230     0.3972460
  C       -3.2414650     0.0469210    -0.0276130
  H        3.9528590     0.5149220     0.0929350
  H        1.0131890     2.6387050    -0.4244530
  H        0.7544440     2.2203260     1.2670250
  H        2.3864280     2.6245280     0.7070350
  H        3.3561510    -2.1272050    -0.4162310
  H       -2.8304840     2.0415190    -0.7796900
  H       -3.1684390    -1.9801170     0.7461500
  H       -4.3226790     0.1358530    -0.0311710
units angstrom
no_reorient  #important for SAPT in psi4, default
symmetry c1  #important for SAPT in psi4, default
}

set PROPERTIES_ORIGIN ["COM"]
properties('MP2/aug-cc-pvtz', properties = ['dipole'])
--------------------------------------------------------------------------

    Molecular point group: c1
  Charge       = 0
  Multiplicity = 1
  Basis Set: AUG-CC-PVTZ
    Blend: AUG-CC-PVTZ
  Basis Set: (AUG-CC-PVTZ AUX)
    Blend: AUG-CC-PVTZ-JKFIT

    Orbital Energies [Eh]
    ---------------------

    Doubly Occupied:

       1A    -15.639178     2A    -15.585403     3A    -15.581211
       4A    -15.577403     5A    -11.366945     6A    -11.310818
       7A    -11.308728     8A    -11.285099     9A    -11.258668
      10A    -11.251489    11A    -11.233864    12A    -11.222516
      13A     -1.385728    14A     -1.311980    15A     -1.205104
      16A     -1.134766    17A     -1.082498    18A     -1.039971
      19A     -0.952685    20A     -0.908782    21A     -0.895157
      22A     -0.809795    23A     -0.792214    24A     -0.714108
      25A     -0.705753    26A     -0.678406    27A     -0.642697
      28A     -0.633652    29A     -0.614235    30A     -0.595244
      31A     -0.585763    32A     -0.577231    33A     -0.558672
      34A     -0.552383    35A     -0.536534    36A     -0.490601
      37A     -0.444598    38A     -0.429661    39A     -0.417757
      40A     -0.406100    41A     -0.345225    42A     -0.326165

  @DF-RHF Final Energy:  -525.53655265946077

   => Energetics <=

    Nuclear Repulsion Energy =            657.2793385370313217
    One-Electron Energy =               -2016.8422096596862048
    Two-Electron Energy =                 834.0263184631942295
    Total Energy =                       -525.5365526594607672
  Basis Set: (AUG-CC-PVTZ AUX)
    Blend: AUG-CC-PVTZ-RI
    Molecular point group: c1

    Geometry (in Angstrom), charge = 0, multiplicity = 1:

       Center              X                  Y                   Z               Mass
    ------------   -----------------  -----------------  -----------------  -----------------
         N            0.824769456061    -0.254165048234    -0.035840689804    14.003074004430
         N            1.367216456061    -1.481516048234    -0.264919689804    14.003074004430
         N           -1.073112543939     1.032417951766    -0.451585689804    14.003074004430
         N           -1.259959543939    -1.198333048234     0.431266310196    14.003074004430
         C            1.768385456061     0.739967951766     0.135759310196    12.000000000000
         C            2.987284456061     0.098073951766     0.010143310196    12.000000000000
         C           -0.581680543939    -0.134657048234    -0.016310689804    12.000000000000
         C            1.462611456061     2.169563951766     0.440198310196    12.000000000000
         C            2.666796856061    -1.350533748234    -0.255396689804    12.000000000000
         C           -2.412415543939     1.137676951766    -0.429692689804    12.000000000000
         C           -2.595246543939    -1.072664048234     0.405773310196    12.000000000000
         C           -3.232792543939     0.091779951766    -0.019085689804    12.000000000000
         H            3.961531456061     0.559780951766     0.101462310196     1.007825032230
         H            1.021861456061     2.683563951766    -0.415925689804     1.007825032230
         H            0.763116456061     2.265184951766     1.275552310196     1.007825032230
         H            2.395100456061     2.669386951766     0.715562310196     1.007825032230
         H            3.364823456061    -2.082346048234    -0.407703689804     1.007825032230
         H           -2.821811543939     2.086377951766    -0.771162689804     1.007825032230
         H           -3.159766543939    -1.935258048234     0.754677310196     1.007825032230
         H           -4.314006543939     0.180711951766    -0.022643689804     1.007825032230

  Basis Set: AUG-CC-PVTZ
    Blend: AUG-CC-PVTZ
  Basis Set: (AUG-CC-PVTZ AUX)
    Blend: AUG-CC-PVTZ-JKFIT
	 Reference Energy          =    -525.5365526594607672 [Eh]
	 Singles Energy            =      -0.0000000000000000 [Eh]
	 Same-Spin Energy          =      -0.5755545712030929 [Eh]
	 Opposite-Spin Energy      =      -1.7367114798657959 [Eh]
	 Correlation Energy        =      -2.3122660510688888 [Eh]
	 Total Energy              =    -527.8488187105297129 [Eh]

	 ================> DF-SCS-MP2 Energies <==================
	-----------------------------------------------------------
	 SCS Same-Spin Scale       =       0.3333333333333333 [-]
	 SCS Opposite-Spin Scale   =       1.2000000000000000 [-]
	 SCS Same-Spin Energy      =      -0.1918515237343643 [Eh]
	 SCS Opposite-Spin Energy  =      -2.0840537758389548 [Eh]
	 SCS Correlation Energy    =      -2.2759052995733189 [Eh]
	 SCS Total Energy          =    -527.8124579590340772 [Eh]
	-----------------------------------------------------------

  Dipole Moment: [D]
     X:    -2.4447      Y:     2.3790      Z:     0.4056     Total:     3.4352

*** Psi4 exiting successfully. Buy a developer a beer!
