                               Psi4 1.3.2 release

  ==> Input File <==

--------------------------------------------------------------------------
#psi4
#
memory 32 gb

molecule  {
0 1
  N        0.8160970    -0.2990240    -0.0443680
  N        1.3585440    -1.5263750    -0.2734470
  N       -1.0817850     0.9875590    -0.4601130
  N       -1.2686320    -1.2431920     0.4227390
  C        1.7597130     0.6951090     0.1272320
  C        2.9786120     0.0532150     0.0016160
  C       -0.5472299    -0.1635243    -0.0331566
  C        1.4539390     2.1247050     0.4316710
  C        2.6793880    -1.2992810    -0.2463060
  C       -2.4210880     1.0928180    -0.4382200
  C       -2.6039190    -1.1175230     0.3972460
  C       -3.2414650     0.0469210    -0.0276130
  H        3.9528590     0.5149220     0.0929350
  H        1.0131890     2.6387050    -0.4244530
  H        0.7544440     2.2203260     1.2670250
  H        2.3864280     2.6245280     0.7070350
  H        3.3561510    -2.1272050    -0.4162310
  H       -2.8304840     2.0415190    -0.7796900
  H       -3.1684390    -1.9801170     0.7461500
  H       -4.3226790     0.1358530    -0.0311710
units angstrom
no_reorient  #important for SAPT in psi4, default
symmetry c1  #important for SAPT in psi4, default
}

set PROPERTIES_ORIGIN ["COM"]
properties('MP2/aug-cc-pvtz', properties = ['dipole'])
--------------------------------------------------------------------------

    Molecular point group: c1
  Charge       = 0
  Multiplicity = 1
  Basis Set: AUG-CC-PVTZ
    Blend: AUG-CC-PVTZ
  Basis Set: (AUG-CC-PVTZ AUX)
    Blend: AUG-CC-PVTZ-JKFIT

    Orbital Energies [Eh]
    ---------------------

    Doubly Occupied:

       1A    -15.646158     2A    -15.585639     3A    -15.578589
       4A    -15.576243     5A    -11.367532     6A    -11.308269
       7A    -11.305015     8A    -11.291071     9A    -11.259577
      10A    -11.248935    11A    -11.236895    12A    -11.221553
      13A     -1.394167    14A     -1.304456    15A     -1.195451
      16A     -1.138181    17A     -1.087449    18A     -1.045005
      19A     -0.962162    20A     -0.903671    21A     -0.897874
      22A     -0.805244    23A     -0.798942    24A     -0.712401
      25A     -0.704150    26A     -0.683933    27A     -0.641647
      28A     -0.633176    29A     -0.606166    30A     -0.594727
      31A     -0.586158    32A     -0.573326    33A     -0.567010
      34A     -0.552870    35A     -0.538853    36A     -0.488876
      37A     -0.458025    38A     -0.425960    39A     -0.411412
      40A     -0.409384    41A     -0.336941    42A     -0.335400

  @DF-RHF Final Energy:  -525.54014861268365

   => Energetics <=

    Nuclear Repulsion Energy =            658.3866034731205445
    One-Electron Energy =               -2019.0165200983192335
    Two-Electron Energy =                 835.0897680125151510
    Total Energy =                       -525.5401486126836517
  Basis Set: (AUG-CC-PVTZ AUX)
    Blend: AUG-CC-PVTZ-RI
    Molecular point group: c1

    Geometry (in Angstrom), charge = 0, multiplicity = 1:

       Center              X                  Y                   Z               Mass
    ------------   -----------------  -----------------  -----------------  -----------------
         N            0.819942712968    -0.262568869391    -0.036537818477    14.003074004430
         N            1.362389712968    -1.489919869391    -0.265616818477    14.003074004430
         N           -1.077939287032     1.024014130609    -0.452282818477    14.003074004430
         N           -1.264786287032    -1.206736869391     0.430569181523    14.003074004430
         C            1.763558712968     0.731564130609     0.135062181523    12.000000000000
         C            2.982457712968     0.089670130609     0.009446181523    12.000000000000
         C           -0.543384187032    -0.127069169391    -0.025326418477    12.000000000000
         C            1.457784712968     2.161160130609     0.439501181523    12.000000000000
         C            2.683233712968    -1.262825869391    -0.238475818477    12.000000000000
         C           -2.417242287032     1.129273130609    -0.430389818477    12.000000000000
         C           -2.600073287032    -1.081067869391     0.405076181523    12.000000000000
         C           -3.237619287032     0.083376130609    -0.019782818477    12.000000000000
         H            3.956704712968     0.551377130609     0.100765181523     1.007825032230
         H            1.017034712968     2.675160130609    -0.416622818477     1.007825032230
         H            0.758289712968     2.256781130609     1.274855181523     1.007825032230
         H            2.390273712968     2.660983130609     0.714865181523     1.007825032230
         H            3.359996712968    -2.090749869391    -0.408400818477     1.007825032230
         H           -2.826638287032     2.077974130609    -0.771859818477     1.007825032230
         H           -3.164593287032    -1.943661869391     0.753980181523     1.007825032230
         H           -4.318833287032     0.172308130609    -0.023340818477     1.007825032230

  Basis Set: AUG-CC-PVTZ
    Blend: AUG-CC-PVTZ
  Basis Set: (AUG-CC-PVTZ AUX)
    Blend: AUG-CC-PVTZ-JKFIT
	 Reference Energy          =    -525.5401486126836517 [Eh]
	 Singles Energy            =      -0.0000000000000000 [Eh]
	 Same-Spin Energy          =      -0.5777567121793672 [Eh]
	 Opposite-Spin Energy      =      -1.7391642990743605 [Eh]
	 Correlation Energy        =      -2.3169210112537275 [Eh]
	 Total Energy              =    -527.8570696239373774 [Eh]

	 ================> DF-SCS-MP2 Energies <==================
	-----------------------------------------------------------
	 SCS Same-Spin Scale       =       0.3333333333333333 [-]
	 SCS Opposite-Spin Scale   =       1.2000000000000000 [-]
	 SCS Same-Spin Energy      =      -0.1925855707264557 [Eh]
	 SCS Opposite-Spin Energy  =      -2.0869971588892327 [Eh]
	 SCS Correlation Energy    =      -2.2795827296156883 [Eh]
	 SCS Total Energy          =    -527.8197313422992920 [Eh]
	-----------------------------------------------------------

  Dipole Moment: [D]
     X:    -2.1193      Y:     2.5514      Z:     0.4228     Total:     3.3436

*** Psi4 exiting successfully. Buy a developer a beer!
