                               Psi4 1.3.2 release

  ==> Input File <==

--------------------------------------------------------------------------
#psi4
#
memory 32 gb

molecule  {
0 1
  N        0.8160970    -0.2990240    -0.0443680
  N        1.3585440    -1.5263750    -0.2734470
  N       -1.0380591     1.0021635    -0.4678127
  N       -1.2686320    -1.2431920     0.4227390
  C        1.7597130     0.6951090     0.1272320
  C        2.9786120     0.0532150     0.0016160
  C       -0.5903530    -0.1795160    -0.0248380
  C        1.4539390     2.1247050     0.4316710
  C        2.6793880    -1.2992810    -0.2463060
  C       -2.4210880     1.0928180    -0.4382200
  C       -2.6039190    -1.1175230     0.3972460
  C       -3.2414650     0.0469210    -0.0276130
  H        3.9528590     0.5149220     0.0929350
  H        1.0131890     2.6387050    -0.4244530
  H        0.7544440     2.2203260     1.2670250
  H        2.3864280     2.6245280     0.7070350
  H        3.3561510    -2.1272050    -0.4162310
  H       -2.8304840     2.0415190    -0.7796900
  H       -3.1684390    -1.9801170     0.7461500
  H       -4.3226790     0.1358530    -0.0311710
units angstrom
no_reorient  #important for SAPT in psi4, default
symmetry c1  #important for SAPT in psi4, default
}

set PROPERTIES_ORIGIN ["COM"]
properties('MP2/aug-cc-pvtz', properties = ['dipole'])
--------------------------------------------------------------------------

    Molecular point group: c1
  Charge       = 0
  Multiplicity = 1
  Basis Set: AUG-CC-PVTZ
    Blend: AUG-CC-PVTZ
  Basis Set: (AUG-CC-PVTZ AUX)
    Blend: AUG-CC-PVTZ-JKFIT

    Orbital Energies [Eh]
    ---------------------

    Doubly Occupied:

       1A    -15.639873     2A    -15.587333     3A    -15.580113
       4A    -15.579905     5A    -11.366801     6A    -11.317001
       7A    -11.312788     8A    -11.285397     9A    -11.255353
      10A    -11.253209    11A    -11.233346    12A    -11.216130
      13A     -1.385141    14A     -1.307908    15A     -1.202250
      16A     -1.127521    17A     -1.083461    18A     -1.045611
      19A     -0.957520    20A     -0.911442    21A     -0.892613
      22A     -0.798276    23A     -0.792777    24A     -0.710045
      25A     -0.706643    26A     -0.681897    27A     -0.637035
      28A     -0.634085    29A     -0.605922    30A     -0.587890
      31A     -0.584705    32A     -0.572801    33A     -0.562790
      34A     -0.550695    35A     -0.534878    36A     -0.492674
      37A     -0.454824    38A     -0.427995    39A     -0.424032
      40A     -0.408413    41A     -0.338548    42A     -0.331174

  @DF-RHF Final Energy:  -525.53892739352693

   => Energetics <=

    Nuclear Repulsion Energy =            657.8565799051588101
    One-Electron Energy =               -2018.0333825550712845
    Two-Electron Energy =                 834.6378752563856551
    Total Energy =                       -525.5389273935269330
  Basis Set: (AUG-CC-PVTZ AUX)
    Blend: AUG-CC-PVTZ-RI
    Molecular point group: c1

    Geometry (in Angstrom), charge = 0, multiplicity = 1:

       Center              X                  Y                   Z               Mass
    ------------   -----------------  -----------------  -----------------  -----------------
         N            0.819350366412    -0.262647629363    -0.036487865179    14.003074004430
         N            1.361797366412    -1.489998629363    -0.265566865179    14.003074004430
         N           -1.034805733588     1.038539870637    -0.459932565179    14.003074004430
         N           -1.265378633588    -1.206815629363     0.430619134821    14.003074004430
         C            1.762966366412     0.731485370637     0.135112134821    12.000000000000
         C            2.981865366412     0.089591370637     0.009496134821    12.000000000000
         C           -0.587099633588    -0.143139629363    -0.016957865179    12.000000000000
         C            1.457192366412     2.161081370637     0.439551134821    12.000000000000
         C            2.682641366412    -1.262904629363    -0.238425865179    12.000000000000
         C           -2.417834633588     1.129194370637    -0.430339865179    12.000000000000
         C           -2.600665633588    -1.081146629363     0.405126134821    12.000000000000
         C           -3.238211633588     0.083297370637    -0.019732865179    12.000000000000
         H            3.956112366412     0.551298370637     0.100815134821     1.007825032230
         H            1.016442366412     2.675081370637    -0.416572865179     1.007825032230
         H            0.757697366412     2.256702370637     1.274905134821     1.007825032230
         H            2.389681366412     2.660904370637     0.714915134821     1.007825032230
         H            3.359404366412    -2.090828629363    -0.408350865179     1.007825032230
         H           -2.827230633588     2.077895370637    -0.771809865179     1.007825032230
         H           -3.165185633588    -1.943740629363     0.754030134821     1.007825032230
         H           -4.319425633588     0.172229370637    -0.023290865179     1.007825032230

  Basis Set: AUG-CC-PVTZ
    Blend: AUG-CC-PVTZ
  Basis Set: (AUG-CC-PVTZ AUX)
    Blend: AUG-CC-PVTZ-JKFIT
	 Reference Energy          =    -525.5389273935269330 [Eh]
	 Singles Energy            =      -0.0000000000000000 [Eh]
	 Same-Spin Energy          =      -0.5780176130906385 [Eh]
	 Opposite-Spin Energy      =      -1.7402447286754437 [Eh]
	 Correlation Energy        =      -2.3182623417660819 [Eh]
	 Total Energy              =    -527.8571897352929909 [Eh]

	 ================> DF-SCS-MP2 Energies <==================
	-----------------------------------------------------------
	 SCS Same-Spin Scale       =       0.3333333333333333 [-]
	 SCS Opposite-Spin Scale   =       1.2000000000000000 [-]
	 SCS Same-Spin Energy      =      -0.1926725376968795 [Eh]
	 SCS Opposite-Spin Energy  =      -2.0882936744105325 [Eh]
	 SCS Correlation Energy    =      -2.2809662121074119 [Eh]
	 SCS Total Energy          =    -527.8198936056343200 [Eh]
	-----------------------------------------------------------

  Dipole Moment: [D]
     X:    -2.7257      Y:     2.5141      Z:     0.4588     Total:     3.7364

*** Psi4 exiting successfully. Buy a developer a beer!
