                               Psi4 1.3.2 release

  ==> Input File <==

--------------------------------------------------------------------------
#psi4
#
memory 32 gb

molecule  {
0 1
  N        0.8886922    -0.3606342    -0.0595491
  N        1.3585440    -1.5263750    -0.2734470
  N       -1.0817850     0.9875590    -0.4601130
  N       -1.2686320    -1.2431920     0.4227390
  C        1.7597130     0.6951090     0.1272320
  C        2.9786120     0.0532150     0.0016160
  C       -0.5903530    -0.1795160    -0.0248380
  C        1.4539390     2.1247050     0.4316710
  C        2.6793880    -1.2992810    -0.2463060
  C       -2.4210880     1.0928180    -0.4382200
  C       -2.6039190    -1.1175230     0.3972460
  C       -3.2414650     0.0469210    -0.0276130
  H        3.9528590     0.5149220     0.0929350
  H        1.0131890     2.6387050    -0.4244530
  H        0.7544440     2.2203260     1.2670250
  H        2.3864280     2.6245280     0.7070350
  H        3.3561510    -2.1272050    -0.4162310
  H       -2.8304840     2.0415190    -0.7796900
  H       -3.1684390    -1.9801170     0.7461500
  H       -4.3226790     0.1358530    -0.0311710
units angstrom
no_reorient  #important for SAPT in psi4, default
symmetry c1  #important for SAPT in psi4, default
}

set PROPERTIES_ORIGIN ["COM"]
properties('MP2/aug-cc-pvtz', properties = ['dipole'])
--------------------------------------------------------------------------

    Molecular point group: c1
  Charge       = 0
  Multiplicity = 1
  Basis Set: AUG-CC-PVTZ
    Blend: AUG-CC-PVTZ
  Basis Set: (AUG-CC-PVTZ AUX)
    Blend: AUG-CC-PVTZ-JKFIT

    Orbital Energies [Eh]
    ---------------------

    Doubly Occupied:

       1A    -15.648984     2A    -15.589222     3A    -15.583947
       4A    -15.578547     5A    -11.373186     6A    -11.315688
       7A    -11.312880     8A    -11.276091     9A    -11.257667
      10A    -11.242509    11A    -11.235196    12A    -11.213316
      13A     -1.411714    14A     -1.322351    15A     -1.209745
      16A     -1.117980    17A     -1.089105    18A     -1.044075
      19A     -0.960700    20A     -0.911278    21A     -0.893346
      22A     -0.805625    23A     -0.789031    24A     -0.714677
      25A     -0.710744    26A     -0.684883    27A     -0.643693
      28A     -0.634018    29A     -0.608097    30A     -0.589405
      31A     -0.580282    32A     -0.576167    33A     -0.566190
      34A     -0.560138    35A     -0.532224    36A     -0.491882
      37A     -0.458711    38A     -0.433810    39A     -0.424672
      40A     -0.402136    41A     -0.341111    42A     -0.325903

  @DF-RHF Final Energy:  -525.53036693028628

   => Energetics <=

    Nuclear Repulsion Energy =            658.3311591564989840
    One-Electron Energy =               -2018.8011965733799116
    Two-Electron Energy =                 834.9396704865947640
    Total Energy =                       -525.5303669302862772
  Basis Set: (AUG-CC-PVTZ AUX)
    Blend: AUG-CC-PVTZ-RI
    Molecular point group: c1

    Geometry (in Angstrom), charge = 0, multiplicity = 1:

       Center              X                  Y                   Z               Mass
    ------------   -----------------  -----------------  -----------------  -----------------
         N            0.889420130170    -0.317590699731    -0.051014505297    14.003074004430
         N            1.359271930170    -1.483331499731    -0.264912405297    14.003074004430
         N           -1.081057069830     1.030602500269    -0.451578405297    14.003074004430
         N           -1.267904069830    -1.200148499731     0.431273594703    14.003074004430
         C            1.760440930170     0.738152500269     0.135766594703    12.000000000000
         C            2.979339930170     0.096258500269     0.010150594703    12.000000000000
         C           -0.589625069830    -0.136472499731    -0.016303405297    12.000000000000
         C            1.454666930170     2.167748500269     0.440205594703    12.000000000000
         C            2.680115930170    -1.256237499731    -0.237771405297    12.000000000000
         C           -2.420360069830     1.135861500269    -0.429685405297    12.000000000000
         C           -2.603191069830    -1.074479499731     0.405780594703    12.000000000000
         C           -3.240737069830     0.089964500269    -0.019078405297    12.000000000000
         H            3.953586930170     0.557965500269     0.101469594703     1.007825032230
         H            1.013916930170     2.681748500269    -0.415918405297     1.007825032230
         H            0.755171930170     2.263369500269     1.275559594703     1.007825032230
         H            2.387155930170     2.667571500269     0.715569594703     1.007825032230
         H            3.356878930170    -2.084161499731    -0.407696405297     1.007825032230
         H           -2.829756069830     2.084562500269    -0.771155405297     1.007825032230
         H           -3.167711069830    -1.937073499731     0.754684594703     1.007825032230
         H           -4.321951069830     0.178896500269    -0.022636405297     1.007825032230

  Basis Set: AUG-CC-PVTZ
    Blend: AUG-CC-PVTZ
  Basis Set: (AUG-CC-PVTZ AUX)
    Blend: AUG-CC-PVTZ-JKFIT
	 Reference Energy          =    -525.5303669302862772 [Eh]
	 Singles Energy            =      -0.0000000000000000 [Eh]
	 Same-Spin Energy          =      -0.5788782134877690 [Eh]
	 Opposite-Spin Energy      =      -1.7390832939669201 [Eh]
	 Correlation Energy        =      -2.3179615074546893 [Eh]
	 Total Energy              =    -527.8483284377409746 [Eh]

	 ================> DF-SCS-MP2 Energies <==================
	-----------------------------------------------------------
	 SCS Same-Spin Scale       =       0.3333333333333333 [-]
	 SCS Opposite-Spin Scale   =       1.2000000000000000 [-]
	 SCS Same-Spin Energy      =      -0.1929594044959230 [Eh]
	 SCS Opposite-Spin Energy  =      -2.0868999527603038 [Eh]
	 SCS Correlation Energy    =      -2.2798593572562269 [Eh]
	 SCS Total Energy          =    -527.8102262875424913 [Eh]
	-----------------------------------------------------------

  Dipole Moment: [D]
     X:    -3.0953      Y:     2.6399      Z:     0.4468     Total:     4.0927

*** Psi4 exiting successfully. Buy a developer a beer!
