                               Psi4 1.3.2 release

  ==> Input File <==

--------------------------------------------------------------------------
#psi4
#
memory 32 gb

molecule  {
0 1
  N        0.8160970    -0.2990240    -0.0443680
  N        1.3585440    -1.5263750    -0.2734470
  N       -1.0817850     0.9875590    -0.4601130
  N       -1.2686320    -1.2431920     0.4227390
  C        1.7222133     0.7113086     0.0313398
  C        2.9786120     0.0532150     0.0016160
  C       -0.5903530    -0.1795160    -0.0248380
  C        1.4539390     2.1247050     0.4316710
  C        2.6793880    -1.2992810    -0.2463060
  C       -2.4210880     1.0928180    -0.4382200
  C       -2.6039190    -1.1175230     0.3972460
  C       -3.2414650     0.0469210    -0.0276130
  H        3.9528590     0.5149220     0.0929350
  H        1.0131890     2.6387050    -0.4244530
  H        0.7544440     2.2203260     1.2670250
  H        2.3864280     2.6245280     0.7070350
  H        3.3561510    -2.1272050    -0.4162310
  H       -2.8304840     2.0415190    -0.7796900
  H       -3.1684390    -1.9801170     0.7461500
  H       -4.3226790     0.1358530    -0.0311710
units angstrom
no_reorient  #important for SAPT in psi4, default
symmetry c1  #important for SAPT in psi4, default
}

set PROPERTIES_ORIGIN ["COM"]
properties('MP2/aug-cc-pvtz', properties = ['dipole'])
--------------------------------------------------------------------------

    Molecular point group: c1
  Charge       = 0
  Multiplicity = 1
  Basis Set: AUG-CC-PVTZ
    Blend: AUG-CC-PVTZ
  Basis Set: (AUG-CC-PVTZ AUX)
    Blend: AUG-CC-PVTZ-JKFIT

    Orbital Energies [Eh]
    ---------------------

    Doubly Occupied:

       1A    -15.646063     2A    -15.583535     3A    -15.579565
       4A    -15.579247     5A    -11.368261     6A    -11.312457
       7A    -11.310309     8A    -11.288965     9A    -11.254427
      10A    -11.253454    11A    -11.235098    12A    -11.218955
      13A     -1.390151    14A     -1.313611    15A     -1.207136
      16A     -1.131997    17A     -1.082813    18A     -1.043984
      19A     -0.957531    20A     -0.909862    21A     -0.898697
      22A     -0.799392    23A     -0.797828    24A     -0.712799
      25A     -0.706647    26A     -0.681595    27A     -0.641841
      28A     -0.633065    29A     -0.607567    30A     -0.589033
      31A     -0.586631    32A     -0.577462    33A     -0.570087
      34A     -0.552275    35A     -0.526558    36A     -0.492216
      37A     -0.454838    38A     -0.431406    39A     -0.421057
      40A     -0.408274    41A     -0.340341    42A     -0.326106

  @DF-RHF Final Energy:  -525.53837934417413

   => Energetics <=

    Nuclear Repulsion Energy =            658.5121853908505045
    One-Electron Energy =               -2019.2548588207703233
    Two-Electron Energy =                 835.2042940857455733
    Total Energy =                       -525.5383793441741318
  Basis Set: (AUG-CC-PVTZ AUX)
    Blend: AUG-CC-PVTZ-RI
    Molecular point group: c1

    Geometry (in Angstrom), charge = 0, multiplicity = 1:

       Center              X                  Y                   Z               Mass
    ------------   -----------------  -----------------  -----------------  -----------------
         N            0.825986593817    -0.262584454596    -0.029972871540    14.003074004430
         N            1.368433593817    -1.489935454596    -0.259051871540    14.003074004430
         N           -1.071895406183     1.023998545404    -0.445717871540    14.003074004430
         N           -1.258742406183    -1.206752454596     0.437134128460    14.003074004430
         C            1.732102893817     0.747748145404     0.045734928460    12.000000000000
         C            2.988501593817     0.089654545404     0.016011128460    12.000000000000
         C           -0.580463406183    -0.143076454596    -0.010442871540    12.000000000000
         C            1.463828593817     2.161144545404     0.446066128460    12.000000000000
         C            2.689277593817    -1.262841454596    -0.231910871540    12.000000000000
         C           -2.411198406183     1.129257545404    -0.423824871540    12.000000000000
         C           -2.594029406183    -1.081083454596     0.411641128460    12.000000000000
         C           -3.231575406183     0.083360545404    -0.013217871540    12.000000000000
         H            3.962748593817     0.551361545404     0.107330128460     1.007825032230
         H            1.023078593817     2.675144545404    -0.410057871540     1.007825032230
         H            0.764333593817     2.256765545404     1.281420128460     1.007825032230
         H            2.396317593817     2.660967545404     0.721430128460     1.007825032230
         H            3.366040593817    -2.090765454596    -0.401835871540     1.007825032230
         H           -2.820594406183     2.077958545404    -0.765294871540     1.007825032230
         H           -3.158549406183    -1.943677454596     0.760545128460     1.007825032230
         H           -4.312789406183     0.172292545404    -0.016775871540     1.007825032230

  Basis Set: AUG-CC-PVTZ
    Blend: AUG-CC-PVTZ
  Basis Set: (AUG-CC-PVTZ AUX)
    Blend: AUG-CC-PVTZ-JKFIT
	 Reference Energy          =    -525.5383793441741318 [Eh]
	 Singles Energy            =      -0.0000000000000000 [Eh]
	 Same-Spin Energy          =      -0.5780994684842747 [Eh]
	 Opposite-Spin Energy      =      -1.7393863872712780 [Eh]
	 Correlation Energy        =      -2.3174858557555527 [Eh]
	 Total Energy              =    -527.8558651999296671 [Eh]

	 ================> DF-SCS-MP2 Energies <==================
	-----------------------------------------------------------
	 SCS Same-Spin Scale       =       0.3333333333333333 [-]
	 SCS Opposite-Spin Scale   =       1.2000000000000000 [-]
	 SCS Same-Spin Energy      =      -0.1926998228280916 [Eh]
	 SCS Opposite-Spin Energy  =      -2.0872636647255334 [Eh]
	 SCS Correlation Energy    =      -2.2799634875536250 [Eh]
	 SCS Total Energy          =    -527.8183428317277048 [Eh]
	-----------------------------------------------------------

  Dipole Moment: [D]
     X:    -2.6538      Y:     2.5160      Z:     0.4756     Total:     3.6877

*** Psi4 exiting successfully. Buy a developer a beer!
