                               Psi4 1.4a3.dev225

  ==> Input File <==

--------------------------------------------------------------------------
#psi4
#
memory 32 gb

molecule  {
0 1
  N        0.8160970    -0.2990240    -0.0443680
  N        1.3585440    -1.5263750    -0.2734470
  N       -1.0817850     0.9875590    -0.4601130
  N       -1.2686320    -1.2431920     0.4227390
  C        1.7597130     0.6951090     0.1272320
  C        2.9786120     0.0532150     0.0016160
  C       -0.5903530    -0.1795160    -0.0248380
  C        1.4539390     2.1247050     0.4316710
  C        2.6793880    -1.2992810    -0.2463060
  C       -2.4210880     1.0928180    -0.4382200
  C       -2.6039190    -1.1175230     0.3972460
  C       -3.2414650     0.0469210    -0.0276130
  H        3.9528590     0.5149220     0.0929350
  H        1.0131890     2.6387050    -0.4244530
  H        0.7544440     2.2203260     1.2670250
  H        2.3864280     2.6245280     0.7070350
  H        3.3248989    -2.0889724    -0.4083841
  H       -2.8304840     2.0415190    -0.7796900
  H       -3.1684390    -1.9801170     0.7461500
  H       -4.3226790     0.1358530    -0.0311710
units angstrom
no_reorient  #important for SAPT in psi4, default
symmetry c1  #important for SAPT in psi4, default
}

set PROPERTIES_ORIGIN ["COM"]
properties('MP2/aug-cc-pvtz', properties = ['dipole'])
--------------------------------------------------------------------------

    Molecular point group: c1
  Charge       = 0
  Multiplicity = 1
  Basis Set: AUG-CC-PVTZ
    Blend: AUG-CC-PVTZ
  Basis Set: (AUG-CC-PVTZ AUX)
    Blend: AUG-CC-PVTZ-JKFIT

    Orbital Energies [Eh]
    ---------------------

    Doubly Occupied:

       1A    -15.641913     2A    -15.582338     3A    -15.581257
       4A    -15.578585     5A    -11.367275     6A    -11.311459
       7A    -11.309423     8A    -11.286456     9A    -11.252629
      10A    -11.248832    11A    -11.234542    12A    -11.216898
      13A     -1.386113    14A     -1.312440    15A     -1.205958
      16A     -1.129791    17A     -1.084019    18A     -1.045413
      19A     -0.958570    20A     -0.909067    21A     -0.897991
      22A     -0.805623    23A     -0.795164    24A     -0.713559
      25A     -0.707283    26A     -0.683523    27A     -0.638969
      28A     -0.634440    29A     -0.608399    30A     -0.591118
      31A     -0.587509    32A     -0.576318    33A     -0.563779
      34A     -0.552517    35A     -0.537616    36A     -0.491575
      37A     -0.455271    38A     -0.430442    39A     -0.420165
      40A     -0.407596    41A     -0.337942    42A     -0.332132

  @DF-RHF Final Energy:  -525.54274928207144

   => Energetics <=

    Nuclear Repulsion Energy =            658.5556465779487780
    One-Electron Energy =               -2019.3729721414104006
    Two-Electron Energy =                 835.2745762813900683
    Total Energy =                       -525.5427492820714406
  Basis Set: (AUG-CC-PVTZ AUX)
    Blend: AUG-CC-PVTZ-RI
    Molecular point group: c1

    Geometry (in Angstrom), charge = 0, multiplicity = 1:

       Center              X                  Y                   Z               Mass
    ------------   -----------------  -----------------  -----------------  -----------------
         N            0.823372194176    -0.261610763953    -0.037210825330    14.003074004430
         N            1.365819194176    -1.488961763953    -0.266289825330    14.003074004430
         N           -1.074509805824     1.024972236047    -0.452955825330    14.003074004430
         N           -1.261356805824    -1.205778763953     0.429896174670    14.003074004430
         C            1.766988194176     0.732522236047     0.134389174670    12.000000000000
         C            2.985887194176     0.090628236047     0.008773174670    12.000000000000
         C           -0.583077805824    -0.142102763953    -0.017680825330    12.000000000000
         C            1.461214194176     2.162118236047     0.438828174670    12.000000000000
         C            2.686663194176    -1.261867763953    -0.239148825330    12.000000000000
         C           -2.413812805824     1.130231236047    -0.431062825330    12.000000000000
         C           -2.596643805824    -1.080109763953     0.404403174670    12.000000000000
         C           -3.234189805824     0.084334236047    -0.020455825330    12.000000000000
         H            3.960134194176     0.552335236047     0.100092174670     1.007825032230
         H            1.020464194176     2.676118236047    -0.417295825330     1.007825032230
         H            0.761719194176     2.257739236047     1.274182174670     1.007825032230
         H            2.393703194176     2.661941236047     0.714192174670     1.007825032230
         H            3.332174094176    -2.051559163953    -0.401226925330     1.007825032230
         H           -2.823208805824     2.078932236047    -0.772532825330     1.007825032230
         H           -3.161163805824    -1.942703763953     0.753307174670     1.007825032230
         H           -4.315403805824     0.173266236047    -0.024013825330     1.007825032230

  Basis Set: AUG-CC-PVTZ
    Blend: AUG-CC-PVTZ
  Basis Set: (AUG-CC-PVTZ AUX)
    Blend: AUG-CC-PVTZ-JKFIT
	 Reference Energy          =    -525.5427492820714406 [Eh]
	 Singles Energy            =      -0.0000000000000000 [Eh]
	 Same-Spin Energy          =      -0.5774875348464443 [Eh]
	 Opposite-Spin Energy      =      -1.7383635793181704 [Eh]
	 Correlation Energy        =      -2.3158511141646150 [Eh]
	 Total Energy              =    -527.8586003962360564 [Eh]

	 ================> DF-SCS-MP2 Energies <==================
	-----------------------------------------------------------
	 SCS Same-Spin Scale       =       0.3333333333333333 [-]
	 SCS Opposite-Spin Scale   =       1.2000000000000000 [-]
	 SCS Same-Spin Energy      =      -0.1924958449488148 [Eh]
	 SCS Opposite-Spin Energy  =      -2.0860362951818043 [Eh]
	 SCS Correlation Energy    =      -2.2785321401306189 [Eh]
	 SCS Total Energy          =    -527.8212814222021052 [Eh]
	-----------------------------------------------------------

  Dipole Moment: [D]
     X:    -2.5732      Y:     2.5512      Z:     0.4391     Total:     3.6500

*** Psi4 exiting successfully. Buy a developer a beer!
