                               Psi4 1.3.2 release

  ==> Input File <==

--------------------------------------------------------------------------
#psi4
#
memory 32 gb

molecule  {
0 1
  N        0.8160970    -0.2990240    -0.0443680
  N        1.3585440    -1.5263750    -0.2734470
  N       -1.0817850     0.9875590    -0.4601130
  N       -1.2686320    -1.2431920     0.4227390
  C        1.7597130     0.6951090     0.1272320
  C        2.9786120     0.0532150     0.0016160
  C       -0.5903530    -0.1795160    -0.0248380
  C        1.4539390     2.1247050     0.4316710
  C        2.6793880    -1.2992810    -0.2463060
  C       -2.4210880     1.0928180    -0.4382200
  C       -2.6039190    -1.1175230     0.3972460
  C       -3.2414650     0.0469210    -0.0276130
  H        3.9528590     0.5149220     0.0929350
  H        1.0131890     2.6387050    -0.4244530
  H        0.7544440     2.2203260     1.2670250
  H        2.3864280     2.6245280     0.7070350
  H        3.3561510    -2.1272050    -0.4162310
  H       -2.8304840     2.0415190    -0.7796900
  H       -3.1684390    -1.9801170     0.7461500
  H       -4.4223419     0.1440505    -0.0314990
units angstrom
no_reorient  #important for SAPT in psi4, default
symmetry c1  #important for SAPT in psi4, default
}

set PROPERTIES_ORIGIN ["COM"]
properties('MP2/aug-cc-pvtz', properties = ['dipole'])
--------------------------------------------------------------------------

    Molecular point group: c1
  Charge       = 0
  Multiplicity = 1
  Basis Set: AUG-CC-PVTZ
    Blend: AUG-CC-PVTZ
  Basis Set: (AUG-CC-PVTZ AUX)
    Blend: AUG-CC-PVTZ-JKFIT

    Orbital Energies [Eh]
    ---------------------

    Doubly Occupied:

       1A    -15.642385     2A    -15.583145     3A    -15.581680
       4A    -15.579396     5A    -11.367847     6A    -11.312393
       7A    -11.310366     8A    -11.286964     9A    -11.263475
      10A    -11.254750    11A    -11.234897    12A    -11.217514
      13A     -1.386651    14A     -1.313117    15A     -1.206686
      16A     -1.129233    17A     -1.084055    18A     -1.042692
      19A     -0.958976    20A     -0.909603    21A     -0.894002
      22A     -0.800248    23A     -0.795426    24A     -0.712961
      25A     -0.705782    26A     -0.674321    27A     -0.638401
      28A     -0.621150    29A     -0.607563    30A     -0.589240
      31A     -0.586775    32A     -0.575546    33A     -0.563824
      34A     -0.552937    35A     -0.535800    36A     -0.489004
      37A     -0.455333    38A     -0.431110    39A     -0.420741
      40A     -0.408117    41A     -0.338364    42A     -0.332591

  @DF-RHF Final Energy:  -525.53614572502897

   => Energetics <=

    Nuclear Repulsion Energy =            657.7717149929345624
    One-Electron Energy =               -2017.8255985647720081
    Two-Electron Energy =                 834.5177378468085863
    Total Energy =                       -525.5361457250289732
  Basis Set: (AUG-CC-PVTZ AUX)
    Blend: AUG-CC-PVTZ-RI
    Molecular point group: c1

    Geometry (in Angstrom), charge = 0, multiplicity = 1:

       Center              X                  Y                   Z               Mass
    ------------   -----------------  -----------------  -----------------  -----------------
         N            0.823802905789    -0.261421664186    -0.037159356493    14.003074004430
         N            1.366249905789    -1.488772664186    -0.266238356493    14.003074004430
         N           -1.074079094211     1.025161335814    -0.452904356493    14.003074004430
         N           -1.260926094211    -1.205589664186     0.429947643507    14.003074004430
         C            1.767418905789     0.732711335814     0.134440643507    12.000000000000
         C            2.986317905789     0.090817335814     0.008824643507    12.000000000000
         C           -0.582647094211    -0.141913664186    -0.017629356493    12.000000000000
         C            1.461644905789     2.162307335814     0.438879643507    12.000000000000
         C            2.687093905789    -1.261678664186    -0.239097356493    12.000000000000
         C           -2.413382094211     1.130420335814    -0.431011356493    12.000000000000
         C           -2.596213094211    -1.079920664186     0.404454643507    12.000000000000
         C           -3.233759094211     0.084523335814    -0.020404356493    12.000000000000
         H            3.960564905789     0.552524335814     0.100143643507     1.007825032230
         H            1.020894905789     2.676307335814    -0.417244356493     1.007825032230
         H            0.762149905789     2.257928335814     1.274233643507     1.007825032230
         H            2.394133905789     2.662130335814     0.714243643507     1.007825032230
         H            3.363856905789    -2.089602664186    -0.409022356493     1.007825032230
         H           -2.822778094211     2.079121335814    -0.772481356493     1.007825032230
         H           -3.160733094211    -1.942514664186     0.753358643507     1.007825032230
         H           -4.414635994211     0.181652835814    -0.024290356493     1.007825032230

  Basis Set: AUG-CC-PVTZ
    Blend: AUG-CC-PVTZ
  Basis Set: (AUG-CC-PVTZ AUX)
    Blend: AUG-CC-PVTZ-JKFIT
	 Reference Energy          =    -525.5361457250289732 [Eh]
	 Singles Energy            =      -0.0000000000000000 [Eh]
	 Same-Spin Energy          =      -0.5777804742912784 [Eh]
	 Opposite-Spin Energy      =      -1.7394948640999464 [Eh]
	 Correlation Energy        =      -2.3172753383912248 [Eh]
	 Total Energy              =    -527.8534210634202282 [Eh]

	 ================> DF-SCS-MP2 Energies <==================
	-----------------------------------------------------------
	 SCS Same-Spin Scale       =       0.3333333333333333 [-]
	 SCS Opposite-Spin Scale   =       1.2000000000000000 [-]
	 SCS Same-Spin Energy      =      -0.1925934914304261 [Eh]
	 SCS Opposite-Spin Energy  =      -2.0873938369199356 [Eh]
	 SCS Correlation Energy    =      -2.2799873283503618 [Eh]
	 SCS Total Energy          =    -527.8161330533793034 [Eh]
	-----------------------------------------------------------

  Dipole Moment: [D]
     X:    -2.5538      Y:     2.5532      Z:     0.4404     Total:     3.6380

*** Psi4 exiting successfully. Buy a developer a beer!
