                               Psi4 1.4a3.dev225

  ==> Input File <==

--------------------------------------------------------------------------
#psi4
#
memory 32 gb

molecule  {
0 1
  N        0.8160970    -0.2990240    -0.0443680
  N        1.3585440    -1.5263750    -0.2734470
  N       -1.0817850     0.9875590    -0.4601130
  N       -1.2686320    -1.2431920     0.4227390
  C        1.7597130     0.6951090     0.1272320
  C        2.9786120     0.0532150     0.0016160
  C       -0.5903530    -0.1795160    -0.0248380
  C        1.4539390     2.1247050     0.4316710
  C        2.6793880    -1.2992810    -0.2463060
  C       -2.4210880     1.0928180    -0.4382200
  C       -2.5541480    -1.1222071     0.3981962
  C       -3.2414650     0.0469210    -0.0276130
  H        3.9528590     0.5149220     0.0929350
  H        1.0131890     2.6387050    -0.4244530
  H        0.7544440     2.2203260     1.2670250
  H        2.3864280     2.6245280     0.7070350
  H        3.3561510    -2.1272050    -0.4162310
  H       -2.8304840     2.0415190    -0.7796900
  H       -3.1684390    -1.9801170     0.7461500
  H       -4.3226790     0.1358530    -0.0311710
units angstrom
no_reorient  #important for SAPT in psi4, default
symmetry c1  #important for SAPT in psi4, default
}

set PROPERTIES_ORIGIN ["COM"]
properties('MP2/aug-cc-pvtz', properties = ['dipole'])
--------------------------------------------------------------------------

    Molecular point group: c1
  Charge       = 0
  Multiplicity = 1
  Basis Set: AUG-CC-PVTZ
    Blend: AUG-CC-PVTZ
  Basis Set: (AUG-CC-PVTZ AUX)
    Blend: AUG-CC-PVTZ-JKFIT

    Orbital Energies [Eh]
    ---------------------

    Doubly Occupied:

       1A    -15.643359     2A    -15.582473     3A    -15.581503
       4A    -15.577279     5A    -11.369928     6A    -11.309293
       7A    -11.308147     8A    -11.287647     9A    -11.255638
      10A    -11.252906    11A    -11.235093    12A    -11.218214
      13A     -1.388514    14A     -1.319444    15A     -1.216619
      16A     -1.129163    17A     -1.084250    18A     -1.041817
      19A     -0.959391    20A     -0.906142    21A     -0.899351
      22A     -0.801601    23A     -0.795140    24A     -0.714997
      25A     -0.707931    26A     -0.682037    27A     -0.639609
      28A     -0.634479    29A     -0.604576    30A     -0.589200
      31A     -0.586055    32A     -0.577430    33A     -0.564427
      34A     -0.553815    35A     -0.536573    36A     -0.493685
      37A     -0.456121    38A     -0.438534    39A     -0.417780
      40A     -0.405232    41A     -0.336561    42A     -0.333288

  @DF-RHF Final Energy:  -525.54229569729023

   => Energetics <=

    Nuclear Repulsion Energy =            659.0809927232343171
    One-Electron Energy =               -2020.3760944211978767
    Two-Electron Energy =                 835.7528060006734449
    Total Energy =                       -525.5422956972902284
  Basis Set: (AUG-CC-PVTZ AUX)
    Blend: AUG-CC-PVTZ-RI
    Molecular point group: c1

    Geometry (in Angstrom), charge = 0, multiplicity = 1:

       Center              X                  Y                   Z               Mass
    ------------   -----------------  -----------------  -----------------  -----------------
         N            0.819444353751    -0.261018909930    -0.037232653224    14.003074004430
         N            1.361891353751    -1.488369909930    -0.266311653224    14.003074004430
         N           -1.078437646249     1.025564090070    -0.452977653224    14.003074004430
         N           -1.265284646249    -1.205186909930     0.429874346776    14.003074004430
         C            1.763060353751     0.733114090070     0.134367346776    12.000000000000
         C            2.981959353751     0.091220090070     0.008751346776    12.000000000000
         C           -0.587005646249    -0.141510909930    -0.017702653224    12.000000000000
         C            1.457286353751     2.162710090070     0.438806346776    12.000000000000
         C            2.682735353751    -1.261275909930    -0.239170653224    12.000000000000
         C           -2.417740646249     1.130823090070    -0.431084653224    12.000000000000
         C           -2.550800646249    -1.084202009930     0.405331546776    12.000000000000
         C           -3.238117646249     0.084926090070    -0.020477653224    12.000000000000
         H            3.956206353751     0.552927090070     0.100070346776     1.007825032230
         H            1.016536353751     2.676710090070    -0.417317653224     1.007825032230
         H            0.757791353751     2.258331090070     1.274160346776     1.007825032230
         H            2.389775353751     2.662533090070     0.714170346776     1.007825032230
         H            3.359498353751    -2.089199909930    -0.409095653224     1.007825032230
         H           -2.827136646249     2.079524090070    -0.772554653224     1.007825032230
         H           -3.165091646249    -1.942111909930     0.753285346776     1.007825032230
         H           -4.319331646249     0.173858090070    -0.024035653224     1.007825032230

  Basis Set: AUG-CC-PVTZ
    Blend: AUG-CC-PVTZ
  Basis Set: (AUG-CC-PVTZ AUX)
    Blend: AUG-CC-PVTZ-JKFIT
	 Reference Energy          =    -525.5422956972902284 [Eh]
	 Singles Energy            =      -0.0000000000000000 [Eh]
	 Same-Spin Energy          =      -0.5770892173870479 [Eh]
	 Opposite-Spin Energy      =      -1.7376401247378406 [Eh]
	 Correlation Energy        =      -2.3147293421248882 [Eh]
	 Total Energy              =    -527.8570250394151344 [Eh]

	 ================> DF-SCS-MP2 Energies <==================
	-----------------------------------------------------------
	 SCS Same-Spin Scale       =       0.3333333333333333 [-]
	 SCS Opposite-Spin Scale   =       1.2000000000000000 [-]
	 SCS Same-Spin Energy      =      -0.1923630724623493 [Eh]
	 SCS Opposite-Spin Energy  =      -2.0851681496854084 [Eh]
	 SCS Correlation Energy    =      -2.2775312221477577 [Eh]
	 SCS Total Energy          =    -527.8198269194380146 [Eh]
	-----------------------------------------------------------

  Dipole Moment: [D]
     X:    -2.4775      Y:     2.5326      Z:     0.4484     Total:     3.5712

*** Psi4 exiting successfully. Buy a developer a beer!
