                               Psi4 1.3.2 release

  ==> Input File <==

--------------------------------------------------------------------------
#psi4
#
memory 32 gb

molecule  {
0 1
  N        0.8160970    -0.2990240    -0.0443680
  N        1.3585440    -1.5263750    -0.2734470
  N       -1.0817850     0.9875590    -0.4601130
  N       -1.2686320    -1.2431920     0.4227390
  C        1.7597130     0.6951090     0.1272320
  C        2.9786120     0.0532150     0.0016160
  C       -0.6783422    -0.2072159    -0.0098012
  C        1.4539390     2.1247050     0.4316710
  C        2.6793880    -1.2992810    -0.2463060
  C       -2.4210880     1.0928180    -0.4382200
  C       -2.6039190    -1.1175230     0.3972460
  C       -3.2414650     0.0469210    -0.0276130
  H        3.9528590     0.5149220     0.0929350
  H        1.0131890     2.6387050    -0.4244530
  H        0.7544440     2.2203260     1.2670250
  H        2.3864280     2.6245280     0.7070350
  H        3.3561510    -2.1272050    -0.4162310
  H       -2.8304840     2.0415190    -0.7796900
  H       -3.1684390    -1.9801170     0.7461500
  H       -4.3226790     0.1358530    -0.0311710
units angstrom
no_reorient  #important for SAPT in psi4, default
symmetry c1  #important for SAPT in psi4, default
}

set PROPERTIES_ORIGIN ["COM"]
properties('MP2/aug-cc-pvtz', properties = ['dipole'])
--------------------------------------------------------------------------

    Molecular point group: c1
  Charge       = 0
  Multiplicity = 1
  Basis Set: AUG-CC-PVTZ
    Blend: AUG-CC-PVTZ
  Basis Set: (AUG-CC-PVTZ AUX)
    Blend: AUG-CC-PVTZ-JKFIT

    Orbital Energies [Eh]
    ---------------------

    Doubly Occupied:

       1A    -15.632191     2A    -15.590457     3A    -15.583433
       4A    -15.573046     5A    -11.367830     6A    -11.318662
       7A    -11.318331     8A    -11.277728     9A    -11.260055
      10A    -11.244743    11A    -11.230326    12A    -11.208883
      13A     -1.377564    14A     -1.326976    15A     -1.228373
      16A     -1.116347    17A     -1.078802    18A     -1.040622
      19A     -0.952153    20A     -0.922554    21A     -0.893823
      22A     -0.789892    23A     -0.786448    24A     -0.720889
      25A     -0.710259    26A     -0.676812    27A     -0.636225
      28A     -0.633919    29A     -0.611837    30A     -0.588537
      31A     -0.580441    32A     -0.575596    33A     -0.557222
      34A     -0.548463    35A     -0.529821    36A     -0.493071
      37A     -0.451954    38A     -0.442713    39A     -0.433535
      40A     -0.406480    41A     -0.338049    42A     -0.324344

  @DF-RHF Final Energy:  -525.53337443216219

   => Energetics <=

    Nuclear Repulsion Energy =            658.1769914938145121
    One-Electron Energy =               -2018.6619184741089157
    Two-Electron Energy =                 834.9515525481322129
    Total Energy =                       -525.5333744321621907
  Basis Set: (AUG-CC-PVTZ AUX)
    Blend: AUG-CC-PVTZ-RI
    Molecular point group: c1

    Geometry (in Angstrom), charge = 0, multiplicity = 1:

       Center              X                  Y                   Z               Mass
    ------------   -----------------  -----------------  -----------------  -----------------
         N            0.829771534580    -0.259293532582    -0.038288653908    14.003074004430
         N            1.372218534580    -1.486644532582    -0.267367653908    14.003074004430
         N           -1.068110465420     1.027289467418    -0.454033653908    14.003074004430
         N           -1.254957465420    -1.203461532582     0.428818346092    14.003074004430
         C            1.773387534580     0.734839467418     0.133311346092    12.000000000000
         C            2.992286534580     0.092945467418     0.007695346092    12.000000000000
         C           -0.664667665420    -0.167485432582    -0.003721853908    12.000000000000
         C            1.467613534580     2.164435467418     0.437750346092    12.000000000000
         C            2.693062534580    -1.259550532582    -0.240226653908    12.000000000000
         C           -2.407413465420     1.132548467418    -0.432140653908    12.000000000000
         C           -2.590244465420    -1.077792532582     0.403325346092    12.000000000000
         C           -3.227790465420     0.086651467418    -0.021533653908    12.000000000000
         H            3.966533534580     0.554652467418     0.099014346092     1.007825032230
         H            1.026863534580     2.678435467418    -0.418373653908     1.007825032230
         H            0.768118534580     2.260056467418     1.273104346092     1.007825032230
         H            2.400102534580     2.664258467418     0.713114346092     1.007825032230
         H            3.369825534580    -2.087474532582    -0.410151653908     1.007825032230
         H           -2.816809465420     2.081249467418    -0.773610653908     1.007825032230
         H           -3.154764465420    -1.940386532582     0.752229346092     1.007825032230
         H           -4.309004465420     0.175583467418    -0.025091653908     1.007825032230

  Basis Set: AUG-CC-PVTZ
    Blend: AUG-CC-PVTZ
  Basis Set: (AUG-CC-PVTZ AUX)
    Blend: AUG-CC-PVTZ-JKFIT
	 Reference Energy          =    -525.5333744321621907 [Eh]
	 Singles Energy            =      -0.0000000000000000 [Eh]
	 Same-Spin Energy          =      -0.5776107773023176 [Eh]
	 Opposite-Spin Energy      =      -1.7386961013110402 [Eh]
	 Correlation Energy        =      -2.3163068786133580 [Eh]
	 Total Energy              =    -527.8496813107755088 [Eh]

	 ================> DF-SCS-MP2 Energies <==================
	-----------------------------------------------------------
	 SCS Same-Spin Scale       =       0.3333333333333333 [-]
	 SCS Opposite-Spin Scale   =       1.2000000000000000 [-]
	 SCS Same-Spin Energy      =      -0.1925369257674392 [Eh]
	 SCS Opposite-Spin Energy  =      -2.0864353215732483 [Eh]
	 SCS Correlation Energy    =      -2.2789722473406875 [Eh]
	 SCS Total Energy          =    -527.8123466795028662 [Eh]
	-----------------------------------------------------------

  Dipole Moment: [D]
     X:    -3.5093      Y:     2.5587      Z:     0.4748     Total:     4.3690

*** Psi4 exiting successfully. Buy a developer a beer!
