                               Psi4 1.3.2 release

  ==> Input File <==

--------------------------------------------------------------------------
#psi4
#
memory 32 gb

molecule  {
0 1
  N        0.8160970    -0.2990240    -0.0443680
  N        1.3585440    -1.5263750    -0.2734470
  N       -1.0817850     0.9875590    -0.4601130
  N       -1.2686320    -1.2431920     0.4227390
  C        1.7597130     0.6951090     0.1272320
  C        2.9786120     0.0532150     0.0016160
  C       -0.5903530    -0.1795160    -0.0248380
  C        1.4539390     2.1247050     0.4316710
  C        2.6793880    -1.2992810    -0.2463060
  C       -2.4210880     1.0928180    -0.4382200
  C       -2.6039190    -1.1175230     0.3972460
  C       -3.2414650     0.0469210    -0.0276130
  H        3.9528590     0.5149220     0.0929350
  H        1.0131890     2.6387050    -0.4244530
  H        0.7544440     2.2203260     1.2670250
  H        2.3864280     2.6245280     0.7070350
  H        3.2936467    -2.0507399    -0.4005371
  H       -2.8304840     2.0415190    -0.7796900
  H       -3.1684390    -1.9801170     0.7461500
  H       -4.3226790     0.1358530    -0.0311710
units angstrom
no_reorient  #important for SAPT in psi4, default
symmetry c1  #important for SAPT in psi4, default
}

set PROPERTIES_ORIGIN ["COM"]
properties('MP2/aug-cc-pvtz', properties = ['dipole'])
--------------------------------------------------------------------------

    Molecular point group: c1
  Charge       = 0
  Multiplicity = 1
  Basis Set: AUG-CC-PVTZ
    Blend: AUG-CC-PVTZ
  Basis Set: (AUG-CC-PVTZ AUX)
    Blend: AUG-CC-PVTZ-JKFIT

    Orbital Energies [Eh]
    ---------------------

    Doubly Occupied:

       1A    -15.641764     2A    -15.582280     3A    -15.581140
       4A    -15.578540     5A    -11.367187     6A    -11.311413
       7A    -11.309383     8A    -11.286212     9A    -11.252589
      10A    -11.243024    11A    -11.234409    12A    -11.216558
      13A     -1.385950    14A     -1.312367    15A     -1.205908
      16A     -1.130350    17A     -1.083877    18A     -1.045962
      19A     -0.958383    20A     -0.909150    21A     -0.899885
      22A     -0.811984    23A     -0.795081    24A     -0.714090
      25A     -0.707211    26A     -0.684672    27A     -0.640465
      28A     -0.635131    29A     -0.609884    30A     -0.593064
      31A     -0.587729    32A     -0.577007    33A     -0.563616
      34A     -0.552387    35A     -0.538891    36A     -0.491516
      37A     -0.455453    38A     -0.430398    39A     -0.420134
      40A     -0.407520    41A     -0.337889    42A     -0.331928

  @DF-RHF Final Energy:  -525.53743767307446

   => Energetics <=

    Nuclear Repulsion Energy =            658.8543179394757772
    One-Electron Energy =               -2019.9387526305356459
    Two-Electron Energy =                 835.5469970179854045
    Total Energy =                       -525.5374376730744643
  Basis Set: (AUG-CC-PVTZ AUX)
    Blend: AUG-CC-PVTZ-RI
    Molecular point group: c1

    Geometry (in Angstrom), charge = 0, multiplicity = 1:

       Center              X                  Y                   Z               Mass
    ------------   -----------------  -----------------  -----------------  -----------------
         N            0.823568956756    -0.261851474217    -0.037260229723    14.003074004430
         N            1.366015956756    -1.489202474217    -0.266339229723    14.003074004430
         N           -1.074313043244     1.024731525783    -0.453005229723    14.003074004430
         N           -1.261160043244    -1.206019474217     0.429846770277    14.003074004430
         C            1.767184956756     0.732281525783     0.134339770277    12.000000000000
         C            2.986083956756     0.090387525783     0.008723770277    12.000000000000
         C           -0.582881043244    -0.142343474217    -0.017730229723    12.000000000000
         C            1.461410956756     2.161877525783     0.438778770277    12.000000000000
         C            2.686859956756    -1.262108474217    -0.239198229723    12.000000000000
         C           -2.413616043244     1.129990525783    -0.431112229723    12.000000000000
         C           -2.596447043244    -1.080350474217     0.404353770277    12.000000000000
         C           -3.233993043244     0.084093525783    -0.020505229723    12.000000000000
         H            3.960330956756     0.552094525783     0.100042770277     1.007825032230
         H            1.020660956756     2.675877525783    -0.417345229723     1.007825032230
         H            0.761915956756     2.257498525783     1.274132770277     1.007825032230
         H            2.393899956756     2.661700525783     0.714142770277     1.007825032230
         H            3.301118656756    -2.013567374217    -0.393429329723     1.007825032230
         H           -2.823012043244     2.078691525783    -0.772582229723     1.007825032230
         H           -3.160967043244    -1.942944474217     0.753257770277     1.007825032230
         H           -4.315207043244     0.173025525783    -0.024063229723     1.007825032230

  Basis Set: AUG-CC-PVTZ
    Blend: AUG-CC-PVTZ
  Basis Set: (AUG-CC-PVTZ AUX)
    Blend: AUG-CC-PVTZ-JKFIT
	 Reference Energy          =    -525.5374376730744643 [Eh]
	 Singles Energy            =      -0.0000000000000000 [Eh]
	 Same-Spin Energy          =      -0.5774409796439723 [Eh]
	 Opposite-Spin Energy      =      -1.7382182760994174 [Eh]
	 Correlation Energy        =      -2.3156592557433897 [Eh]
	 Total Energy              =    -527.8530969288178767 [Eh]

	 ================> DF-SCS-MP2 Energies <==================
	-----------------------------------------------------------
	 SCS Same-Spin Scale       =       0.3333333333333333 [-]
	 SCS Opposite-Spin Scale   =       1.2000000000000000 [-]
	 SCS Same-Spin Energy      =      -0.1924803265479908 [Eh]
	 SCS Opposite-Spin Energy  =      -2.0858619313193008 [Eh]
	 SCS Correlation Energy    =      -2.2783422578672914 [Eh]
	 SCS Total Energy          =    -527.8157799309417442 [Eh]
	-----------------------------------------------------------

  Dipole Moment: [D]
     X:    -2.5701      Y:     2.5501      Z:     0.4388     Total:     3.6471

*** Psi4 exiting successfully. Buy a developer a beer!
