                               Psi4 1.4a3.dev225

  ==> Input File <==

--------------------------------------------------------------------------
#psi4
#
memory 32 gb

molecule  {
0 1
  N        0.8160970    -0.2990240    -0.0443680
  N        1.3585440    -1.5263750    -0.2734470
  N       -1.0817850     0.9875590    -0.4601130
  N       -1.2686320    -1.2431920     0.4227390
  C        1.7597130     0.6951090     0.1272320
  C        2.9786120     0.0532150     0.0016160
  C       -0.5903530    -0.1795160    -0.0248380
  C        1.4539390     2.1247050     0.4316710
  C        2.6793880    -1.2992810    -0.2463060
  C       -2.4210880     1.0928180    -0.4382200
  C       -2.6039190    -1.1175230     0.3972460
  C       -3.2414650     0.0469210    -0.0276130
  H        3.9528590     0.5149220     0.0929350
  H        1.0131890     2.6387050    -0.4244530
  H        0.7544440     2.2203260     1.2670250
  H        2.3864280     2.6245280     0.7070350
  H        3.3874031    -2.1654376    -0.4240779
  H       -2.8304840     2.0415190    -0.7796900
  H       -3.1684390    -1.9801170     0.7461500
  H       -4.3226790     0.1358530    -0.0311710
units angstrom
no_reorient  #important for SAPT in psi4, default
symmetry c1  #important for SAPT in psi4, default
}

set PROPERTIES_ORIGIN ["COM"]
properties('MP2/aug-cc-pvtz', properties = ['dipole'])
--------------------------------------------------------------------------

    Molecular point group: c1
  Charge       = 0
  Multiplicity = 1
  Basis Set: AUG-CC-PVTZ
    Blend: AUG-CC-PVTZ
  Basis Set: (AUG-CC-PVTZ AUX)
    Blend: AUG-CC-PVTZ-JKFIT

    Orbital Energies [Eh]
    ---------------------

    Doubly Occupied:

       1A    -15.642367     2A    -15.582525     3A    -15.581734
       4A    -15.578744     5A    -11.367531     6A    -11.311609
       7A    -11.309559     8A    -11.287056     9A    -11.260049
      10A    -11.252768    11A    -11.234881    12A    -11.217784
      13A     -1.386577    14A     -1.312683    15A     -1.206124
      16A     -1.129143    17A     -1.084436    18A     -1.044728
      19A     -0.959042    20A     -0.909110    21A     -0.895462
      22A     -0.796239    23A     -0.794523    24A     -0.712840
      25A     -0.707507    26A     -0.681661    27A     -0.637975
      28A     -0.632309    29A     -0.606209    30A     -0.589076
      31A     -0.585020    32A     -0.573211    33A     -0.564195
      34A     -0.552878    35A     -0.533582    36A     -0.491764
      37A     -0.454868    38A     -0.430591    39A     -0.420288
      40A     -0.407867    41A     -0.338195    42A     -0.332645

  @DF-RHF Final Energy:  -525.54113941496735

   => Energetics <=

    Nuclear Repulsion Energy =            658.0105236767035422
    One-Electron Energy =               -2018.3086135721248411
    Two-Electron Energy =                 834.7569504804539520
    Total Energy =                       -525.5411394149673470
  Basis Set: (AUG-CC-PVTZ AUX)
    Blend: AUG-CC-PVTZ-RI
    Molecular point group: c1

    Geometry (in Angstrom), charge = 0, multiplicity = 1:

       Center              X                  Y                   Z               Mass
    ------------   -----------------  -----------------  -----------------  -----------------
         N            0.822978670277    -0.261129342166    -0.037112017804    14.003074004430
         N            1.365425670277    -1.488480342166    -0.266191017804    14.003074004430
         N           -1.074903329723     1.025453657834    -0.452857017804    14.003074004430
         N           -1.261750329723    -1.205297342166     0.429994982196    14.003074004430
         C            1.766594670277     0.733003657834     0.134487982196    12.000000000000
         C            2.985493670277     0.091109657834     0.008871982196    12.000000000000
         C           -0.583471329723    -0.141621342166    -0.017582017804    12.000000000000
         C            1.460820670277     2.162599657834     0.438926982196    12.000000000000
         C            2.686269670277    -1.261386342166    -0.239050017804    12.000000000000
         C           -2.414206329723     1.130712657834    -0.430964017804    12.000000000000
         C           -2.597037329723    -1.079628342166     0.404501982196    12.000000000000
         C           -3.234583329723     0.084815657834    -0.020357017804    12.000000000000
         H            3.959740670277     0.552816657834     0.100190982196     1.007825032230
         H            1.020070670277     2.676599657834    -0.417197017804     1.007825032230
         H            0.761325670277     2.258220657834     1.274280982196     1.007825032230
         H            2.393309670277     2.662422657834     0.714290982196     1.007825032230
         H            3.394284770277    -2.127542942166    -0.416821917804     1.007825032230
         H           -2.823602329723     2.079413657834    -0.772434017804     1.007825032230
         H           -3.161557329723    -1.942222342166     0.753405982196     1.007825032230
         H           -4.315797329723     0.173747657834    -0.023915017804     1.007825032230

  Basis Set: AUG-CC-PVTZ
    Blend: AUG-CC-PVTZ
  Basis Set: (AUG-CC-PVTZ AUX)
    Blend: AUG-CC-PVTZ-JKFIT
	 Reference Energy          =    -525.5411394149673470 [Eh]
	 Singles Energy            =      -0.0000000000000000 [Eh]
	 Same-Spin Energy          =      -0.5776524349271208 [Eh]
	 Opposite-Spin Energy      =      -1.7390093029499976 [Eh]
	 Correlation Energy        =      -2.3166617378771184 [Eh]
	 Total Energy              =    -527.8578011528444449 [Eh]

	 ================> DF-SCS-MP2 Energies <==================
	-----------------------------------------------------------
	 SCS Same-Spin Scale       =       0.3333333333333333 [-]
	 SCS Opposite-Spin Scale   =       1.2000000000000000 [-]
	 SCS Same-Spin Energy      =      -0.1925508116423736 [Eh]
	 SCS Opposite-Spin Energy  =      -2.0868111635399971 [Eh]
	 SCS Correlation Energy    =      -2.2793619751823706 [Eh]
	 SCS Total Energy          =    -527.8205013901497296 [Eh]
	-----------------------------------------------------------

  Dipole Moment: [D]
     X:    -2.5889      Y:     2.5616      Z:     0.4413     Total:     3.6686

*** Psi4 exiting successfully. Buy a developer a beer!
