                               Psi4 1.4a3.dev225

  ==> Input File <==

--------------------------------------------------------------------------
#psi4
#
memory 32 gb

molecule  {
0 1
  N        0.8160970    -0.2990240    -0.0443680
  N        1.3585440    -1.5263750    -0.2734470
  N       -1.0817850     0.9875590    -0.4601130
  N       -1.2686320    -1.2431920     0.4227390
  C        1.7597130     0.6951090     0.1272320
  C        2.9786120     0.0532150     0.0016160
  C       -0.5903530    -0.1795160    -0.0248380
  C        1.4539390     2.1247050     0.4316710
  C        2.6836407    -1.2800587    -0.2427824
  C       -2.4210880     1.0928180    -0.4382200
  C       -2.6039190    -1.1175230     0.3972460
  C       -3.2414650     0.0469210    -0.0276130
  H        3.9528590     0.5149220     0.0929350
  H        1.0131890     2.6387050    -0.4244530
  H        0.7544440     2.2203260     1.2670250
  H        2.3864280     2.6245280     0.7070350
  H        3.3561510    -2.1272050    -0.4162310
  H       -2.8304840     2.0415190    -0.7796900
  H       -3.1684390    -1.9801170     0.7461500
  H       -4.3226790     0.1358530    -0.0311710
units angstrom
no_reorient  #important for SAPT in psi4, default
symmetry c1  #important for SAPT in psi4, default
}

set PROPERTIES_ORIGIN ["COM"]
properties('MP2/aug-cc-pvtz', properties = ['dipole'])
--------------------------------------------------------------------------

    Molecular point group: c1
  Charge       = 0
  Multiplicity = 1
  Basis Set: AUG-CC-PVTZ
    Blend: AUG-CC-PVTZ
  Basis Set: (AUG-CC-PVTZ AUX)
    Blend: AUG-CC-PVTZ-JKFIT

    Orbital Energies [Eh]
    ---------------------

    Doubly Occupied:

       1A    -15.642871     2A    -15.582702     3A    -15.580599
       4A    -15.578940     5A    -11.367508     6A    -11.311690
       7A    -11.309655     8A    -11.287079     9A    -11.253673
      10A    -11.252963    11A    -11.234886    12A    -11.215997
      13A     -1.386449    14A     -1.312687    15A     -1.206246
      16A     -1.128678    17A     -1.084593    18A     -1.046225
      19A     -0.960054    20A     -0.909180    21A     -0.896944
      22A     -0.799110    23A     -0.795079    24A     -0.713378
      25A     -0.707843    26A     -0.683130    27A     -0.638110
      28A     -0.633501    29A     -0.606491    30A     -0.589815
      31A     -0.585471    32A     -0.573637    33A     -0.564863
      34A     -0.552773    35A     -0.534700    36A     -0.491901
      37A     -0.456670    38A     -0.430677    39A     -0.420588
      40A     -0.408396    41A     -0.339292    42A     -0.330946

  @DF-RHF Final Energy:  -525.54205919007552

   => Energetics <=

    Nuclear Repulsion Energy =            658.4827735254364143
    One-Electron Energy =               -2019.2376843174367878
    Two-Electron Energy =                 835.2128516019248536
    Total Energy =                       -525.5420591900755198
  Basis Set: (AUG-CC-PVTZ AUX)
    Blend: AUG-CC-PVTZ-RI
    Molecular point group: c1

    Geometry (in Angstrom), charge = 0, multiplicity = 1:

       Center              X                  Y                   Z               Mass
    ------------   -----------------  -----------------  -----------------  -----------------
         N            0.822856628959    -0.262811051026    -0.037425567920    14.003074004430
         N            1.365303628959    -1.490162051026    -0.266504567920    14.003074004430
         N           -1.075025371041     1.023771948974    -0.453170567920    14.003074004430
         N           -1.261872371041    -1.206979051026     0.429681432080    14.003074004430
         C            1.766472628959     0.731321948974     0.134174432080    12.000000000000
         C            2.985371628959     0.089427948974     0.008558432080    12.000000000000
         C           -0.583593371041    -0.143303051026    -0.017895567920    12.000000000000
         C            1.460698628959     2.160917948974     0.438613432080    12.000000000000
         C            2.690400328959    -1.243845751026    -0.235839967920    12.000000000000
         C           -2.414328371041     1.129030948974    -0.431277567920    12.000000000000
         C           -2.597159371041    -1.081310051026     0.404188432080    12.000000000000
         C           -3.234705371041     0.083133948974    -0.020670567920    12.000000000000
         H            3.959618628959     0.551134948974     0.099877432080     1.007825032230
         H            1.019948628959     2.674917948974    -0.417510567920     1.007825032230
         H            0.761203628959     2.256538948974     1.273967432080     1.007825032230
         H            2.393187628959     2.660740948974     0.713977432080     1.007825032230
         H            3.362910628959    -2.090992051026    -0.409288567920     1.007825032230
         H           -2.823724371041     2.077731948974    -0.772747567920     1.007825032230
         H           -3.161679371041    -1.943904051026     0.753092432080     1.007825032230
         H           -4.315919371041     0.172065948974    -0.024228567920     1.007825032230

  Basis Set: AUG-CC-PVTZ
    Blend: AUG-CC-PVTZ
  Basis Set: (AUG-CC-PVTZ AUX)
    Blend: AUG-CC-PVTZ-JKFIT
	 Reference Energy          =    -525.5420591900755198 [Eh]
	 Singles Energy            =      -0.0000000000000000 [Eh]
	 Same-Spin Energy          =      -0.5780359342671284 [Eh]
	 Opposite-Spin Energy      =      -1.7392200869856707 [Eh]
	 Correlation Energy        =      -2.3172560212527991 [Eh]
	 Total Energy              =    -527.8593152113282940 [Eh]

	 ================> DF-SCS-MP2 Energies <==================
	-----------------------------------------------------------
	 SCS Same-Spin Scale       =       0.3333333333333333 [-]
	 SCS Opposite-Spin Scale   =       1.2000000000000000 [-]
	 SCS Same-Spin Energy      =      -0.1926786447557094 [Eh]
	 SCS Opposite-Spin Energy  =      -2.0870641043828049 [Eh]
	 SCS Correlation Energy    =      -2.2797427491385145 [Eh]
	 SCS Total Energy          =    -527.8218019392140832 [Eh]
	-----------------------------------------------------------

  Dipole Moment: [D]
     X:    -2.6100      Y:     2.5871      Z:     0.4462     Total:     3.7020

*** Psi4 exiting successfully. Buy a developer a beer!
