                               Psi4 1.3.2 release

  ==> Input File <==

--------------------------------------------------------------------------
#psi4
#
memory 32 gb

molecule  {
0 1
  N        0.8160970    -0.2990240    -0.0443680
  N        1.3585440    -1.5263750    -0.2734470
  N       -1.0817850     0.9875590    -0.4601130
  N       -1.2686320    -1.2431920     0.4227390
  C        1.7597130     0.6951090     0.1272320
  C        2.9786120     0.0532150     0.0016160
  C       -0.5903530    -0.1795160    -0.0248380
  C        1.4539390     2.1247050     0.4316710
  C        2.5808542    -1.3162220    -0.2483307
  C       -2.4210880     1.0928180    -0.4382200
  C       -2.6039190    -1.1175230     0.3972460
  C       -3.2414650     0.0469210    -0.0276130
  H        3.9528590     0.5149220     0.0929350
  H        1.0131890     2.6387050    -0.4244530
  H        0.7544440     2.2203260     1.2670250
  H        2.3864280     2.6245280     0.7070350
  H        3.3561510    -2.1272050    -0.4162310
  H       -2.8304840     2.0415190    -0.7796900
  H       -3.1684390    -1.9801170     0.7461500
  H       -4.3226790     0.1358530    -0.0311710
units angstrom
no_reorient  #important for SAPT in psi4, default
symmetry c1  #important for SAPT in psi4, default
}

set PROPERTIES_ORIGIN ["COM"]
properties('MP2/aug-cc-pvtz', properties = ['dipole'])
--------------------------------------------------------------------------

    Molecular point group: c1
  Charge       = 0
  Multiplicity = 1
  Basis Set: AUG-CC-PVTZ
    Blend: AUG-CC-PVTZ
  Basis Set: (AUG-CC-PVTZ AUX)
    Blend: AUG-CC-PVTZ-JKFIT

    Orbital Energies [Eh]
    ---------------------

    Doubly Occupied:

       1A    -15.635954     2A    -15.580495     3A    -15.577025
       4A    -15.576233     5A    -11.365917     6A    -11.310546
       7A    -11.308621     8A    -11.287833     9A    -11.252640
      10A    -11.251048    11A    -11.234614    12A    -11.216994
      13A     -1.397866    14A     -1.316680    15A     -1.204789
      16A     -1.146968    17A     -1.087224    18A     -1.042363
      19A     -0.960975    20A     -0.908574    21A     -0.891813
      22A     -0.799252    23A     -0.791009    24A     -0.713594
      25A     -0.708324    26A     -0.683141    27A     -0.641831
      28A     -0.631648    29A     -0.607726    30A     -0.588083
      31A     -0.587139    32A     -0.576356    33A     -0.563393
      34A     -0.558054    35A     -0.531123    36A     -0.490421
      37A     -0.450713    38A     -0.429749    39A     -0.419045
      40A     -0.412235    41A     -0.351255    42A     -0.329663

  @DF-RHF Final Energy:  -525.53864385451504

   => Energetics <=

    Nuclear Repulsion Energy =            660.1184649711296970
    One-Electron Energy =               -2022.4763681768863535
    Two-Electron Energy =                 836.8192593512416124
    Total Energy =                       -525.5386438545150440
  Basis Set: (AUG-CC-PVTZ AUX)
    Blend: AUG-CC-PVTZ-RI
    Molecular point group: c1

    Geometry (in Angstrom), charge = 0, multiplicity = 1:

       Center              X                  Y                   Z               Mass
    ------------   -----------------  -----------------  -----------------  -----------------
         N            0.830562009557    -0.260100072539    -0.037009640116    14.003074004430
         N            1.373009009557    -1.487451072539    -0.266088640116    14.003074004430
         N           -1.067319990443     1.026482927461    -0.452754640116    14.003074004430
         N           -1.254166990443    -1.204268072539     0.430097359884    14.003074004430
         C            1.774178009557     0.734032927461     0.134590359884    12.000000000000
         C            2.993077009557     0.092138927461     0.008974359884    12.000000000000
         C           -0.575887990443    -0.140592072539    -0.017479640116    12.000000000000
         C            1.468404009557     2.163628927461     0.439029359884    12.000000000000
         C            2.595319209557    -1.277298072539    -0.240972340116    12.000000000000
         C           -2.406622990443     1.131741927461    -0.430861640116    12.000000000000
         C           -2.589453990443    -1.078599072539     0.404604359884    12.000000000000
         C           -3.226999990443     0.085844927461    -0.020254640116    12.000000000000
         H            3.967324009557     0.553845927461     0.100293359884     1.007825032230
         H            1.027654009557     2.677628927461    -0.417094640116     1.007825032230
         H            0.768909009557     2.259249927461     1.274383359884     1.007825032230
         H            2.400893009557     2.663451927461     0.714393359884     1.007825032230
         H            3.370616009557    -2.088281072539    -0.408872640116     1.007825032230
         H           -2.816018990443     2.080442927461    -0.772331640116     1.007825032230
         H           -3.153973990443    -1.941193072539     0.753508359884     1.007825032230
         H           -4.308213990443     0.174776927461    -0.023812640116     1.007825032230

  Basis Set: AUG-CC-PVTZ
    Blend: AUG-CC-PVTZ
  Basis Set: (AUG-CC-PVTZ AUX)
    Blend: AUG-CC-PVTZ-JKFIT
	 Reference Energy          =    -525.5386438545150440 [Eh]
	 Singles Energy            =      -0.0000000000000000 [Eh]
	 Same-Spin Energy          =      -0.5746129381620895 [Eh]
	 Opposite-Spin Energy      =      -1.7337264713942107 [Eh]
	 Correlation Energy        =      -2.3083394095563001 [Eh]
	 Total Energy              =    -527.8469832640713548 [Eh]

	 ================> DF-SCS-MP2 Energies <==================
	-----------------------------------------------------------
	 SCS Same-Spin Scale       =       0.3333333333333333 [-]
	 SCS Opposite-Spin Scale   =       1.2000000000000000 [-]
	 SCS Same-Spin Energy      =      -0.1915376460540298 [Eh]
	 SCS Opposite-Spin Energy  =      -2.0804717656730527 [Eh]
	 SCS Correlation Energy    =      -2.2720094117270824 [Eh]
	 SCS Total Energy          =    -527.8106532662420705 [Eh]
	-----------------------------------------------------------

  Dipole Moment: [D]
     X:    -2.4137      Y:     2.4877      Z:     0.4243     Total:     3.4921

*** Psi4 exiting successfully. Buy a developer a beer!
