                               Psi4 1.3.2 release

  ==> Input File <==

--------------------------------------------------------------------------
#psi4
#
memory 32 gb

molecule  {
0 1
  N        0.8160970    -0.2990240    -0.0443680
  N        1.3585440    -1.5263750    -0.2734470
  N       -1.0817850     0.9875590    -0.4601130
  N       -1.2686320    -1.2431920     0.4227390
  C        1.7597130     0.6951090     0.1272320
  C        2.9786120     0.0532150     0.0016160
  C       -0.5903530    -0.1795160    -0.0248380
  C        1.4539390     2.1247050     0.4316710
  C        2.6793880    -1.2992810    -0.2463060
  C       -2.4210880     1.0928180    -0.4382200
  C       -2.6039190    -1.1175230     0.3972460
  C       -3.2629877     0.0365857    -0.0229460
  H        3.9528590     0.5149220     0.0929350
  H        1.0131890     2.6387050    -0.4244530
  H        0.7544440     2.2203260     1.2670250
  H        2.3864280     2.6245280     0.7070350
  H        3.3561510    -2.1272050    -0.4162310
  H       -2.8304840     2.0415190    -0.7796900
  H       -3.1684390    -1.9801170     0.7461500
  H       -4.3226790     0.1358530    -0.0311710
units angstrom
no_reorient  #important for SAPT in psi4, default
symmetry c1  #important for SAPT in psi4, default
}

set PROPERTIES_ORIGIN ["COM"]
properties('MP2/aug-cc-pvtz', properties = ['dipole'])
--------------------------------------------------------------------------

    Molecular point group: c1
  Charge       = 0
  Multiplicity = 1
  Basis Set: AUG-CC-PVTZ
    Blend: AUG-CC-PVTZ
  Basis Set: (AUG-CC-PVTZ AUX)
    Blend: AUG-CC-PVTZ-JKFIT

    Orbital Energies [Eh]
    ---------------------

    Doubly Occupied:

       1A    -15.642418     2A    -15.583305     3A    -15.581659
       4A    -15.578241     5A    -11.367950     6A    -11.314857
       7A    -11.308691     8A    -11.286992     9A    -11.254765
      10A    -11.253210    11A    -11.234938    12A    -11.217548
      13A     -1.386498    14A     -1.311895    15A     -1.205825
      16A     -1.128656    17A     -1.084194    18A     -1.044342
      19A     -0.959045    20A     -0.907654    21A     -0.897175
      22A     -0.800257    23A     -0.795023    24A     -0.712882
      25A     -0.706509    26A     -0.684879    27A     -0.638501
      28A     -0.637001    29A     -0.605116    30A     -0.589594
      31A     -0.585119    32A     -0.574712    33A     -0.564337
      34A     -0.552524    35A     -0.536250    36A     -0.493596
      37A     -0.455146    38A     -0.430623    39A     -0.419666
      40A     -0.406417    41A     -0.337731    42A     -0.332580

  @DF-RHF Final Energy:  -525.54271516049766

   => Energetics <=

    Nuclear Repulsion Energy =            657.8166484304101687
    One-Electron Energy =               -2017.9020872070668702
    Two-Electron Energy =                 834.5427236161590372
    Total Energy =                       -525.5427151604976643
  Basis Set: (AUG-CC-PVTZ AUX)
    Blend: AUG-CC-PVTZ-RI
    Molecular point group: c1

    Geometry (in Angstrom), charge = 0, multiplicity = 1:

       Center              X                  Y                   Z               Mass
    ------------   -----------------  -----------------  -----------------  -----------------
         N            0.824788879469    -0.260595268237    -0.037511282797    14.003074004430
         N            1.367235879469    -1.487946268237    -0.266590282797    14.003074004430
         N           -1.073093120531     1.025987731763    -0.453256282797    14.003074004430
         N           -1.259940120531    -1.204763268237     0.429595717203    14.003074004430
         C            1.768404879469     0.733537731763     0.134088717203    12.000000000000
         C            2.987303879469     0.091643731763     0.008472717203    12.000000000000
         C           -0.581661120531    -0.141087268237    -0.017981282797    12.000000000000
         C            1.462630879469     2.163133731763     0.438527717203    12.000000000000
         C            2.688079879469    -1.260852268237    -0.239449282797    12.000000000000
         C           -2.412396120531     1.131246731763    -0.431363282797    12.000000000000
         C           -2.595227120531    -1.079094268237     0.404102717203    12.000000000000
         C           -3.254295820531     0.075014431763    -0.016089282797    12.000000000000
         H            3.961550879469     0.553350731763     0.099791717203     1.007825032230
         H            1.021880879469     2.677133731763    -0.417596282797     1.007825032230
         H            0.763135879469     2.258754731763     1.273881717203     1.007825032230
         H            2.395119879469     2.662956731763     0.713891717203     1.007825032230
         H            3.364842879469    -2.088776268237    -0.409374282797     1.007825032230
         H           -2.821792120531     2.079947731763    -0.772833282797     1.007825032230
         H           -3.159747120531    -1.941688268237     0.753006717203     1.007825032230
         H           -4.313987120531     0.174281731763    -0.024314282797     1.007825032230

  Basis Set: AUG-CC-PVTZ
    Blend: AUG-CC-PVTZ
  Basis Set: (AUG-CC-PVTZ AUX)
    Blend: AUG-CC-PVTZ-JKFIT
	 Reference Energy          =    -525.5427151604976643 [Eh]
	 Singles Energy            =      -0.0000000000000000 [Eh]
	 Same-Spin Energy          =      -0.5774804556424425 [Eh]
	 Opposite-Spin Energy      =      -1.7386797441235595 [Eh]
	 Correlation Energy        =      -2.3161601997660020 [Eh]
	 Total Energy              =    -527.8588753602637098 [Eh]

	 ================> DF-SCS-MP2 Energies <==================
	-----------------------------------------------------------
	 SCS Same-Spin Scale       =       0.3333333333333333 [-]
	 SCS Opposite-Spin Scale   =       1.2000000000000000 [-]
	 SCS Same-Spin Energy      =      -0.1924934852141475 [Eh]
	 SCS Opposite-Spin Energy  =      -2.0864156929482713 [Eh]
	 SCS Correlation Energy    =      -2.2789091781624187 [Eh]
	 SCS Total Energy          =    -527.8216243386600581 [Eh]
	-----------------------------------------------------------

  Dipole Moment: [D]
     X:    -2.5673      Y:     2.5767      Z:     0.4313     Total:     3.6628

*** Psi4 exiting successfully. Buy a developer a beer!
