                               Psi4 1.3.2 release

  ==> Input File <==

--------------------------------------------------------------------------
#psi4
#
memory 32 gb

molecule  {
0 1
  N        0.8160970    -0.2990240    -0.0443680
  N        1.3585440    -1.5263750    -0.2734470
  N       -1.0817850     0.9875590    -0.4601130
  N       -1.2686320    -1.2431920     0.4227390
  C        1.7597130     0.6951090     0.1272320
  C        2.9786120     0.0532150     0.0016160
  C       -0.6410246    -0.2589791     0.0085987
  C        1.4539390     2.1247050     0.4316710
  C        2.6793880    -1.2992810    -0.2463060
  C       -2.4210880     1.0928180    -0.4382200
  C       -2.6039190    -1.1175230     0.3972460
  C       -3.2414650     0.0469210    -0.0276130
  H        3.9528590     0.5149220     0.0929350
  H        1.0131890     2.6387050    -0.4244530
  H        0.7544440     2.2203260     1.2670250
  H        2.3864280     2.6245280     0.7070350
  H        3.3561510    -2.1272050    -0.4162310
  H       -2.8304840     2.0415190    -0.7796900
  H       -3.1684390    -1.9801170     0.7461500
  H       -4.3226790     0.1358530    -0.0311710
units angstrom
no_reorient  #important for SAPT in psi4, default
symmetry c1  #important for SAPT in psi4, default
}

set PROPERTIES_ORIGIN ["COM"]
properties('MP2/aug-cc-pvtz', properties = ['dipole'])
--------------------------------------------------------------------------

    Molecular point group: c1
  Charge       = 0
  Multiplicity = 1
  Basis Set: AUG-CC-PVTZ
    Blend: AUG-CC-PVTZ
  Basis Set: (AUG-CC-PVTZ AUX)
    Blend: AUG-CC-PVTZ-JKFIT

    Orbital Energies [Eh]
    ---------------------

    Doubly Occupied:

       1A    -15.636479     2A    -15.588545     3A    -15.577405
       4A    -15.575951     5A    -11.365389     6A    -11.316393
       7A    -11.313460     8A    -11.282709     9A    -11.257157
      10A    -11.248619    11A    -11.231487    12A    -11.212840
      13A     -1.381662    14A     -1.325434    15A     -1.215801
      16A     -1.119945    17A     -1.081249    18A     -1.043732
      19A     -0.954438    20A     -0.920558    21A     -0.890310
      22A     -0.793197    23A     -0.792172    24A     -0.718818
      25A     -0.708143    26A     -0.678560    27A     -0.636105
      28A     -0.634224    29A     -0.609729    30A     -0.587995
      31A     -0.583881    32A     -0.575675    33A     -0.559546
      34A     -0.549870    35A     -0.532199    36A     -0.493701
      37A     -0.451327    38A     -0.440533    39A     -0.427554
      40A     -0.403392    41A     -0.338787    42A     -0.327936

  @DF-RHF Final Energy:  -525.53045284950224

   => Energetics <=

    Nuclear Repulsion Energy =            658.1846252944997104
    One-Electron Energy =               -2018.6643402068812065
    Two-Electron Energy =                 834.9492620628792565
    Total Energy =                       -525.5304528495022396
  Basis Set: (AUG-CC-PVTZ AUX)
    Blend: AUG-CC-PVTZ-RI
    Molecular point group: c1

    Geometry (in Angstrom), charge = 0, multiplicity = 1:

       Center              X                  Y                   Z               Mass
    ------------   -----------------  -----------------  -----------------  -----------------
         N            0.826974024099    -0.255413109015    -0.039668000733    14.003074004430
         N            1.369421024099    -1.482764109015    -0.268747000733    14.003074004430
         N           -1.070907975901     1.031169890985    -0.455413000733    14.003074004430
         N           -1.257754975901    -1.199581109015     0.427438999267    14.003074004430
         C            1.770590024099     0.738719890985     0.131931999267    12.000000000000
         C            2.989489024099     0.096825890985     0.006315999267    12.000000000000
         C           -0.630147575901    -0.215368209015     0.013298699267    12.000000000000
         C            1.464816024099     2.168315890985     0.436370999267    12.000000000000
         C            2.690265024099    -1.255670109015    -0.241606000733    12.000000000000
         C           -2.410210975901     1.136428890985    -0.433520000733    12.000000000000
         C           -2.593041975901    -1.073912109015     0.401945999267    12.000000000000
         C           -3.230587975901     0.090531890985    -0.022913000733    12.000000000000
         H            3.963736024099     0.558532890985     0.097634999267     1.007825032230
         H            1.024066024099     2.682315890985    -0.419753000733     1.007825032230
         H            0.765321024099     2.263936890985     1.271724999267     1.007825032230
         H            2.397305024099     2.668138890985     0.711734999267     1.007825032230
         H            3.367028024099    -2.083594109015    -0.411531000733     1.007825032230
         H           -2.819606975901     2.085129890985    -0.774990000733     1.007825032230
         H           -3.157561975901    -1.936506109015     0.750849999267     1.007825032230
         H           -4.311801975901     0.179463890985    -0.026471000733     1.007825032230

  Basis Set: AUG-CC-PVTZ
    Blend: AUG-CC-PVTZ
  Basis Set: (AUG-CC-PVTZ AUX)
    Blend: AUG-CC-PVTZ-JKFIT
	 Reference Energy          =    -525.5304528495022396 [Eh]
	 Singles Energy            =      -0.0000000000000000 [Eh]
	 Same-Spin Energy          =      -0.5773251249546176 [Eh]
	 Opposite-Spin Energy      =      -1.7390420294411291 [Eh]
	 Correlation Energy        =      -2.3163671543957465 [Eh]
	 Total Energy              =    -527.8468200038979603 [Eh]

	 ================> DF-SCS-MP2 Energies <==================
	-----------------------------------------------------------
	 SCS Same-Spin Scale       =       0.3333333333333333 [-]
	 SCS Opposite-Spin Scale   =       1.2000000000000000 [-]
	 SCS Same-Spin Energy      =      -0.1924417083182059 [Eh]
	 SCS Opposite-Spin Energy  =      -2.0868504353293549 [Eh]
	 SCS Correlation Energy    =      -2.2792921436475608 [Eh]
	 SCS Total Energy          =    -527.8097449931498204 [Eh]
	-----------------------------------------------------------

  Dipole Moment: [D]
     X:    -3.0861      Y:     2.4809      Z:     0.5050     Total:     3.9917

*** Psi4 exiting successfully. Buy a developer a beer!
