                               Psi4 1.3.2 release

  ==> Input File <==

--------------------------------------------------------------------------
#psi4
#
memory 32 gb

molecule  {
0 1
  N        0.8160970    -0.2990240    -0.0443680
  N        1.3585440    -1.5263750    -0.2734470
  N       -1.0817850     0.9875590    -0.4601130
  N       -1.2686320    -1.2431920     0.4227390
  C        1.7597130     0.6951090     0.1272320
  C        2.9786120     0.0532150     0.0016160
  C       -0.5903530    -0.1795160    -0.0248380
  C        1.4539390     2.1247050     0.4316710
  C        2.6793880    -1.2992810    -0.2463060
  C       -2.4210880     1.0928180    -0.4382200
  C       -2.6039190    -1.1175230     0.3972460
  C       -3.1978436     0.0665244    -0.0365573
  H        3.9528590     0.5149220     0.0929350
  H        1.0131890     2.6387050    -0.4244530
  H        0.7544440     2.2203260     1.2670250
  H        2.3864280     2.6245280     0.7070350
  H        3.3561510    -2.1272050    -0.4162310
  H       -2.8304840     2.0415190    -0.7796900
  H       -3.1684390    -1.9801170     0.7461500
  H       -4.3226790     0.1358530    -0.0311710
units angstrom
no_reorient  #important for SAPT in psi4, default
symmetry c1  #important for SAPT in psi4, default
}

set PROPERTIES_ORIGIN ["COM"]
properties('MP2/aug-cc-pvtz', properties = ['dipole'])
--------------------------------------------------------------------------

    Molecular point group: c1
  Charge       = 0
  Multiplicity = 1
  Basis Set: AUG-CC-PVTZ
    Blend: AUG-CC-PVTZ
  Basis Set: (AUG-CC-PVTZ AUX)
    Blend: AUG-CC-PVTZ-JKFIT

    Orbital Energies [Eh]
    ---------------------

    Doubly Occupied:

       1A    -15.641567     2A    -15.581098     3A    -15.580718
       4A    -15.579581     5A    -11.366347     6A    -11.311286
       7A    -11.304614     8A    -11.286275     9A    -11.254109
      10A    -11.251717    11A    -11.234260    12A    -11.216872
      13A     -1.386065    14A     -1.314134    15A     -1.206686
      16A     -1.131137    17A     -1.084275    18A     -1.046432
      19A     -0.958324    20A     -0.912841    21A     -0.894707
      22A     -0.800007    23A     -0.795731    24A     -0.715013
      25A     -0.708355    26A     -0.678990    27A     -0.638785
      28A     -0.625133    29A     -0.611454    30A     -0.589517
      31A     -0.588402    32A     -0.576159    33A     -0.563201
      34A     -0.553024    35A     -0.535180    36A     -0.486869
      37A     -0.454969    38A     -0.430739    39A     -0.421142
      40A     -0.410317    41A     -0.338673    42A     -0.331991

  @DF-RHF Final Energy:  -525.54048298852808

   => Energetics <=

    Nuclear Repulsion Energy =            659.2254536037737580
    One-Electron Energy =               -2020.7384779339136003
    Two-Electron Energy =                 835.9725413416117590
    Total Energy =                       -525.5404829885280833
  Basis Set: (AUG-CC-PVTZ AUX)
    Blend: AUG-CC-PVTZ-RI
    Molecular point group: c1

    Geometry (in Angstrom), charge = 0, multiplicity = 1:

       Center              X                  Y                   Z               Mass
    ------------   -----------------  -----------------  -----------------  -----------------
         N            0.819905357954    -0.262839620152    -0.036490912934    14.003074004430
         N            1.362352357954    -1.490190620152    -0.265569912934    14.003074004430
         N           -1.077976642046     1.023743379848    -0.452235912934    14.003074004430
         N           -1.264823642046    -1.207007620152     0.430616087066    14.003074004430
         C            1.763521357954     0.731293379848     0.135109087066    12.000000000000
         C            2.982420357954     0.089399379848     0.009493087066    12.000000000000
         C           -0.586544642046    -0.143331620152    -0.016960912934    12.000000000000
         C            1.457747357954     2.160889379848     0.439548087066    12.000000000000
         C            2.683196357954    -1.263096620152    -0.238428912934    12.000000000000
         C           -2.417279642046     1.129002379848    -0.430342912934    12.000000000000
         C           -2.600110642046    -1.081338620152     0.405123087066    12.000000000000
         C           -3.194035242046     0.102708779848    -0.028680212934    12.000000000000
         H            3.956667357954     0.551106379848     0.100812087066     1.007825032230
         H            1.016997357954     2.674889379848    -0.416575912934     1.007825032230
         H            0.758252357954     2.256510379848     1.274902087066     1.007825032230
         H            2.390236357954     2.660712379848     0.714912087066     1.007825032230
         H            3.359959357954    -2.091020620152    -0.408353912934     1.007825032230
         H           -2.826675642046     2.077703379848    -0.771812912934     1.007825032230
         H           -3.164630642046    -1.943932620152     0.754027087066     1.007825032230
         H           -4.318870642046     0.172037379848    -0.023293912934     1.007825032230

  Basis Set: AUG-CC-PVTZ
    Blend: AUG-CC-PVTZ
  Basis Set: (AUG-CC-PVTZ AUX)
    Blend: AUG-CC-PVTZ-JKFIT
	 Reference Energy          =    -525.5404829885280833 [Eh]
	 Singles Energy            =      -0.0000000000000000 [Eh]
	 Same-Spin Energy          =      -0.5777705206011645 [Eh]
	 Opposite-Spin Energy      =      -1.7387774139587702 [Eh]
	 Correlation Energy        =      -2.3165479345599347 [Eh]
	 Total Energy              =    -527.8570309230880184 [Eh]

	 ================> DF-SCS-MP2 Energies <==================
	-----------------------------------------------------------
	 SCS Same-Spin Scale       =       0.3333333333333333 [-]
	 SCS Opposite-Spin Scale   =       1.2000000000000000 [-]
	 SCS Same-Spin Energy      =      -0.1925901735337215 [Eh]
	 SCS Opposite-Spin Energy  =      -2.0865328967505241 [Eh]
	 SCS Correlation Energy    =      -2.2791230702842458 [Eh]
	 SCS Total Energy          =    -527.8196060588123828 [Eh]
	-----------------------------------------------------------

  Dipole Moment: [D]
     X:    -2.5917      Y:     2.5121      Z:     0.4567     Total:     3.6382

*** Psi4 exiting successfully. Buy a developer a beer!
