                               Psi4 1.3.2 release

  ==> Input File <==

--------------------------------------------------------------------------
#psi4
#
memory 32 gb

molecule  {
0 1
  N        0.8160970    -0.2990240    -0.0443680
  N        1.3585440    -1.5263750    -0.2734470
  N       -1.0804088     1.0094218    -0.4684816
  N       -1.2686320    -1.2431920     0.4227390
  C        1.7597130     0.6951090     0.1272320
  C        2.9786120     0.0532150     0.0016160
  C       -0.5903530    -0.1795160    -0.0248380
  C        1.4539390     2.1247050     0.4316710
  C        2.6793880    -1.2992810    -0.2463060
  C       -2.4210880     1.0928180    -0.4382200
  C       -2.6039190    -1.1175230     0.3972460
  C       -3.2414650     0.0469210    -0.0276130
  H        3.9528590     0.5149220     0.0929350
  H        1.0131890     2.6387050    -0.4244530
  H        0.7544440     2.2203260     1.2670250
  H        2.3864280     2.6245280     0.7070350
  H        3.3561510    -2.1272050    -0.4162310
  H       -2.8304840     2.0415190    -0.7796900
  H       -3.1684390    -1.9801170     0.7461500
  H       -4.3226790     0.1358530    -0.0311710
units angstrom
no_reorient  #important for SAPT in psi4, default
symmetry c1  #important for SAPT in psi4, default
}

set PROPERTIES_ORIGIN ["COM"]
properties('MP2/aug-cc-pvtz', properties = ['dipole'])
--------------------------------------------------------------------------

    Molecular point group: c1
  Charge       = 0
  Multiplicity = 1
  Basis Set: AUG-CC-PVTZ
    Blend: AUG-CC-PVTZ
  Basis Set: (AUG-CC-PVTZ AUX)
    Blend: AUG-CC-PVTZ-JKFIT

    Orbital Energies [Eh]
    ---------------------

    Doubly Occupied:

       1A    -15.642982     2A    -15.585423     3A    -15.581880
       4A    -15.579511     5A    -11.370281     6A    -11.310946
       7A    -11.309939     8A    -11.287209     9A    -11.255089
      10A    -11.252305    11A    -11.234717    12A    -11.217756
      13A     -1.386060    14A     -1.309880    15A     -1.205631
      16A     -1.129345    17A     -1.084310    18A     -1.044419
      19A     -0.959016    20A     -0.907186    21A     -0.896557
      22A     -0.799662    23A     -0.795266    24A     -0.710954
      25A     -0.707623    26A     -0.682425    27A     -0.637781
      28A     -0.633363    29A     -0.606792    30A     -0.588743
      31A     -0.585575    32A     -0.574172    33A     -0.564376
      34A     -0.552578    35A     -0.536328    36A     -0.493101
      37A     -0.455599    38A     -0.431130    39A     -0.421429
      40A     -0.407322    41A     -0.337638    42A     -0.332773

  @DF-RHF Final Energy:  -525.54188476424736

   => Energetics <=

    Nuclear Repulsion Energy =            657.7219372973003146
    One-Electron Energy =               -2017.7174976530000094
    Two-Electron Energy =                 834.4536755914522246
    Total Energy =                       -525.5418847642473565
  Basis Set: (AUG-CC-PVTZ AUX)
    Blend: AUG-CC-PVTZ-RI
    Molecular point group: c1

    Geometry (in Angstrom), charge = 0, multiplicity = 1:

       Center              X                  Y                   Z               Mass
    ------------   -----------------  -----------------  -----------------  -----------------
         N            0.823055044640    -0.263282572845    -0.036429350969    14.003074004430
         N            1.365502044640    -1.490633572845    -0.265508350969    14.003074004430
         N           -1.073450755360     1.045163227155    -0.460542950969    14.003074004430
         N           -1.261673955360    -1.207450572845     0.430677649031    14.003074004430
         C            1.766671044640     0.730850427155     0.135170649031    12.000000000000
         C            2.985570044640     0.088956427155     0.009554649031    12.000000000000
         C           -0.583394955360    -0.143774572845    -0.016899350969    12.000000000000
         C            1.460897044640     2.160446427155     0.439609649031    12.000000000000
         C            2.686346044640    -1.263539572845    -0.238367350969    12.000000000000
         C           -2.414129955360     1.128559427155    -0.430281350969    12.000000000000
         C           -2.596960955360    -1.081781572845     0.405184649031    12.000000000000
         C           -3.234506955360     0.082662427155    -0.019674350969    12.000000000000
         H            3.959817044640     0.550663427155     0.100873649031     1.007825032230
         H            1.020147044640     2.674446427155    -0.416514350969     1.007825032230
         H            0.761402044640     2.256067427155     1.274963649031     1.007825032230
         H            2.393386044640     2.660269427155     0.714973649031     1.007825032230
         H            3.363109044640    -2.091463572845    -0.408292350969     1.007825032230
         H           -2.823525955360     2.077260427155    -0.771751350969     1.007825032230
         H           -3.161480955360    -1.944375572845     0.754088649031     1.007825032230
         H           -4.315720955360     0.171594427155    -0.023232350969     1.007825032230

  Basis Set: AUG-CC-PVTZ
    Blend: AUG-CC-PVTZ
  Basis Set: (AUG-CC-PVTZ AUX)
    Blend: AUG-CC-PVTZ-JKFIT
	 Reference Energy          =    -525.5418847642473565 [Eh]
	 Singles Energy            =      -0.0000000000000000 [Eh]
	 Same-Spin Energy          =      -0.5777313748681585 [Eh]
	 Opposite-Spin Energy      =      -1.7393001149942204 [Eh]
	 Correlation Energy        =      -2.3170314898623792 [Eh]
	 Total Energy              =    -527.8589162541097721 [Eh]

	 ================> DF-SCS-MP2 Energies <==================
	-----------------------------------------------------------
	 SCS Same-Spin Scale       =       0.3333333333333333 [-]
	 SCS Opposite-Spin Scale   =       1.2000000000000000 [-]
	 SCS Same-Spin Energy      =      -0.1925771249560528 [Eh]
	 SCS Opposite-Spin Energy  =      -2.0871601379930644 [Eh]
	 SCS Correlation Energy    =      -2.2797372629491175 [Eh]
	 SCS Total Energy          =    -527.8216220271964403 [Eh]
	-----------------------------------------------------------

  Dipole Moment: [D]
     X:    -2.5448      Y:     2.5141      Z:     0.4540     Total:     3.6060

*** Psi4 exiting successfully. Buy a developer a beer!
