                               Psi4 1.3.2 release

  ==> Input File <==

--------------------------------------------------------------------------
#psi4
#
memory 32 gb

molecule  {
0 1
  N        0.8160970    -0.2990240    -0.0443680
  N        1.3585440    -1.5263750    -0.2734470
  N       -1.0817850     0.9875590    -0.4601130
  N       -1.2686320    -1.2431920     0.4227390
  C        1.7597130     0.6951090     0.1272320
  C        2.9786120     0.0532150     0.0016160
  C       -0.5903530    -0.1795160    -0.0248380
  C        1.4539390     2.1247050     0.4316710
  C        2.7760314    -1.3166531    -0.2487202
  C       -2.4210880     1.0928180    -0.4382200
  C       -2.6039190    -1.1175230     0.3972460
  C       -3.2414650     0.0469210    -0.0276130
  H        3.9528590     0.5149220     0.0929350
  H        1.0131890     2.6387050    -0.4244530
  H        0.7544440     2.2203260     1.2670250
  H        2.3864280     2.6245280     0.7070350
  H        3.3561510    -2.1272050    -0.4162310
  H       -2.8304840     2.0415190    -0.7796900
  H       -3.1684390    -1.9801170     0.7461500
  H       -4.3226790     0.1358530    -0.0311710
units angstrom
no_reorient  #important for SAPT in psi4, default
symmetry c1  #important for SAPT in psi4, default
}

set PROPERTIES_ORIGIN ["COM"]
properties('MP2/aug-cc-pvtz', properties = ['dipole'])
--------------------------------------------------------------------------

    Molecular point group: c1
  Charge       = 0
  Multiplicity = 1
  Basis Set: AUG-CC-PVTZ
    Blend: AUG-CC-PVTZ
  Basis Set: (AUG-CC-PVTZ AUX)
    Blend: AUG-CC-PVTZ-JKFIT

    Orbital Energies [Eh]
    ---------------------

    Doubly Occupied:

       1A    -15.648334     2A    -15.586817     3A    -15.584307
       4A    -15.580265     5A    -11.369112     6A    -11.312563
       7A    -11.310400     8A    -11.284858     9A    -11.258038
      10A    -11.254260    11A    -11.234516    12A    -11.221463
      13A     -1.379849    14A     -1.308971    15A     -1.207342
      16A     -1.118608    17A     -1.078874    18A     -1.045224
      19A     -0.954401    20A     -0.909691    21A     -0.901408
      22A     -0.811953    23A     -0.793006    24A     -0.714160
      25A     -0.705252    26A     -0.682333    27A     -0.638699
      28A     -0.633671    29A     -0.609319    30A     -0.594366
      31A     -0.587709    32A     -0.578220    33A     -0.557221
      34A     -0.548251    35A     -0.543857    36A     -0.492840
      37A     -0.447273    38A     -0.431176    39A     -0.419840
      40A     -0.405018    41A     -0.339746    42A     -0.320322

  @DF-RHF Final Energy:  -525.52307454331799

   => Energetics <=

    Nuclear Repulsion Energy =            656.1168806769584307
    One-Electron Energy =               -2014.4728459538434890
    Two-Electron Energy =                 832.8328907335669555
    Total Energy =                       -525.5230745433179891
  Basis Set: (AUG-CC-PVTZ AUX)
    Blend: AUG-CC-PVTZ-RI
    Molecular point group: c1

    Geometry (in Angstrom), charge = 0, multiplicity = 1:

       Center              X                  Y                   Z               Mass
    ------------   -----------------  -----------------  -----------------  -----------------
         N            0.815930568560    -0.260067755167    -0.036980441284    14.003074004430
         N            1.358377568560    -1.487418755167    -0.266059441284    14.003074004430
         N           -1.081951431440     1.026515244833    -0.452725441284    14.003074004430
         N           -1.268798431440    -1.204235755167     0.430126558716    14.003074004430
         C            1.759546568560     0.734065244833     0.134619558716    12.000000000000
         C            2.978445568560     0.092171244833     0.009003558716    12.000000000000
         C           -0.590519431440    -0.140559755167    -0.017450441284    12.000000000000
         C            1.453772568560     2.163661244833     0.439058558716    12.000000000000
         C            2.775864968560    -1.277696855167    -0.241332641284    12.000000000000
         C           -2.421254431440     1.131774244833    -0.430832441284    12.000000000000
         C           -2.604085431440    -1.078566755167     0.404633558716    12.000000000000
         C           -3.241631431440     0.085877244833    -0.020225441284    12.000000000000
         H            3.952692568560     0.553878244833     0.100322558716     1.007825032230
         H            1.013022568560     2.677661244833    -0.417065441284     1.007825032230
         H            0.754277568560     2.259282244833     1.274412558716     1.007825032230
         H            2.386261568560     2.663484244833     0.714422558716     1.007825032230
         H            3.355984568560    -2.088248755167    -0.408843441284     1.007825032230
         H           -2.830650431440     2.080475244833    -0.772302441284     1.007825032230
         H           -3.168605431440    -1.941160755167     0.753537558716     1.007825032230
         H           -4.322845431440     0.174809244833    -0.023783441284     1.007825032230

  Basis Set: AUG-CC-PVTZ
    Blend: AUG-CC-PVTZ
  Basis Set: (AUG-CC-PVTZ AUX)
    Blend: AUG-CC-PVTZ-JKFIT
	 Reference Energy          =    -525.5230745433179891 [Eh]
	 Singles Energy            =      -0.0000000000000000 [Eh]
	 Same-Spin Energy          =      -0.5803509148157997 [Eh]
	 Opposite-Spin Energy      =      -1.7442384514140454 [Eh]
	 Correlation Energy        =      -2.3245893662298451 [Eh]
	 Total Energy              =    -527.8476639095478049 [Eh]

	 ================> DF-SCS-MP2 Energies <==================
	-----------------------------------------------------------
	 SCS Same-Spin Scale       =       0.3333333333333333 [-]
	 SCS Opposite-Spin Scale   =       1.2000000000000000 [-]
	 SCS Same-Spin Energy      =      -0.1934503049385999 [Eh]
	 SCS Opposite-Spin Energy  =      -2.0930861416968543 [Eh]
	 SCS Correlation Energy    =      -2.2865364466354543 [Eh]
	 SCS Total Energy          =    -527.8096109899533985 [Eh]
	-----------------------------------------------------------

  Dipole Moment: [D]
     X:    -2.7268      Y:     2.5680      Z:     0.4439     Total:     3.7719

*** Psi4 exiting successfully. Buy a developer a beer!
