                               Psi4 1.3.2 release

  ==> Input File <==

--------------------------------------------------------------------------
#psi4
#
memory 32 gb

molecule  {
0 1
  N        0.8160970    -0.2990240    -0.0443680
  N        1.3585440    -1.5263750    -0.2734470
  N       -1.0817850     0.9875590    -0.4601130
  N       -1.2686320    -1.2431920     0.4227390
  C        1.7597130     0.6951090     0.1272320
  C        2.9786120     0.0532150     0.0016160
  C       -0.5903530    -0.1795160    -0.0248380
  C        1.4539390     2.1247050     0.4316710
  C        2.6793880    -1.2992810    -0.2463060
  C       -2.2217293     1.0771499    -0.4414788
  C       -2.6039190    -1.1175230     0.3972460
  C       -3.2414650     0.0469210    -0.0276130
  H        3.9528590     0.5149220     0.0929350
  H        1.0131890     2.6387050    -0.4244530
  H        0.7544440     2.2203260     1.2670250
  H        2.3864280     2.6245280     0.7070350
  H        3.3561510    -2.1272050    -0.4162310
  H       -2.8304840     2.0415190    -0.7796900
  H       -3.1684390    -1.9801170     0.7461500
  H       -4.3226790     0.1358530    -0.0311710
units angstrom
no_reorient  #important for SAPT in psi4, default
symmetry c1  #important for SAPT in psi4, default
}

set PROPERTIES_ORIGIN ["COM"]
properties('MP2/aug-cc-pvtz', properties = ['dipole'])
--------------------------------------------------------------------------

    Molecular point group: c1
  Charge       = 0
  Multiplicity = 1
  Basis Set: AUG-CC-PVTZ
    Blend: AUG-CC-PVTZ
  Basis Set: (AUG-CC-PVTZ AUX)
    Blend: AUG-CC-PVTZ-JKFIT

    Orbital Energies [Eh]
    ---------------------

    Doubly Occupied:

       1A    -15.647530     2A    -15.585202     3A    -15.577216
       4A    -15.575989     5A    -11.376482     6A    -11.308328
       7A    -11.296389     8A    -11.291276     9A    -11.258614
      10A    -11.252912    11A    -11.240246    12A    -11.221733
      13A     -1.401955    14A     -1.355626    15A     -1.240331
      16A     -1.132849    17A     -1.085945    18A     -1.028898
      19A     -0.964292    20A     -0.923060    21A     -0.884918
      22A     -0.806163    23A     -0.799332    24A     -0.719210
      25A     -0.709108    26A     -0.681864    27A     -0.650303
      28A     -0.632690    29A     -0.611795    30A     -0.594975
      31A     -0.591125    32A     -0.579638    33A     -0.566141
      34A     -0.562180    35A     -0.539343    36A     -0.489619
      37A     -0.466702    38A     -0.453631    39A     -0.403060
      40A     -0.400028    41A     -0.336810    42A     -0.330000

  @DF-RHF Final Energy:  -525.48562627554338

   => Energetics <=

    Nuclear Repulsion Energy =            661.9982520236137589
    One-Electron Energy =               -2025.8207457047144544
    Two-Electron Energy =                 838.3368674055573138
    Total Energy =                       -525.4856262755433818
  Basis Set: (AUG-CC-PVTZ AUX)
    Blend: AUG-CC-PVTZ-RI
    Molecular point group: c1

    Geometry (in Angstrom), charge = 0, multiplicity = 1:

       Center              X                  Y                   Z               Mass
    ------------   -----------------  -----------------  -----------------  -----------------
         N            0.808230525463    -0.260195495372    -0.036917125922    14.003074004430
         N            1.350677525463    -1.487546495372    -0.265996125922    14.003074004430
         N           -1.089651474537     1.026387504628    -0.452662125922    14.003074004430
         N           -1.276498474537    -1.204363495372     0.430189874078    14.003074004430
         C            1.751846525463     0.733937504628     0.134682874078    12.000000000000
         C            2.970745525463     0.092043504628     0.009066874078    12.000000000000
         C           -0.598219474537    -0.140687495372    -0.017387125922    12.000000000000
         C            1.446072525463     2.163533504628     0.439121874078    12.000000000000
         C            2.671521525463    -1.260452495372    -0.238855125922    12.000000000000
         C           -2.229595774537     1.115978404628    -0.434027925922    12.000000000000
         C           -2.611785474537    -1.078694495372     0.404696874078    12.000000000000
         C           -3.249331474537     0.085749504628    -0.020162125922    12.000000000000
         H            3.944992525463     0.553750504628     0.100385874078     1.007825032230
         H            1.005322525463     2.677533504628    -0.417002125922     1.007825032230
         H            0.746577525463     2.259154504628     1.274475874078     1.007825032230
         H            2.378561525463     2.663356504628     0.714485874078     1.007825032230
         H            3.348284525463    -2.088376495372    -0.408780125922     1.007825032230
         H           -2.838350474537     2.080347504628    -0.772239125922     1.007825032230
         H           -3.176305474537    -1.941288495372     0.753600874078     1.007825032230
         H           -4.330545474537     0.174681504628    -0.023720125922     1.007825032230

  Basis Set: AUG-CC-PVTZ
    Blend: AUG-CC-PVTZ
  Basis Set: (AUG-CC-PVTZ AUX)
    Blend: AUG-CC-PVTZ-JKFIT
	 Reference Energy          =    -525.4856262755433818 [Eh]
	 Singles Energy            =      -0.0000000000000000 [Eh]
	 Same-Spin Energy          =      -0.5759410147706022 [Eh]
	 Opposite-Spin Energy      =      -1.7369418269095660 [Eh]
	 Correlation Energy        =      -2.3128828416801683 [Eh]
	 Total Energy              =    -527.7985091172236025 [Eh]

	 ================> DF-SCS-MP2 Energies <==================
	-----------------------------------------------------------
	 SCS Same-Spin Scale       =       0.3333333333333333 [-]
	 SCS Opposite-Spin Scale   =       1.2000000000000000 [-]
	 SCS Same-Spin Energy      =      -0.1919803382568674 [Eh]
	 SCS Opposite-Spin Energy  =      -2.0843301922914792 [Eh]
	 SCS Correlation Energy    =      -2.2763105305483466 [Eh]
	 SCS Total Energy          =    -527.7619368060917395 [Eh]
	-----------------------------------------------------------

  Dipole Moment: [D]
     X:    -1.9985      Y:     2.5682      Z:     0.4124     Total:     3.2803

*** Psi4 exiting successfully. Buy a developer a beer!
