                               Psi4 1.4a3.dev225

  ==> Input File <==

--------------------------------------------------------------------------
#psi4
#
memory 32 gb

molecule  {
0 1
  N        0.8160970    -0.2990240    -0.0443680
  N        1.3585440    -1.5263750    -0.2734470
  N       -1.0817850     0.9875590    -0.4601130
  N       -1.2686320    -1.2431920     0.4227390
  C        1.7597130     0.6951090     0.1272320
  C        2.9786120     0.0532150     0.0016160
  C       -0.5903530    -0.1795160    -0.0248380
  C        1.4539390     2.1247050     0.4316710
  C        2.6793880    -1.2992810    -0.2463060
  C       -2.4210880     1.0928180    -0.4382200
  C       -2.5840106    -1.1193967     0.3976261
  C       -3.2414650     0.0469210    -0.0276130
  H        3.9528590     0.5149220     0.0929350
  H        1.0131890     2.6387050    -0.4244530
  H        0.7544440     2.2203260     1.2670250
  H        2.3864280     2.6245280     0.7070350
  H        3.3561510    -2.1272050    -0.4162310
  H       -2.8304840     2.0415190    -0.7796900
  H       -3.1684390    -1.9801170     0.7461500
  H       -4.3226790     0.1358530    -0.0311710
units angstrom
no_reorient  #important for SAPT in psi4, default
symmetry c1  #important for SAPT in psi4, default
}

set PROPERTIES_ORIGIN ["COM"]
properties('MP2/aug-cc-pvtz', properties = ['dipole'])
--------------------------------------------------------------------------

    Molecular point group: c1
  Charge       = 0
  Multiplicity = 1
  Basis Set: AUG-CC-PVTZ
    Blend: AUG-CC-PVTZ
  Basis Set: (AUG-CC-PVTZ AUX)
    Blend: AUG-CC-PVTZ-JKFIT

    Orbital Energies [Eh]
    ---------------------

    Doubly Occupied:

       1A    -15.642597     2A    -15.582018     3A    -15.581852
       4A    -15.578161     5A    -11.368386     6A    -11.310181
       7A    -11.309479     8A    -11.287091     9A    -11.254961
      10A    -11.252778    11A    -11.234848    12A    -11.217660
      13A     -1.387137    14A     -1.315049    15A     -1.210258
      16A     -1.129266    17A     -1.084176    18A     -1.043805
      19A     -0.959020    20A     -0.907364    21A     -0.898157
      22A     -0.800671    23A     -0.795167    24A     -0.713687
      25A     -0.707766    26A     -0.682336    27A     -0.638668
      28A     -0.633939    29A     -0.605847    30A     -0.589364
      31A     -0.586602    32A     -0.575985    33A     -0.564158
      34A     -0.553108    35A     -0.536175    36A     -0.492673
      37A     -0.455457    38A     -0.433603    39A     -0.419407
      40A     -0.406667    41A     -0.337473    42A     -0.332732

  @DF-RHF Final Energy:  -525.54389734040296

   => Energetics <=

    Nuclear Repulsion Energy =            658.5912681603811052
    One-Electron Energy =               -2019.4388736935782163
    Two-Electron Energy =                 835.3037081927941472
    Total Energy =                       -525.5438973404029639
  Basis Set: (AUG-CC-PVTZ AUX)
    Blend: AUG-CC-PVTZ-RI
    Molecular point group: c1

    Geometry (in Angstrom), charge = 0, multiplicity = 1:

       Center              X                  Y                   Z               Mass
    ------------   -----------------  -----------------  -----------------  -----------------
         N            0.821683000836    -0.261229591310    -0.037189915729    14.003074004430
         N            1.364130000836    -1.488580591310    -0.266268915729    14.003074004430
         N           -1.076198999164     1.025353408690    -0.452934915729    14.003074004430
         N           -1.263045999164    -1.205397591310     0.429917084271    14.003074004430
         C            1.765299000836     0.732903408690     0.134410084271    12.000000000000
         C            2.984198000836     0.091009408690     0.008794084271    12.000000000000
         C           -0.584766999164    -0.141721591310    -0.017659915729    12.000000000000
         C            1.459525000836     2.162499408690     0.438849084271    12.000000000000
         C            2.684974000836    -1.261486591310    -0.239127915729    12.000000000000
         C           -2.415501999164     1.130612408690    -0.431041915729    12.000000000000
         C           -2.578424599164    -1.081602291310     0.404804184271    12.000000000000
         C           -3.235878999164     0.084715408690    -0.020434915729    12.000000000000
         H            3.958445000836     0.552716408690     0.100113084271     1.007825032230
         H            1.018775000836     2.676499408690    -0.417274915729     1.007825032230
         H            0.760030000836     2.258120408690     1.274203084271     1.007825032230
         H            2.392014000836     2.662322408690     0.714213084271     1.007825032230
         H            3.361737000836    -2.089410591310    -0.409052915729     1.007825032230
         H           -2.824897999164     2.079313408690    -0.772511915729     1.007825032230
         H           -3.162852999164    -1.942322591310     0.753328084271     1.007825032230
         H           -4.317092999164     0.173647408690    -0.023992915729     1.007825032230

  Basis Set: AUG-CC-PVTZ
    Blend: AUG-CC-PVTZ
  Basis Set: (AUG-CC-PVTZ AUX)
    Blend: AUG-CC-PVTZ-JKFIT
	 Reference Energy          =    -525.5438973404029639 [Eh]
	 Singles Energy            =      -0.0000000000000000 [Eh]
	 Same-Spin Energy          =      -0.5773781033392069 [Eh]
	 Opposite-Spin Energy      =      -1.7381985509653743 [Eh]
	 Correlation Energy        =      -2.3155766543045813 [Eh]
	 Total Energy              =    -527.8594739947075141 [Eh]

	 ================> DF-SCS-MP2 Energies <==================
	-----------------------------------------------------------
	 SCS Same-Spin Scale       =       0.3333333333333333 [-]
	 SCS Opposite-Spin Scale   =       1.2000000000000000 [-]
	 SCS Same-Spin Energy      =      -0.1924593677797356 [Eh]
	 SCS Opposite-Spin Energy  =      -2.0858382611584489 [Eh]
	 SCS Correlation Energy    =      -2.2782976289381844 [Eh]
	 SCS Total Energy          =    -527.8221949693411261 [Eh]
	-----------------------------------------------------------

  Dipole Moment: [D]
     X:    -2.5411      Y:     2.5461      Z:     0.4433     Total:     3.6244

*** Psi4 exiting successfully. Buy a developer a beer!
