                               Psi4 1.3.2 release

  ==> Input File <==

--------------------------------------------------------------------------
#psi4
#
memory 32 gb

molecule  {
0 1
  N        0.8140679    -0.3218448    -0.0353066
  N        1.3585440    -1.5263750    -0.2734470
  N       -1.0817850     0.9875590    -0.4601130
  N       -1.2686320    -1.2431920     0.4227390
  C        1.7597130     0.6951090     0.1272320
  C        2.9786120     0.0532150     0.0016160
  C       -0.5903530    -0.1795160    -0.0248380
  C        1.4539390     2.1247050     0.4316710
  C        2.6793880    -1.2992810    -0.2463060
  C       -2.4210880     1.0928180    -0.4382200
  C       -2.6039190    -1.1175230     0.3972460
  C       -3.2414650     0.0469210    -0.0276130
  H        3.9528590     0.5149220     0.0929350
  H        1.0131890     2.6387050    -0.4244530
  H        0.7544440     2.2203260     1.2670250
  H        2.3864280     2.6245280     0.7070350
  H        3.3561510    -2.1272050    -0.4162310
  H       -2.8304840     2.0415190    -0.7796900
  H       -3.1684390    -1.9801170     0.7461500
  H       -4.3226790     0.1358530    -0.0311710
units angstrom
no_reorient  #important for SAPT in psi4, default
symmetry c1  #important for SAPT in psi4, default
}

set PROPERTIES_ORIGIN ["COM"]
properties('MP2/aug-cc-pvtz', properties = ['dipole'])
--------------------------------------------------------------------------

    Molecular point group: c1
  Charge       = 0
  Multiplicity = 1
  Basis Set: AUG-CC-PVTZ
    Blend: AUG-CC-PVTZ
  Basis Set: (AUG-CC-PVTZ AUX)
    Blend: AUG-CC-PVTZ-JKFIT

    Orbital Energies [Eh]
    ---------------------

    Doubly Occupied:

       1A    -15.643069     2A    -15.582988     3A    -15.581948
       4A    -15.578230     5A    -11.367189     6A    -11.311851
       7A    -11.309300     8A    -11.286381     9A    -11.253268
      10A    -11.252740    11A    -11.234719    12A    -11.218378
      13A     -1.389576    14A     -1.313649    15A     -1.206023
      16A     -1.128608    17A     -1.083302    18A     -1.045579
      19A     -0.958782    20A     -0.909167    21A     -0.895866
      22A     -0.800929    23A     -0.794506    24A     -0.712937
      25A     -0.708092    26A     -0.682686    27A     -0.638337
      28A     -0.633764    29A     -0.607166    30A     -0.590357
      31A     -0.586427    32A     -0.575545    33A     -0.564379
      34A     -0.553931    35A     -0.535589    36A     -0.491401
      37A     -0.454859    38A     -0.430604    39A     -0.420285
      40A     -0.407321    41A     -0.338081    42A     -0.331197

  @DF-RHF Final Energy:  -525.54298017472036

   => Energetics <=

    Nuclear Repulsion Energy =            658.2621890475312512
    One-Electron Energy =               -2018.7923232665766591
    Two-Electron Energy =                 834.9871540443251661
    Total Energy =                       -525.5429801747203555
  Basis Set: (AUG-CC-PVTZ AUX)
    Blend: AUG-CC-PVTZ-RI
    Molecular point group: c1

    Geometry (in Angstrom), charge = 0, multiplicity = 1:

       Center              X                  Y                   Z               Mass
    ------------   -----------------  -----------------  -----------------  -----------------
         N            0.821323834372    -0.282194529097    -0.028892697107    14.003074004430
         N            1.365799934372    -1.486724729097    -0.267033097107    14.003074004430
         N           -1.074529065628     1.027209270903    -0.453699097107    14.003074004430
         N           -1.261376065628    -1.203541729097     0.429152902893    14.003074004430
         C            1.766968934372     0.734759270903     0.133645902893    12.000000000000
         C            2.985867934372     0.092865270903     0.008029902893    12.000000000000
         C           -0.583097065628    -0.139865729097    -0.018424097107    12.000000000000
         C            1.461194934372     2.164355270903     0.438084902893    12.000000000000
         C            2.686643934372    -1.259630729097    -0.239892097107    12.000000000000
         C           -2.413832065628     1.132468270903    -0.431806097107    12.000000000000
         C           -2.596663065628    -1.077872729097     0.403659902893    12.000000000000
         C           -3.234209065628     0.086571270903    -0.021199097107    12.000000000000
         H            3.960114934372     0.554572270903     0.099348902893     1.007825032230
         H            1.020444934372     2.678355270903    -0.418039097107     1.007825032230
         H            0.761699934372     2.259976270903     1.273438902893     1.007825032230
         H            2.393683934372     2.664178270903     0.713448902893     1.007825032230
         H            3.363406934372    -2.087554729097    -0.409817097107     1.007825032230
         H           -2.823228065628     2.081169270903    -0.773276097107     1.007825032230
         H           -3.161183065628    -1.940466729097     0.752563902893     1.007825032230
         H           -4.315423065628     0.175503270903    -0.024757097107     1.007825032230

  Basis Set: AUG-CC-PVTZ
    Blend: AUG-CC-PVTZ
  Basis Set: (AUG-CC-PVTZ AUX)
    Blend: AUG-CC-PVTZ-JKFIT
	 Reference Energy          =    -525.5429801747203555 [Eh]
	 Singles Energy            =      -0.0000000000000000 [Eh]
	 Same-Spin Energy          =      -0.5777099108701964 [Eh]
	 Opposite-Spin Energy      =      -1.7386668145390054 [Eh]
	 Correlation Energy        =      -2.3163767254092020 [Eh]
	 Total Energy              =    -527.8593569001295691 [Eh]

	 ================> DF-SCS-MP2 Energies <==================
	-----------------------------------------------------------
	 SCS Same-Spin Scale       =       0.3333333333333333 [-]
	 SCS Opposite-Spin Scale   =       1.2000000000000000 [-]
	 SCS Same-Spin Energy      =      -0.1925699702900655 [Eh]
	 SCS Opposite-Spin Energy  =      -2.0864001774468064 [Eh]
	 SCS Correlation Energy    =      -2.2789701477368718 [Eh]
	 SCS Total Energy          =    -527.8219503224572691 [Eh]
	-----------------------------------------------------------

  Dipole Moment: [D]
     X:    -2.5813      Y:     2.5684      Z:     0.4380     Total:     3.6676

*** Psi4 exiting successfully. Buy a developer a beer!
