                               Psi4 1.3.2 release

  ==> Input File <==

--------------------------------------------------------------------------
#psi4
#
memory 32 gb

molecule  {
0 1
  N        0.8160970    -0.2990240    -0.0443680
  N        1.3673084    -1.5714683    -0.2823390
  N       -1.0817850     0.9875590    -0.4601130
  N       -1.2686320    -1.2431920     0.4227390
  C        1.7597130     0.6951090     0.1272320
  C        2.9786120     0.0532150     0.0016160
  C       -0.5903530    -0.1795160    -0.0248380
  C        1.4539390     2.1247050     0.4316710
  C        2.6793880    -1.2992810    -0.2463060
  C       -2.4210880     1.0928180    -0.4382200
  C       -2.6039190    -1.1175230     0.3972460
  C       -3.2414650     0.0469210    -0.0276130
  H        3.9528590     0.5149220     0.0929350
  H        1.0131890     2.6387050    -0.4244530
  H        0.7544440     2.2203260     1.2670250
  H        2.3864280     2.6245280     0.7070350
  H        3.3561510    -2.1272050    -0.4162310
  H       -2.8304840     2.0415190    -0.7796900
  H       -3.1684390    -1.9801170     0.7461500
  H       -4.3226790     0.1358530    -0.0311710
units angstrom
no_reorient  #important for SAPT in psi4, default
symmetry c1  #important for SAPT in psi4, default
}

set PROPERTIES_ORIGIN ["COM"]
properties('MP2/aug-cc-pvtz', properties = ['dipole'])
--------------------------------------------------------------------------

    Molecular point group: c1
  Charge       = 0
  Multiplicity = 1
  Basis Set: AUG-CC-PVTZ
    Blend: AUG-CC-PVTZ
  Basis Set: (AUG-CC-PVTZ AUX)
    Blend: AUG-CC-PVTZ-JKFIT

    Orbital Energies [Eh]
    ---------------------

    Doubly Occupied:

       1A    -15.638797     2A    -15.586197     3A    -15.580883
       4A    -15.577049     5A    -11.365975     6A    -11.310512
       7A    -11.308416     8A    -11.291975     9A    -11.258198
      10A    -11.251339    11A    -11.236744    12A    -11.217910
      13A     -1.373688    14A     -1.307637    15A     -1.204705
      16A     -1.129857    17A     -1.084665    18A     -1.042433
      19A     -0.961761    20A     -0.907854    21A     -0.893917
      22A     -0.797808    23A     -0.790347    24A     -0.713042
      25A     -0.705944    26A     -0.682320    27A     -0.634180
      28A     -0.631764    29A     -0.606445    30A     -0.588243
      31A     -0.584342    32A     -0.572698    33A     -0.563625
      34A     -0.549736    35A     -0.537126    36A     -0.490771
      37A     -0.459946    38A     -0.429605    39A     -0.419731
      40A     -0.408402    41A     -0.340887    42A     -0.331931

  @DF-RHF Final Energy:  -525.54007265437986

   => Energetics <=

    Nuclear Repulsion Energy =            656.9262247039830527
    One-Electron Energy =               -2016.1937845803295204
    Two-Electron Energy =                 833.7274872219666122
    Total Energy =                       -525.5400726543798555
  Basis Set: (AUG-CC-PVTZ AUX)
    Blend: AUG-CC-PVTZ-RI
    Molecular point group: c1

    Geometry (in Angstrom), charge = 0, multiplicity = 1:

       Center              X                  Y                   Z               Mass
    ------------   -----------------  -----------------  -----------------  -----------------
         N            0.822408737731    -0.257425369466    -0.036383564846    14.003074004430
         N            1.373620137731    -1.529869669466    -0.274354564846    14.003074004430
         N           -1.075473262269     1.029157630534    -0.452128564846    14.003074004430
         N           -1.262320262269    -1.201593369466     0.430723435154    14.003074004430
         C            1.766024737731     0.736707630534     0.135216435154    12.000000000000
         C            2.984923737731     0.094813630534     0.009600435154    12.000000000000
         C           -0.584041262269    -0.137917369466    -0.016853564846    12.000000000000
         C            1.460250737731     2.166303630534     0.439655435154    12.000000000000
         C            2.685699737731    -1.257682369466    -0.238321564846    12.000000000000
         C           -2.414776262269     1.134416630534    -0.430235564846    12.000000000000
         C           -2.597607262269    -1.075924369466     0.405230435154    12.000000000000
         C           -3.235153262269     0.088519630534    -0.019628564846    12.000000000000
         H            3.959170737731     0.556520630534     0.100919435154     1.007825032230
         H            1.019500737731     2.680303630534    -0.416468564846     1.007825032230
         H            0.760755737731     2.261924630534     1.275009435154     1.007825032230
         H            2.392739737731     2.666126630534     0.715019435154     1.007825032230
         H            3.362462737731    -2.085606369466    -0.408246564846     1.007825032230
         H           -2.824172262269     2.083117630534    -0.771705564846     1.007825032230
         H           -3.162127262269    -1.938518369466     0.754134435154     1.007825032230
         H           -4.316367262269     0.177451630534    -0.023186564846     1.007825032230

  Basis Set: AUG-CC-PVTZ
    Blend: AUG-CC-PVTZ
  Basis Set: (AUG-CC-PVTZ AUX)
    Blend: AUG-CC-PVTZ-JKFIT
	 Reference Energy          =    -525.5400726543798555 [Eh]
	 Singles Energy            =      -0.0000000000000000 [Eh]
	 Same-Spin Energy          =      -0.5774602629630248 [Eh]
	 Opposite-Spin Energy      =      -1.7396664559535879 [Eh]
	 Correlation Energy        =      -2.3171267189166125 [Eh]
	 Total Energy              =    -527.8571993732964529 [Eh]

	 ================> DF-SCS-MP2 Energies <==================
	-----------------------------------------------------------
	 SCS Same-Spin Scale       =       0.3333333333333333 [-]
	 SCS Opposite-Spin Scale   =       1.2000000000000000 [-]
	 SCS Same-Spin Energy      =      -0.1924867543210083 [Eh]
	 SCS Opposite-Spin Energy  =      -2.0875997471443055 [Eh]
	 SCS Correlation Energy    =      -2.2800865014653136 [Eh]
	 SCS Total Energy          =    -527.8201591558452037 [Eh]
	-----------------------------------------------------------

  Dipole Moment: [D]
     X:    -2.4703      Y:     2.6077      Z:     0.4515     Total:     3.6203

*** Psi4 exiting successfully. Buy a developer a beer!
