                               Psi4 1.3.2 release

  ==> Input File <==

--------------------------------------------------------------------------
#psi4
#
memory 32 gb

molecule  {
0 1
  N        0.8160970    -0.2990240    -0.0443680
  N        1.4017846    -1.5069244    -0.2703395
  N       -1.0817850     0.9875590    -0.4601130
  N       -1.2686320    -1.2431920     0.4227390
  C        1.7597130     0.6951090     0.1272320
  C        2.9786120     0.0532150     0.0016160
  C       -0.5903530    -0.1795160    -0.0248380
  C        1.4539390     2.1247050     0.4316710
  C        2.6793880    -1.2992810    -0.2463060
  C       -2.4210880     1.0928180    -0.4382200
  C       -2.6039190    -1.1175230     0.3972460
  C       -3.2414650     0.0469210    -0.0276130
  H        3.9528590     0.5149220     0.0929350
  H        1.0131890     2.6387050    -0.4244530
  H        0.7544440     2.2203260     1.2670250
  H        2.3864280     2.6245280     0.7070350
  H        3.3561510    -2.1272050    -0.4162310
  H       -2.8304840     2.0415190    -0.7796900
  H       -3.1684390    -1.9801170     0.7461500
  H       -4.3226790     0.1358530    -0.0311710
units angstrom
no_reorient  #important for SAPT in psi4, default
symmetry c1  #important for SAPT in psi4, default
}

set PROPERTIES_ORIGIN ["COM"]
properties('MP2/aug-cc-pvtz', properties = ['dipole'])
--------------------------------------------------------------------------

    Molecular point group: c1
  Charge       = 0
  Multiplicity = 1
  Basis Set: AUG-CC-PVTZ
    Blend: AUG-CC-PVTZ
  Basis Set: (AUG-CC-PVTZ AUX)
    Blend: AUG-CC-PVTZ-JKFIT

    Orbital Energies [Eh]
    ---------------------

    Doubly Occupied:

       1A    -15.640077     2A    -15.582676     3A    -15.578964
       4A    -15.575848     5A    -11.368497     6A    -11.311873
       7A    -11.309773     8A    -11.285245     9A    -11.252826
      10A    -11.248862    11A    -11.233653    12A    -11.214467
      13A     -1.389223    14A     -1.315130    15A     -1.206283
      16A     -1.138695    17A     -1.082874    18A     -1.045962
      19A     -0.957671    20A     -0.909583    21A     -0.897801
      22A     -0.800480    23A     -0.795547    24A     -0.713272
      25A     -0.708987    26A     -0.683648    27A     -0.639573
      28A     -0.634969    29A     -0.607412    30A     -0.593047
      31A     -0.586783    32A     -0.575996    33A     -0.563255
      34A     -0.554414    35A     -0.536639    36A     -0.491842
      37A     -0.448386    38A     -0.430807    39A     -0.420088
      40A     -0.410978    41A     -0.342410    42A     -0.331406

  @DF-RHF Final Energy:  -525.54640820085319

   => Energetics <=

    Nuclear Repulsion Energy =            658.8739525025309831
    One-Electron Energy =               -2020.0088821765214107
    Two-Electron Energy =                 835.5885214731372344
    Total Energy =                       -525.5464082008531932
  Basis Set: (AUG-CC-PVTZ AUX)
    Blend: AUG-CC-PVTZ-RI
    Molecular point group: c1

    Geometry (in Angstrom), charge = 0, multiplicity = 1:

       Center              X                  Y                   Z               Mass
    ------------   -----------------  -----------------  -----------------  -----------------
         N            0.819392819613    -0.263071557777    -0.037433260272    14.003074004430
         N            1.405080419613    -1.470971957777    -0.263404760272    14.003074004430
         N           -1.078489180387     1.023511442223    -0.453178260272    14.003074004430
         N           -1.265336180387    -1.207239557777     0.429673739728    14.003074004430
         C            1.763008819613     0.731061442223     0.134166739728    12.000000000000
         C            2.981907819613     0.089167442223     0.008550739728    12.000000000000
         C           -0.587057180387    -0.143563557777    -0.017903260272    12.000000000000
         C            1.457234819613     2.160657442223     0.438605739728    12.000000000000
         C            2.682683819613    -1.263328557777    -0.239371260272    12.000000000000
         C           -2.417792180387     1.128770442223    -0.431285260272    12.000000000000
         C           -2.600623180387    -1.081570557777     0.404180739728    12.000000000000
         C           -3.238169180387     0.082873442223    -0.020678260272    12.000000000000
         H            3.956154819613     0.550874442223     0.099869739728     1.007825032230
         H            1.016484819613     2.674657442223    -0.417518260272     1.007825032230
         H            0.757739819613     2.256278442223     1.273959739728     1.007825032230
         H            2.389723819613     2.660480442223     0.713969739728     1.007825032230
         H            3.359446819613    -2.091252557777    -0.409296260272     1.007825032230
         H           -2.827188180387     2.077471442223    -0.772755260272     1.007825032230
         H           -3.165143180387    -1.944164557777     0.753084739728     1.007825032230
         H           -4.319383180387     0.171805442223    -0.024236260272     1.007825032230

  Basis Set: AUG-CC-PVTZ
    Blend: AUG-CC-PVTZ
  Basis Set: (AUG-CC-PVTZ AUX)
    Blend: AUG-CC-PVTZ-JKFIT
	 Reference Energy          =    -525.5464082008531932 [Eh]
	 Singles Energy            =      -0.0000000000000000 [Eh]
	 Same-Spin Energy          =      -0.5760794663344171 [Eh]
	 Opposite-Spin Energy      =      -1.7358048039250922 [Eh]
	 Correlation Energy        =      -2.3118842702595090 [Eh]
	 Total Energy              =    -527.8582924711126907 [Eh]

	 ================> DF-SCS-MP2 Energies <==================
	-----------------------------------------------------------
	 SCS Same-Spin Scale       =       0.3333333333333333 [-]
	 SCS Opposite-Spin Scale   =       1.2000000000000000 [-]
	 SCS Same-Spin Energy      =      -0.1920264887781390 [Eh]
	 SCS Opposite-Spin Energy  =      -2.0829657647101105 [Eh]
	 SCS Correlation Energy    =      -2.2749922534882496 [Eh]
	 SCS Total Energy          =    -527.8214004543414148 [Eh]
	-----------------------------------------------------------

  Dipole Moment: [D]
     X:    -2.5983      Y:     2.4775      Z:     0.4207     Total:     3.6147

*** Psi4 exiting successfully. Buy a developer a beer!
