                               Psi4 1.4a3.dev225

  ==> Input File <==

--------------------------------------------------------------------------
#psi4
#
memory 32 gb

molecule  {
0 1
  N        0.8160970    -0.2990240    -0.0443680
  N        1.3585440    -1.5263750    -0.2734470
  N       -1.0817850     0.9875590    -0.4601130
  N       -1.2686320    -1.2431920     0.4227390
  C        1.7597130     0.6951090     0.1272320
  C        2.9786120     0.0532150     0.0016160
  C       -0.5650172    -0.1397845    -0.0415564
  C        1.4539390     2.1247050     0.4316710
  C        2.6793880    -1.2992810    -0.2463060
  C       -2.4210880     1.0928180    -0.4382200
  C       -2.6039190    -1.1175230     0.3972460
  C       -3.2414650     0.0469210    -0.0276130
  H        3.9528590     0.5149220     0.0929350
  H        1.0131890     2.6387050    -0.4244530
  H        0.7544440     2.2203260     1.2670250
  H        2.3864280     2.6245280     0.7070350
  H        3.3561510    -2.1272050    -0.4162310
  H       -2.8304840     2.0415190    -0.7796900
  H       -3.1684390    -1.9801170     0.7461500
  H       -4.3226790     0.1358530    -0.0311710
units angstrom
no_reorient  #important for SAPT in psi4, default
symmetry c1  #important for SAPT in psi4, default
}

set PROPERTIES_ORIGIN ["COM"]
properties('MP2/aug-cc-pvtz', properties = ['dipole'])
--------------------------------------------------------------------------

    Molecular point group: c1
  Charge       = 0
  Multiplicity = 1
  Basis Set: AUG-CC-PVTZ
    Blend: AUG-CC-PVTZ
  Basis Set: (AUG-CC-PVTZ AUX)
    Blend: AUG-CC-PVTZ-JKFIT

    Orbital Energies [Eh]
    ---------------------

    Doubly Occupied:

       1A    -15.644268     2A    -15.584046     3A    -15.579172
       4A    -15.578671     5A    -11.367066     6A    -11.310334
       7A    -11.305915     8A    -11.288438     9A    -11.257307
      10A    -11.251059    11A    -11.236250    12A    -11.219309
      13A     -1.390089    14A     -1.310168    15A     -1.199635
      16A     -1.134287    17A     -1.085550    18A     -1.045309
      19A     -0.960858    20A     -0.908037    21A     -0.895280
      22A     -0.804043    23A     -0.795832    24A     -0.714267
      25A     -0.704415    26A     -0.682817    27A     -0.640204
      28A     -0.633128    29A     -0.607084    30A     -0.592429
      31A     -0.586385    32A     -0.574574    33A     -0.565672
      34A     -0.553520    35A     -0.537578    36A     -0.490300
      37A     -0.456705    38A     -0.429313    39A     -0.414731
      40A     -0.407356    41A     -0.337260    42A     -0.334320

  @DF-RHF Final Energy:  -525.54039949055789

   => Energetics <=

    Nuclear Repulsion Energy =            658.3854427927383313
    One-Electron Energy =               -2019.0257247679055581
    Two-Electron Energy =                 835.0998824846093385
    Total Energy =                       -525.5403994905578884
  Basis Set: (AUG-CC-PVTZ AUX)
    Blend: AUG-CC-PVTZ-RI
    Molecular point group: c1

    Geometry (in Angstrom), charge = 0, multiplicity = 1:

       Center              X                  Y                   Z               Mass
    ------------   -----------------  -----------------  -----------------  -----------------
         N            0.821276136290    -0.264348521333    -0.035908128236    14.003074004430
         N            1.363723136290    -1.491699521333    -0.264987128236    14.003074004430
         N           -1.076605863710     1.022234478667    -0.451653128236    14.003074004430
         N           -1.263452863710    -1.208516521333     0.431198871764    14.003074004430
         C            1.764892136290     0.729784478667     0.135691871764    12.000000000000
         C            2.983791136290     0.087890478667     0.010075871764    12.000000000000
         C           -0.559838063710    -0.105109021333    -0.033096528236    12.000000000000
         C            1.459118136290     2.159380478667     0.440130871764    12.000000000000
         C            2.684567136290    -1.264605521333    -0.237846128236    12.000000000000
         C           -2.415908863710     1.127493478667    -0.429760128236    12.000000000000
         C           -2.598739863710    -1.082847521333     0.405705871764    12.000000000000
         C           -3.236285863710     0.081596478667    -0.019153128236    12.000000000000
         H            3.958038136290     0.549597478667     0.101394871764     1.007825032230
         H            1.018368136290     2.673380478667    -0.415993128236     1.007825032230
         H            0.759623136290     2.255001478667     1.275484871764     1.007825032230
         H            2.391607136290     2.659203478667     0.715494871764     1.007825032230
         H            3.361330136290    -2.092529521333    -0.407771128236     1.007825032230
         H           -2.825304863710     2.076194478667    -0.771230128236     1.007825032230
         H           -3.163259863710    -1.945441521333     0.754609871764     1.007825032230
         H           -4.317499863710     0.170528478667    -0.022711128236     1.007825032230

  Basis Set: AUG-CC-PVTZ
    Blend: AUG-CC-PVTZ
  Basis Set: (AUG-CC-PVTZ AUX)
    Blend: AUG-CC-PVTZ-JKFIT
	 Reference Energy          =    -525.5403994905578884 [Eh]
	 Singles Energy            =      -0.0000000000000000 [Eh]
	 Same-Spin Energy          =      -0.5775760143627070 [Eh]
	 Opposite-Spin Energy      =      -1.7389837222903264 [Eh]
	 Correlation Energy        =      -2.3165597366530335 [Eh]
	 Total Energy              =    -527.8569592272109503 [Eh]

	 ================> DF-SCS-MP2 Energies <==================
	-----------------------------------------------------------
	 SCS Same-Spin Scale       =       0.3333333333333333 [-]
	 SCS Opposite-Spin Scale   =       1.2000000000000000 [-]
	 SCS Same-Spin Energy      =      -0.1925253381209023 [Eh]
	 SCS Opposite-Spin Energy  =      -2.0867804667483916 [Eh]
	 SCS Correlation Energy    =      -2.2793058048692938 [Eh]
	 SCS Total Energy          =    -527.8197052954271840 [Eh]
	-----------------------------------------------------------

  Dipole Moment: [D]
     X:    -2.3284      Y:     2.5864      Z:     0.4105     Total:     3.5042

*** Psi4 exiting successfully. Buy a developer a beer!
