                               Psi4 1.3.2 release

  ==> Input File <==

--------------------------------------------------------------------------
#psi4
#
memory 32 gb

molecule  {
0 1
  N        0.8160970    -0.2990240    -0.0443680
  N        1.3585440    -1.5263750    -0.2734470
  N       -1.0794411     1.0313100    -0.4768411
  N       -1.2686320    -1.2431920     0.4227390
  C        1.7597130     0.6951090     0.1272320
  C        2.9786120     0.0532150     0.0016160
  C       -0.5903530    -0.1795160    -0.0248380
  C        1.4539390     2.1247050     0.4316710
  C        2.6793880    -1.2992810    -0.2463060
  C       -2.4210880     1.0928180    -0.4382200
  C       -2.6039190    -1.1175230     0.3972460
  C       -3.2414650     0.0469210    -0.0276130
  H        3.9528590     0.5149220     0.0929350
  H        1.0131890     2.6387050    -0.4244530
  H        0.7544440     2.2203260     1.2670250
  H        2.3864280     2.6245280     0.7070350
  H        3.3561510    -2.1272050    -0.4162310
  H       -2.8304840     2.0415190    -0.7796900
  H       -3.1684390    -1.9801170     0.7461500
  H       -4.3226790     0.1358530    -0.0311710
units angstrom
no_reorient  #important for SAPT in psi4, default
symmetry c1  #important for SAPT in psi4, default
}

set PROPERTIES_ORIGIN ["COM"]
properties('MP2/aug-cc-pvtz', properties = ['dipole'])
--------------------------------------------------------------------------

    Molecular point group: c1
  Charge       = 0
  Multiplicity = 1
  Basis Set: AUG-CC-PVTZ
    Blend: AUG-CC-PVTZ
  Basis Set: (AUG-CC-PVTZ AUX)
    Blend: AUG-CC-PVTZ-JKFIT

    Orbital Energies [Eh]
    ---------------------

    Doubly Occupied:

       1A    -15.643823     2A    -15.588365     3A    -15.582296
       4A    -15.580330     5A    -11.373039     6A    -11.310391
       7A    -11.310373     8A    -11.287675     9A    -11.255641
      10A    -11.251938    11A    -11.234750    12A    -11.218203
      13A     -1.385886    14A     -1.307371    15A     -1.205146
      16A     -1.129311    17A     -1.084432    18A     -1.043866
      19A     -0.959251    20A     -0.905951    21A     -0.895909
      22A     -0.799417    23A     -0.795083    24A     -0.709180
      25A     -0.707582    26A     -0.682238    27A     -0.637399
      28A     -0.633366    29A     -0.606404    30A     -0.588419
      31A     -0.583969    32A     -0.573190    33A     -0.564785
      34A     -0.552463    35A     -0.536766    36A     -0.494580
      37A     -0.456085    38A     -0.431854    39A     -0.422430
      40A     -0.406841    41A     -0.337230    42A     -0.333166

  @DF-RHF Final Energy:  -525.53926982589383

   => Energetics <=

    Nuclear Repulsion Energy =            657.1722915379291408
    One-Electron Energy =               -2016.6103375915085962
    Two-Electron Energy =                 833.8987762276856301
    Total Energy =                       -525.5392698258938253
  Basis Set: (AUG-CC-PVTZ AUX)
    Blend: AUG-CC-PVTZ-RI
    Molecular point group: c1

    Geometry (in Angstrom), charge = 0, multiplicity = 1:

       Center              X                  Y                   Z               Mass
    ------------   -----------------  -----------------  -----------------  -----------------
         N            0.822970391924    -0.265197314579    -0.035698076423    14.003074004430
         N            1.365417391924    -1.492548314579    -0.264777076423    14.003074004430
         N           -1.072567708076     1.065136685421    -0.468171176423    14.003074004430
         N           -1.261758608076    -1.209365314579     0.431408923577    14.003074004430
         C            1.766586391924     0.728935685421     0.135901923577    12.000000000000
         C            2.985485391924     0.087041685421     0.010285923577    12.000000000000
         C           -0.583479608076    -0.145689314579    -0.016168076423    12.000000000000
         C            1.460812391924     2.158531685421     0.440340923577    12.000000000000
         C            2.686261391924    -1.265454314579    -0.237636076423    12.000000000000
         C           -2.414214608076     1.126644685421    -0.429550076423    12.000000000000
         C           -2.597045608076    -1.083696314579     0.405915923577    12.000000000000
         C           -3.234591608076     0.080747685421    -0.018943076423    12.000000000000
         H            3.959732391924     0.548748685421     0.101604923577     1.007825032230
         H            1.020062391924     2.672531685421    -0.415783076423     1.007825032230
         H            0.761317391924     2.254152685421     1.275694923577     1.007825032230
         H            2.393301391924     2.658354685421     0.715704923577     1.007825032230
         H            3.363024391924    -2.093378314579    -0.407561076423     1.007825032230
         H           -2.823610608076     2.075345685421    -0.771020076423     1.007825032230
         H           -3.161565608076    -1.946290314579     0.754819923577     1.007825032230
         H           -4.315805608076     0.169679685421    -0.022501076423     1.007825032230

  Basis Set: AUG-CC-PVTZ
    Blend: AUG-CC-PVTZ
  Basis Set: (AUG-CC-PVTZ AUX)
    Blend: AUG-CC-PVTZ-JKFIT
	 Reference Energy          =    -525.5392698258938253 [Eh]
	 Singles Energy            =      -0.0000000000000000 [Eh]
	 Same-Spin Energy          =      -0.5779168926437473 [Eh]
	 Opposite-Spin Energy      =      -1.7400328879698432 [Eh]
	 Correlation Energy        =      -2.3179497806135907 [Eh]
	 Total Energy              =    -527.8572196065074422 [Eh]

	 ================> DF-SCS-MP2 Energies <==================
	-----------------------------------------------------------
	 SCS Same-Spin Scale       =       0.3333333333333333 [-]
	 SCS Opposite-Spin Scale   =       1.2000000000000000 [-]
	 SCS Same-Spin Energy      =      -0.1926389642145824 [Eh]
	 SCS Opposite-Spin Energy  =      -2.0880394655638117 [Eh]
	 SCS Correlation Energy    =      -2.2806784297783942 [Eh]
	 SCS Total Energy          =    -527.8199482556722160 [Eh]
	-----------------------------------------------------------

  Dipole Moment: [D]
     X:    -2.5090      Y:     2.4749      Z:     0.4674     Total:     3.5551

*** Psi4 exiting successfully. Buy a developer a beer!
