                               Psi4 1.3.2 release

  ==> Input File <==

--------------------------------------------------------------------------
#psi4
#
memory 32 gb

molecule  {
0 1
  N        0.7728567    -0.3184805    -0.0474434
  N        1.3585440    -1.5263750    -0.2734470
  N       -1.0817850     0.9875590    -0.4601130
  N       -1.2686320    -1.2431920     0.4227390
  C        1.7597130     0.6951090     0.1272320
  C        2.9786120     0.0532150     0.0016160
  C       -0.5903530    -0.1795160    -0.0248380
  C        1.4539390     2.1247050     0.4316710
  C        2.6793880    -1.2992810    -0.2463060
  C       -2.4210880     1.0928180    -0.4382200
  C       -2.6039190    -1.1175230     0.3972460
  C       -3.2414650     0.0469210    -0.0276130
  H        3.9528590     0.5149220     0.0929350
  H        1.0131890     2.6387050    -0.4244530
  H        0.7544440     2.2203260     1.2670250
  H        2.3864280     2.6245280     0.7070350
  H        3.3561510    -2.1272050    -0.4162310
  H       -2.8304840     2.0415190    -0.7796900
  H       -3.1684390    -1.9801170     0.7461500
  H       -4.3226790     0.1358530    -0.0311710
units angstrom
no_reorient  #important for SAPT in psi4, default
symmetry c1  #important for SAPT in psi4, default
}

set PROPERTIES_ORIGIN ["COM"]
properties('MP2/aug-cc-pvtz', properties = ['dipole'])
--------------------------------------------------------------------------

    Molecular point group: c1
  Charge       = 0
  Multiplicity = 1
  Basis Set: AUG-CC-PVTZ
    Blend: AUG-CC-PVTZ
  Basis Set: (AUG-CC-PVTZ AUX)
    Blend: AUG-CC-PVTZ-JKFIT

    Orbital Energies [Eh]
    ---------------------

    Doubly Occupied:

       1A    -15.641381     2A    -15.584874     3A    -15.579205
       4A    -15.574447     5A    -11.362715     6A    -11.309603
       7A    -11.307002     8A    -11.292168     9A    -11.258105
      10A    -11.249529    11A    -11.234827    12A    -11.222804
      13A     -1.386068    14A     -1.308705    15A     -1.203623
      16A     -1.135551    17A     -1.080394    18A     -1.045543
      19A     -0.958936    20A     -0.907878    21A     -0.896637
      22A     -0.803264    23A     -0.792010    24A     -0.712113
      25A     -0.707011    26A     -0.681896    27A     -0.637897
      28A     -0.634883    29A     -0.606795    30A     -0.595931
      31A     -0.585259    32A     -0.574750    33A     -0.563130
      34A     -0.550903    35A     -0.537330    36A     -0.490381
      37A     -0.451742    38A     -0.428673    39A     -0.417517
      40A     -0.410761    41A     -0.337739    42A     -0.330787

  @DF-RHF Final Energy:  -525.54018916671259

   => Energetics <=

    Nuclear Repulsion Energy =            658.3033116142802328
    One-Electron Energy =               -2018.9054678191346284
    Two-Electron Energy =                 835.0619670381419155
    Total Energy =                       -525.5401891667125938
  Basis Set: (AUG-CC-PVTZ AUX)
    Blend: AUG-CC-PVTZ-RI
    Molecular point group: c1

    Geometry (in Angstrom), charge = 0, multiplicity = 1:

       Center              X                  Y                   Z               Mass
    ------------   -----------------  -----------------  -----------------  -----------------
         N            0.783717718597    -0.279124532219    -0.039967790915    14.003074004430
         N            1.369405018597    -1.487019032219    -0.265971390915    14.003074004430
         N           -1.070923981403     1.026914967781    -0.452637390915    14.003074004430
         N           -1.257770981403    -1.203836032219     0.430214609085    14.003074004430
         C            1.770574018597     0.734464967781     0.134707609085    12.000000000000
         C            2.989473018597     0.092570967781     0.009091609085    12.000000000000
         C           -0.579491981403    -0.140160032219    -0.017362390915    12.000000000000
         C            1.464800018597     2.164060967781     0.439146609085    12.000000000000
         C            2.690249018597    -1.259925032219    -0.238830390915    12.000000000000
         C           -2.410226981403     1.132173967781    -0.430744390915    12.000000000000
         C           -2.593057981403    -1.078167032219     0.404721609085    12.000000000000
         C           -3.230603981403     0.086276967781    -0.020137390915    12.000000000000
         H            3.963720018597     0.554277967781     0.100410609085     1.007825032230
         H            1.024050018597     2.678060967781    -0.416977390915     1.007825032230
         H            0.765305018597     2.259681967781     1.274500609085     1.007825032230
         H            2.397289018597     2.663883967781     0.714510609085     1.007825032230
         H            3.367012018597    -2.087849032219    -0.408755390915     1.007825032230
         H           -2.819622981403     2.080874967781    -0.772214390915     1.007825032230
         H           -3.157577981403    -1.940761032219     0.753625609085     1.007825032230
         H           -4.311817981403     0.175208967781    -0.023695390915     1.007825032230

  Basis Set: AUG-CC-PVTZ
    Blend: AUG-CC-PVTZ
  Basis Set: (AUG-CC-PVTZ AUX)
    Blend: AUG-CC-PVTZ-JKFIT
	 Reference Energy          =    -525.5401891667125938 [Eh]
	 Singles Energy            =      -0.0000000000000000 [Eh]
	 Same-Spin Energy          =      -0.5774759642284768 [Eh]
	 Opposite-Spin Energy      =      -1.7390167411393884 [Eh]
	 Correlation Energy        =      -2.3164927053678652 [Eh]
	 Total Energy              =    -527.8566818720804577 [Eh]

	 ================> DF-SCS-MP2 Energies <==================
	-----------------------------------------------------------
	 SCS Same-Spin Scale       =       0.3333333333333333 [-]
	 SCS Opposite-Spin Scale   =       1.2000000000000000 [-]
	 SCS Same-Spin Energy      =      -0.1924919880761589 [Eh]
	 SCS Opposite-Spin Energy  =      -2.0868200893672659 [Eh]
	 SCS Correlation Energy    =      -2.2793120774434250 [Eh]
	 SCS Total Energy          =    -527.8195012441560721 [Eh]
	-----------------------------------------------------------

  Dipole Moment: [D]
     X:    -2.2577      Y:     2.5386      Z:     0.4332     Total:     3.4248

*** Psi4 exiting successfully. Buy a developer a beer!
