                               Psi4 1.3.2 release

  ==> Input File <==

--------------------------------------------------------------------------
#psi4
#
memory 32 gb

molecule  {
0 1
  N        0.8199249    -0.2074464    -0.0805267
  N        1.3585440    -1.5263750    -0.2734470
  N       -1.0817850     0.9875590    -0.4601130
  N       -1.2686320    -1.2431920     0.4227390
  C        1.7597130     0.6951090     0.1272320
  C        2.9786120     0.0532150     0.0016160
  C       -0.5903530    -0.1795160    -0.0248380
  C        1.4539390     2.1247050     0.4316710
  C        2.6793880    -1.2992810    -0.2463060
  C       -2.4210880     1.0928180    -0.4382200
  C       -2.6039190    -1.1175230     0.3972460
  C       -3.2414650     0.0469210    -0.0276130
  H        3.9528590     0.5149220     0.0929350
  H        1.0131890     2.6387050    -0.4244530
  H        0.7544440     2.2203260     1.2670250
  H        2.3864280     2.6245280     0.7070350
  H        3.3561510    -2.1272050    -0.4162310
  H       -2.8304840     2.0415190    -0.7796900
  H       -3.1684390    -1.9801170     0.7461500
  H       -4.3226790     0.1358530    -0.0311710
units angstrom
no_reorient  #important for SAPT in psi4, default
symmetry c1  #important for SAPT in psi4, default
}

set PROPERTIES_ORIGIN ["COM"]
properties('MP2/aug-cc-pvtz', properties = ['dipole'])
--------------------------------------------------------------------------

    Molecular point group: c1
  Charge       = 0
  Multiplicity = 1
  Basis Set: AUG-CC-PVTZ
    Blend: AUG-CC-PVTZ
  Basis Set: (AUG-CC-PVTZ AUX)
    Blend: AUG-CC-PVTZ-JKFIT

    Orbital Energies [Eh]
    ---------------------

    Doubly Occupied:

       1A    -15.637955     2A    -15.580677     3A    -15.580462
       4A    -15.579881     5A    -11.368945     6A    -11.310366
       7A    -11.310353     8A    -11.287465     9A    -11.259324
      10A    -11.252795    11A    -11.234079    12A    -11.212996
      13A     -1.377279    14A     -1.308721    15A     -1.206453
      16A     -1.133252    17A     -1.087950    18A     -1.041511
      19A     -0.958694    20A     -0.909243    21A     -0.899733
      22A     -0.799137    23A     -0.796000    24A     -0.714102
      25A     -0.704760    26A     -0.681549    27A     -0.639390
      28A     -0.631822    29A     -0.607335    30A     -0.593316
      31A     -0.584254    32A     -0.573920    33A     -0.555908
      34A     -0.547819    35A     -0.536773    36A     -0.493182
      37A     -0.452712    38A     -0.430331    39A     -0.419922
      40A     -0.410179    41A     -0.349699    42A     -0.324334

  @DF-RHF Final Energy:  -525.53459465936533

   => Energetics <=

    Nuclear Repulsion Energy =            658.3167458138698294
    One-Electron Energy =               -2018.9335249693178866
    Two-Electron Energy =                 835.0821844960827320
    Total Energy =                       -525.5345946593653252
  Basis Set: (AUG-CC-PVTZ AUX)
    Blend: AUG-CC-PVTZ-RI
    Molecular point group: c1

    Geometry (in Angstrom), charge = 0, multiplicity = 1:

       Center              X                  Y                   Z               Mass
    ------------   -----------------  -----------------  -----------------  -----------------
         N            0.826668474181    -0.177803502510    -0.070157021270    14.003074004430
         N            1.365287574181    -1.496732102510    -0.263077321270    14.003074004430
         N           -1.075041425819     1.017201897490    -0.449743321270    14.003074004430
         N           -1.261888425819    -1.213549102510     0.433108678730    14.003074004430
         C            1.766456574181     0.724751897490     0.137601678730    12.000000000000
         C            2.985355574181     0.082857897490     0.011985678730    12.000000000000
         C           -0.583609425819    -0.149873102510    -0.014468321270    12.000000000000
         C            1.460682574181     2.154347897490     0.442040678730    12.000000000000
         C            2.686131574181    -1.269638102510    -0.235936321270    12.000000000000
         C           -2.414344425819     1.122460897490    -0.427850321270    12.000000000000
         C           -2.597175425819    -1.087880102510     0.407615678730    12.000000000000
         C           -3.234721425819     0.076563897490    -0.017243321270    12.000000000000
         H            3.959602574181     0.544564897490     0.103304678730     1.007825032230
         H            1.019932574181     2.668347897490    -0.414083321270     1.007825032230
         H            0.761187574181     2.249968897490     1.277394678730     1.007825032230
         H            2.393171574181     2.654170897490     0.717404678730     1.007825032230
         H            3.362894574181    -2.097562102510    -0.405861321270     1.007825032230
         H           -2.823740425819     2.071161897490    -0.769320321270     1.007825032230
         H           -3.161695425819    -1.950474102510     0.756519678730     1.007825032230
         H           -4.315935425819     0.165495897490    -0.020801321270     1.007825032230

  Basis Set: AUG-CC-PVTZ
    Blend: AUG-CC-PVTZ
  Basis Set: (AUG-CC-PVTZ AUX)
    Blend: AUG-CC-PVTZ-JKFIT
	 Reference Energy          =    -525.5345946593653252 [Eh]
	 Singles Energy            =      -0.0000000000000000 [Eh]
	 Same-Spin Energy          =      -0.5774001779048215 [Eh]
	 Opposite-Spin Energy      =      -1.7394036629806631 [Eh]
	 Correlation Energy        =      -2.3168038408854845 [Eh]
	 Total Energy              =    -527.8513985002508662 [Eh]

	 ================> DF-SCS-MP2 Energies <==================
	-----------------------------------------------------------
	 SCS Same-Spin Scale       =       0.3333333333333333 [-]
	 SCS Opposite-Spin Scale   =       1.2000000000000000 [-]
	 SCS Same-Spin Energy      =      -0.1924667259682738 [Eh]
	 SCS Opposite-Spin Energy  =      -2.0872843955767957 [Eh]
	 SCS Correlation Energy    =      -2.2797511215450696 [Eh]
	 SCS Total Energy          =    -527.8143457809103438 [Eh]
	-----------------------------------------------------------

  Dipole Moment: [D]
     X:    -2.5850      Y:     2.4905      Z:     0.4498     Total:     3.6176

*** Psi4 exiting successfully. Buy a developer a beer!
