                               Psi4 1.3.2 release

  ==> Input File <==

--------------------------------------------------------------------------
#psi4
#
memory 32 gb

molecule  {
0 1
  N        0.8160970    -0.2990240    -0.0443680
  N        1.4017871    -1.5070368    -0.2697314
  N       -1.0817850     0.9875590    -0.4601130
  N       -1.2686320    -1.2431920     0.4227390
  C        1.7597130     0.6951090     0.1272320
  C        2.9786120     0.0532150     0.0016160
  C       -0.5903530    -0.1795160    -0.0248380
  C        1.4539390     2.1247050     0.4316710
  C        2.6793880    -1.2992810    -0.2463060
  C       -2.4210880     1.0928180    -0.4382200
  C       -2.6039190    -1.1175230     0.3972460
  C       -3.2414650     0.0469210    -0.0276130
  H        3.9528590     0.5149220     0.0929350
  H        1.0131890     2.6387050    -0.4244530
  H        0.7544440     2.2203260     1.2670250
  H        2.3864280     2.6245280     0.7070350
  H        3.3561510    -2.1272050    -0.4162310
  H       -2.8304840     2.0415190    -0.7796900
  H       -3.1684390    -1.9801170     0.7461500
  H       -4.3226790     0.1358530    -0.0311710
units angstrom
no_reorient  #important for SAPT in psi4, default
symmetry c1  #important for SAPT in psi4, default
}

set PROPERTIES_ORIGIN ["COM"]
properties('MP2/aug-cc-pvtz', properties = ['dipole'])
--------------------------------------------------------------------------

    Molecular point group: c1
  Charge       = 0
  Multiplicity = 1
  Basis Set: AUG-CC-PVTZ
    Blend: AUG-CC-PVTZ
  Basis Set: (AUG-CC-PVTZ AUX)
    Blend: AUG-CC-PVTZ-JKFIT

    Orbital Energies [Eh]
    ---------------------

    Doubly Occupied:

       1A    -15.640082     2A    -15.582672     3A    -15.578958
       4A    -15.575848     5A    -11.368498     6A    -11.311872
       7A    -11.309771     8A    -11.285247     9A    -11.252821
      10A    -11.248865    11A    -11.233653    12A    -11.214469
      13A     -1.389224    14A     -1.315128    15A     -1.206281
      16A     -1.138695    17A     -1.082875    18A     -1.045961
      19A     -0.957672    20A     -0.909582    21A     -0.897801
      22A     -0.800480    23A     -0.795548    24A     -0.713268
      25A     -0.708983    26A     -0.683647    27A     -0.639578
      28A     -0.634974    29A     -0.607410    30A     -0.593046
      31A     -0.586778    32A     -0.575998    33A     -0.563258
      34A     -0.554412    35A     -0.536640    36A     -0.491840
      37A     -0.448388    38A     -0.430806    39A     -0.420081
      40A     -0.410985    41A     -0.342406    42A     -0.331405

  @DF-RHF Final Energy:  -525.54640996655519

   => Energetics <=

    Nuclear Repulsion Energy =            658.8741258415105904
    One-Electron Energy =               -2020.0092531010743642
    Two-Electron Energy =                 835.5887172930086990
    Total Energy =                       -525.5464099665551885
  Basis Set: (AUG-CC-PVTZ AUX)
    Blend: AUG-CC-PVTZ-RI
    Molecular point group: c1

    Geometry (in Angstrom), charge = 0, multiplicity = 1:

       Center              X                  Y                   Z               Mass
    ------------   -----------------  -----------------  -----------------  -----------------
         N            0.819392600917    -0.263061725220    -0.037486455804    14.003074004430
         N            1.405082700917    -1.471074525220    -0.262849855804    14.003074004430
         N           -1.078489399083     1.023521274780    -0.453231455804    14.003074004430
         N           -1.265336399083    -1.207229725220     0.429620544196    14.003074004430
         C            1.763008600917     0.731071274780     0.134113544196    12.000000000000
         C            2.981907600917     0.089177274780     0.008497544196    12.000000000000
         C           -0.587057399083    -0.143553725220    -0.017956455804    12.000000000000
         C            1.457234600917     2.160667274780     0.438552544196    12.000000000000
         C            2.682683600917    -1.263318725220    -0.239424455804    12.000000000000
         C           -2.417792399083     1.128780274780    -0.431338455804    12.000000000000
         C           -2.600623399083    -1.081560725220     0.404127544196    12.000000000000
         C           -3.238169399083     0.082883274780    -0.020731455804    12.000000000000
         H            3.956154600917     0.550884274780     0.099816544196     1.007825032230
         H            1.016484600917     2.674667274780    -0.417571455804     1.007825032230
         H            0.757739600917     2.256288274780     1.273906544196     1.007825032230
         H            2.389723600917     2.660490274780     0.713916544196     1.007825032230
         H            3.359446600917    -2.091242725220    -0.409349455804     1.007825032230
         H           -2.827188399083     2.077481274780    -0.772808455804     1.007825032230
         H           -3.165143399083    -1.944154725220     0.753031544196     1.007825032230
         H           -4.319383399083     0.171815274780    -0.024289455804     1.007825032230

  Basis Set: AUG-CC-PVTZ
    Blend: AUG-CC-PVTZ
  Basis Set: (AUG-CC-PVTZ AUX)
    Blend: AUG-CC-PVTZ-JKFIT
	 Reference Energy          =    -525.5464099665551885 [Eh]
	 Singles Energy            =      -0.0000000000000000 [Eh]
	 Same-Spin Energy          =      -0.5760792766029941 [Eh]
	 Opposite-Spin Energy      =      -1.7358046143571941 [Eh]
	 Correlation Energy        =      -2.3118838909601882 [Eh]
	 Total Energy              =    -527.8582938575153776 [Eh]

	 ================> DF-SCS-MP2 Energies <==================
	-----------------------------------------------------------
	 SCS Same-Spin Scale       =       0.3333333333333333 [-]
	 SCS Opposite-Spin Scale   =       1.2000000000000000 [-]
	 SCS Same-Spin Energy      =      -0.1920264255343314 [Eh]
	 SCS Opposite-Spin Energy  =      -2.0829655372286329 [Eh]
	 SCS Correlation Energy    =      -2.2749919627629644 [Eh]
	 SCS Total Energy          =    -527.8214019293181991 [Eh]
	-----------------------------------------------------------

  Dipole Moment: [D]
     X:    -2.5978      Y:     2.4775      Z:     0.4201     Total:     3.6143

*** Psi4 exiting successfully. Buy a developer a beer!
