                               Psi4 1.4a3.dev225

  ==> Input File <==

--------------------------------------------------------------------------
#psi4
#
memory 32 gb

molecule  {
0 1
  N        0.8160970    -0.2990240    -0.0443680
  N        1.3386200    -1.4812946    -0.2650330
  N       -1.0817850     0.9875590    -0.4601130
  N       -1.2686320    -1.2431920     0.4227390
  C        1.7597130     0.6951090     0.1272320
  C        2.9786120     0.0532150     0.0016160
  C       -0.5903530    -0.1795160    -0.0248380
  C        1.4539390     2.1247050     0.4316710
  C        2.6793880    -1.2992810    -0.2463060
  C       -2.4210880     1.0928180    -0.4382200
  C       -2.6039190    -1.1175230     0.3972460
  C       -3.2414650     0.0469210    -0.0276130
  H        3.9528590     0.5149220     0.0929350
  H        1.0131890     2.6387050    -0.4244530
  H        0.7544440     2.2203260     1.2670250
  H        2.3864280     2.6245280     0.7070350
  H        3.3561510    -2.1272050    -0.4162310
  H       -2.8304840     2.0415190    -0.7796900
  H       -3.1684390    -1.9801170     0.7461500
  H       -4.3226790     0.1358530    -0.0311710
units angstrom
no_reorient  #important for SAPT in psi4, default
symmetry c1  #important for SAPT in psi4, default
}

set PROPERTIES_ORIGIN ["COM"]
properties('MP2/aug-cc-pvtz', properties = ['dipole'])
--------------------------------------------------------------------------

    Molecular point group: c1
  Charge       = 0
  Multiplicity = 1
  Basis Set: AUG-CC-PVTZ
    Blend: AUG-CC-PVTZ
  Basis Set: (AUG-CC-PVTZ AUX)
    Blend: AUG-CC-PVTZ-JKFIT

    Orbital Energies [Eh]
    ---------------------

    Doubly Occupied:

       1A    -15.646197     2A    -15.584130     3A    -15.580479
       4A    -15.578029     5A    -11.368605     6A    -11.312597
       7A    -11.310659     8A    -11.280722     9A    -11.254240
      10A    -11.251864    11A    -11.232456    12A    -11.217424
      13A     -1.402892    14A     -1.316829    15A     -1.207503
      16A     -1.127180    17A     -1.084276    18A     -1.047402
      19A     -0.955875    20A     -0.910264    21A     -0.899344
      22A     -0.804689    23A     -0.798834    24A     -0.713769
      25A     -0.708282    26A     -0.682384    27A     -0.643391
      28A     -0.635051    29A     -0.608033    30A     -0.593471
      31A     -0.587532    32A     -0.576550    33A     -0.563288
      34A     -0.555210    35A     -0.533889    36A     -0.492890
      37A     -0.450989    38A     -0.431451    39A     -0.420502
      40A     -0.406446    41A     -0.339912    42A     -0.326594

  @DF-RHF Final Energy:  -525.54220645965256

   => Energetics <=

    Nuclear Repulsion Energy =            659.6580259164295512
    One-Electron Energy =               -2021.5162080975628669
    Two-Electron Energy =                 836.3159757214807541
    Total Energy =                       -525.5422064596525615
  Basis Set: (AUG-CC-PVTZ AUX)
    Blend: AUG-CC-PVTZ-RI
    Molecular point group: c1

    Geometry (in Angstrom), charge = 0, multiplicity = 1:

       Center              X                  Y                   Z               Mass
    ------------   -----------------  -----------------  -----------------  -----------------
         N            0.824918349155    -0.265313608183    -0.037897463679    14.003074004430
         N            1.347441349155    -1.447584208183    -0.258562463679    14.003074004430
         N           -1.072963650845     1.021269391817    -0.453642463679    14.003074004430
         N           -1.259810650845    -1.209481608183     0.429209536321    14.003074004430
         C            1.768534349155     0.728819391817     0.133702536321    12.000000000000
         C            2.987433349155     0.086925391817     0.008086536321    12.000000000000
         C           -0.581531650845    -0.145805608183    -0.018367463679    12.000000000000
         C            1.462760349155     2.158415391817     0.438141536321    12.000000000000
         C            2.688209349155    -1.265570608183    -0.239835463679    12.000000000000
         C           -2.412266650845     1.126528391817    -0.431749463679    12.000000000000
         C           -2.595097650845    -1.083812608183     0.403716536321    12.000000000000
         C           -3.232643650845     0.080631391817    -0.021142463679    12.000000000000
         H            3.961680349155     0.548632391817     0.099405536321     1.007825032230
         H            1.022010349155     2.672415391817    -0.417982463679     1.007825032230
         H            0.763265349155     2.254036391817     1.273495536321     1.007825032230
         H            2.395249349155     2.658238391817     0.713505536321     1.007825032230
         H            3.364972349155    -2.093494608183    -0.409760463679     1.007825032230
         H           -2.821662650845     2.075229391817    -0.773219463679     1.007825032230
         H           -3.159617650845    -1.946406608183     0.752620536321     1.007825032230
         H           -4.313857650845     0.169563391817    -0.024700463679     1.007825032230

  Basis Set: AUG-CC-PVTZ
    Blend: AUG-CC-PVTZ
  Basis Set: (AUG-CC-PVTZ AUX)
    Blend: AUG-CC-PVTZ-JKFIT
	 Reference Energy          =    -525.5422064596525615 [Eh]
	 Singles Energy            =      -0.0000000000000000 [Eh]
	 Same-Spin Energy          =      -0.5781421366756681 [Eh]
	 Opposite-Spin Energy      =      -1.7383852978601113 [Eh]
	 Correlation Energy        =      -2.3165274345357796 [Eh]
	 Total Energy              =    -527.8587338941883900 [Eh]

	 ================> DF-SCS-MP2 Energies <==================
	-----------------------------------------------------------
	 SCS Same-Spin Scale       =       0.3333333333333333 [-]
	 SCS Opposite-Spin Scale   =       1.2000000000000000 [-]
	 SCS Same-Spin Energy      =      -0.1927140455585560 [Eh]
	 SCS Opposite-Spin Energy  =      -2.0860623574321333 [Eh]
	 SCS Correlation Energy    =      -2.2787764029906894 [Eh]
	 SCS Total Energy          =    -527.8209828626432909 [Eh]
	-----------------------------------------------------------

  Dipole Moment: [D]
     X:    -2.6975      Y:     2.5042      Z:     0.4298     Total:     3.7057

*** Psi4 exiting successfully. Buy a developer a beer!
