                               Psi4 1.3.2 release

  ==> Input File <==

--------------------------------------------------------------------------
#psi4
#
memory 32 gb

molecule  {
0 1
  N        0.8160970    -0.2990240    -0.0443680
  N        1.3585440    -1.5263750    -0.2734470
  N       -1.0817850     0.9875590    -0.4601130
  N       -1.2686320    -1.2431920     0.4227390
  C        1.7597130     0.6951090     0.1272320
  C        2.9786120     0.0532150     0.0016160
  C       -0.5903530    -0.1795160    -0.0248380
  C        1.4539390     2.1247050     0.4316710
  C        2.6793880    -1.2992810    -0.2463060
  C       -2.4408169     1.1061962    -0.4428429
  C       -2.6039190    -1.1175230     0.3972460
  C       -3.2414650     0.0469210    -0.0276130
  H        3.9528590     0.5149220     0.0929350
  H        1.0131890     2.6387050    -0.4244530
  H        0.7544440     2.2203260     1.2670250
  H        2.3864280     2.6245280     0.7070350
  H        3.3561510    -2.1272050    -0.4162310
  H       -2.8304840     2.0415190    -0.7796900
  H       -3.1684390    -1.9801170     0.7461500
  H       -4.3226790     0.1358530    -0.0311710
units angstrom
no_reorient  #important for SAPT in psi4, default
symmetry c1  #important for SAPT in psi4, default
}

set PROPERTIES_ORIGIN ["COM"]
properties('MP2/aug-cc-pvtz', properties = ['dipole'])
--------------------------------------------------------------------------

    Molecular point group: c1
  Charge       = 0
  Multiplicity = 1
  Basis Set: AUG-CC-PVTZ
    Blend: AUG-CC-PVTZ
  Basis Set: (AUG-CC-PVTZ AUX)
    Blend: AUG-CC-PVTZ-JKFIT

    Orbital Energies [Eh]
    ---------------------

    Doubly Occupied:

       1A    -15.641679     2A    -15.582881     3A    -15.581117
       4A    -15.578993     5A    -11.366648     6A    -11.312327
       7A    -11.310247     8A    -11.286312     9A    -11.254151
      10A    -11.253722    11A    -11.234233    12A    -11.216900
      13A     -1.385512    14A     -1.309416    15A     -1.202146
      16A     -1.128728    17A     -1.083865    18A     -1.045049
      19A     -0.958319    20A     -0.911387    21A     -0.894713
      22A     -0.800889    23A     -0.794653    24A     -0.712649
      25A     -0.706424    26A     -0.682090    27A     -0.637367
      28A     -0.634781    29A     -0.609417    30A     -0.590330
      31A     -0.587331    32A     -0.574093    33A     -0.563337
      34A     -0.551712    35A     -0.535329    36A     -0.489529
      37A     -0.454737    38A     -0.427685    39A     -0.420447
      40A     -0.407958    41A     -0.338133    42A     -0.331991

  @DF-RHF Final Energy:  -525.54193056340489

   => Energetics <=

    Nuclear Repulsion Energy =            657.7437377899798321
    One-Electron Energy =               -2017.7928766487821122
    Two-Electron Energy =                 834.5072082953973904
    Total Energy =                       -525.5419305634048897
  Basis Set: (AUG-CC-PVTZ AUX)
    Blend: AUG-CC-PVTZ-RI
    Molecular point group: c1

    Geometry (in Angstrom), charge = 0, multiplicity = 1:

       Center              X                  Y                   Z               Mass
    ------------   -----------------  -----------------  -----------------  -----------------
         N            0.824654407416    -0.262372948602    -0.036814866290    14.003074004430
         N            1.367101407416    -1.489723948602    -0.265893866290    14.003074004430
         N           -1.073227592584     1.024210051398    -0.452559866290    14.003074004430
         N           -1.260074592584    -1.206540948602     0.430292133710    14.003074004430
         C            1.768270407416     0.731760051398     0.134785133710    12.000000000000
         C            2.987169407416     0.089866051398     0.009169133710    12.000000000000
         C           -0.581795592584    -0.142864948602    -0.017284866290    12.000000000000
         C            1.462496407416     2.161356051398     0.439224133710    12.000000000000
         C            2.687945407416    -1.262629948602    -0.238752866290    12.000000000000
         C           -2.432259492584     1.142847251398    -0.435289766290    12.000000000000
         C           -2.595361592584    -1.080871948602     0.404799133710    12.000000000000
         C           -3.232907592584     0.083572051398    -0.020059866290    12.000000000000
         H            3.961416407416     0.551573051398     0.100488133710     1.007825032230
         H            1.021746407416     2.675356051398    -0.416899866290     1.007825032230
         H            0.763001407416     2.256977051398     1.274578133710     1.007825032230
         H            2.394985407416     2.661179051398     0.714588133710     1.007825032230
         H            3.364708407416    -2.090553948602    -0.408677866290     1.007825032230
         H           -2.821926592584     2.078170051398    -0.772136866290     1.007825032230
         H           -3.159881592584    -1.943465948602     0.753703133710     1.007825032230
         H           -4.314121592584     0.172504051398    -0.023617866290     1.007825032230

  Basis Set: AUG-CC-PVTZ
    Blend: AUG-CC-PVTZ
  Basis Set: (AUG-CC-PVTZ AUX)
    Blend: AUG-CC-PVTZ-JKFIT
	 Reference Energy          =    -525.5419305634048897 [Eh]
	 Singles Energy            =      -0.0000000000000000 [Eh]
	 Same-Spin Energy          =      -0.5777392498344072 [Eh]
	 Opposite-Spin Energy      =      -1.7391988272167891 [Eh]
	 Correlation Energy        =      -2.3169380770511960 [Eh]
	 Total Energy              =    -527.8588686404560804 [Eh]

	 ================> DF-SCS-MP2 Energies <==================
	-----------------------------------------------------------
	 SCS Same-Spin Scale       =       0.3333333333333333 [-]
	 SCS Opposite-Spin Scale   =       1.2000000000000000 [-]
	 SCS Same-Spin Energy      =      -0.1925797499448024 [Eh]
	 SCS Opposite-Spin Energy  =      -2.0870385926601469 [Eh]
	 SCS Correlation Energy    =      -2.2796183426049494 [Eh]
	 SCS Total Energy          =    -527.8215489060098662 [Eh]
	-----------------------------------------------------------

  Dipole Moment: [D]
     X:    -2.6252      Y:     2.5732      Z:     0.4345     Total:     3.7016

*** Psi4 exiting successfully. Buy a developer a beer!
