                               Psi4 1.3.2 release

  ==> Input File <==

--------------------------------------------------------------------------
#psi4
#
memory 32 gb

molecule  {
0 1
  N        0.8160970    -0.2990240    -0.0443680
  N        1.3585440    -1.5263750    -0.2734470
  N       -1.0817850     0.9875590    -0.4601130
  N       -1.2807178    -1.3301019     0.4554081
  C        1.7597130     0.6951090     0.1272320
  C        2.9786120     0.0532150     0.0016160
  C       -0.5903530    -0.1795160    -0.0248380
  C        1.4539390     2.1247050     0.4316710
  C        2.6793880    -1.2992810    -0.2463060
  C       -2.4210880     1.0928180    -0.4382200
  C       -2.6039190    -1.1175230     0.3972460
  C       -3.2414650     0.0469210    -0.0276130
  H        3.9528590     0.5149220     0.0929350
  H        1.0131890     2.6387050    -0.4244530
  H        0.7544440     2.2203260     1.2670250
  H        2.3864280     2.6245280     0.7070350
  H        3.3561510    -2.1272050    -0.4162310
  H       -2.8304840     2.0415190    -0.7796900
  H       -3.1684390    -1.9801170     0.7461500
  H       -4.3226790     0.1358530    -0.0311710
units angstrom
no_reorient  #important for SAPT in psi4, default
symmetry c1  #important for SAPT in psi4, default
}

set PROPERTIES_ORIGIN ["COM"]
properties('MP2/aug-cc-pvtz', properties = ['dipole'])
--------------------------------------------------------------------------

    Molecular point group: c1
  Charge       = 0
  Multiplicity = 1
  Basis Set: AUG-CC-PVTZ
    Blend: AUG-CC-PVTZ
  Basis Set: (AUG-CC-PVTZ AUX)
    Blend: AUG-CC-PVTZ-JKFIT

    Orbital Energies [Eh]
    ---------------------

    Doubly Occupied:

       1A    -15.645609     2A    -15.591061     3A    -15.585514
       4A    -15.583266     5A    -11.378115     6A    -11.312449
       7A    -11.306270     8A    -11.288789     9A    -11.256689
      10A    -11.251466    11A    -11.236067    12A    -11.219397
      13A     -1.385806    14A     -1.303891    15A     -1.202949
      16A     -1.129360    17A     -1.084734    18A     -1.043075
      19A     -0.960460    20A     -0.905748    21A     -0.891914
      22A     -0.801266    23A     -0.792488    24A     -0.713714
      25A     -0.700220    26A     -0.680854    27A     -0.637369
      28A     -0.633272    29A     -0.605879    30A     -0.586930
      31A     -0.580893    32A     -0.572696    33A     -0.565097
      34A     -0.552828    35A     -0.537503    36A     -0.498842
      37A     -0.456984    38A     -0.433032    39A     -0.424023
      40A     -0.405264    41A     -0.336407    42A     -0.334174

  @DF-RHF Final Energy:  -525.53180592465139

   => Energetics <=

    Nuclear Repulsion Energy =            655.8823011334625335
    One-Electron Energy =               -2014.0034885530878910
    Two-Electron Energy =                 832.5893814949739635
    Total Energy =                       -525.5318059246513940
  Basis Set: (AUG-CC-PVTZ AUX)
    Blend: AUG-CC-PVTZ-RI
    Molecular point group: c1

    Geometry (in Angstrom), charge = 0, multiplicity = 1:

       Center              X                  Y                   Z               Mass
    ------------   -----------------  -----------------  -----------------  -----------------
         N            0.824232677027    -0.253767325900    -0.040019257715    14.003074004430
         N            1.366679677027    -1.481118325900    -0.269098257715    14.003074004430
         N           -1.073649322973     1.032815674100    -0.455764257715    14.003074004430
         N           -1.272582122973    -1.284845225900     0.459756842285    14.003074004430
         C            1.767848677027     0.740365674100     0.131580742285    12.000000000000
         C            2.986747677027     0.098471674100     0.005964742285    12.000000000000
         C           -0.582217322973    -0.134259325900    -0.020489257715    12.000000000000
         C            1.462074677027     2.169961674100     0.436019742285    12.000000000000
         C            2.687523677027    -1.254024325900    -0.241957257715    12.000000000000
         C           -2.412952322973     1.138074674100    -0.433871257715    12.000000000000
         C           -2.595783322973    -1.072266325900     0.401594742285    12.000000000000
         C           -3.233329322973     0.092177674100    -0.023264257715    12.000000000000
         H            3.960994677027     0.560178674100     0.097283742285     1.007825032230
         H            1.021324677027     2.683961674100    -0.420104257715     1.007825032230
         H            0.762579677027     2.265582674100     1.271373742285     1.007825032230
         H            2.394563677027     2.669784674100     0.711383742285     1.007825032230
         H            3.364286677027    -2.081948325900    -0.411882257715     1.007825032230
         H           -2.822348322973     2.086775674100    -0.775341257715     1.007825032230
         H           -3.160303322973    -1.934860325900     0.750498742285     1.007825032230
         H           -4.314543322973     0.181109674100    -0.026822257715     1.007825032230

  Basis Set: AUG-CC-PVTZ
    Blend: AUG-CC-PVTZ
  Basis Set: (AUG-CC-PVTZ AUX)
    Blend: AUG-CC-PVTZ-JKFIT
	 Reference Energy          =    -525.5318059246513940 [Eh]
	 Singles Energy            =      -0.0000000000000000 [Eh]
	 Same-Spin Energy          =      -0.5782126923823823 [Eh]
	 Opposite-Spin Energy      =      -1.7416450586898140 [Eh]
	 Correlation Energy        =      -2.3198577510721963 [Eh]
	 Total Energy              =    -527.8516636757235574 [Eh]

	 ================> DF-SCS-MP2 Energies <==================
	-----------------------------------------------------------
	 SCS Same-Spin Scale       =       0.3333333333333333 [-]
	 SCS Opposite-Spin Scale   =       1.2000000000000000 [-]
	 SCS Same-Spin Energy      =      -0.1927375641274607 [Eh]
	 SCS Opposite-Spin Energy  =      -2.0899740704277767 [Eh]
	 SCS Correlation Energy    =      -2.2827116345552376 [Eh]
	 SCS Total Energy          =    -527.8145175592065925 [Eh]
	-----------------------------------------------------------

  Dipole Moment: [D]
     X:    -2.3872      Y:     2.6707      Z:     0.3901     Total:     3.6033

*** Psi4 exiting successfully. Buy a developer a beer!
