                               Psi4 1.3.2 release

  ==> Input File <==

--------------------------------------------------------------------------
#psi4
#
memory 32 gb

molecule  {
0 1
  N        0.8160970    -0.2990240    -0.0443680
  N        1.3585440    -1.5263750    -0.2734470
  N       -1.0817850     0.9875590    -0.4601130
  N       -1.2686320    -1.2431920     0.4227390
  C        1.7597130     0.6951090     0.1272320
  C        2.9786120     0.0532150     0.0016160
  C       -0.5903530    -0.1795160    -0.0248380
  C        1.4539390     2.1247050     0.4316710
  C        2.6554367    -1.2939044    -0.2455131
  C       -2.4210880     1.0928180    -0.4382200
  C       -2.6039190    -1.1175230     0.3972460
  C       -3.2414650     0.0469210    -0.0276130
  H        3.9528590     0.5149220     0.0929350
  H        1.0131890     2.6387050    -0.4244530
  H        0.7544440     2.2203260     1.2670250
  H        2.3864280     2.6245280     0.7070350
  H        3.3561510    -2.1272050    -0.4162310
  H       -2.8304840     2.0415190    -0.7796900
  H       -3.1684390    -1.9801170     0.7461500
  H       -4.3226790     0.1358530    -0.0311710
units angstrom
no_reorient  #important for SAPT in psi4, default
symmetry c1  #important for SAPT in psi4, default
}

set PROPERTIES_ORIGIN ["COM"]
properties('MP2/aug-cc-pvtz', properties = ['dipole'])
--------------------------------------------------------------------------

    Molecular point group: c1
  Charge       = 0
  Multiplicity = 1
  Basis Set: AUG-CC-PVTZ
    Blend: AUG-CC-PVTZ
  Basis Set: (AUG-CC-PVTZ AUX)
    Blend: AUG-CC-PVTZ-JKFIT

    Orbital Energies [Eh]
    ---------------------

    Doubly Occupied:

       1A    -15.640718     2A    -15.582012     3A    -15.579949
       4A    -15.578322     5A    -11.367019     6A    -11.311318
       7A    -11.309309     8A    -11.287253     9A    -11.253708
      10A    -11.252355    11A    -11.234778    12A    -11.216545
      13A     -1.388784    14A     -1.313617    15A     -1.205768
      16A     -1.132789    17A     -1.085517    18A     -1.044907
      19A     -0.960089    20A     -0.908963    21A     -0.895473
      22A     -0.797335    23A     -0.796036    24A     -0.713266
      25A     -0.707889    26A     -0.682875    27A     -0.638878
      28A     -0.632985    29A     -0.606818    30A     -0.589081
      31A     -0.586045    32A     -0.574378    33A     -0.565011
      34A     -0.554017    35A     -0.533547    36A     -0.491420
      37A     -0.456174    38A     -0.430375    39A     -0.420174
      40A     -0.408701    41A     -0.339336    42A     -0.333828

  @DF-RHF Final Energy:  -525.54467917386251

   => Energetics <=

    Nuclear Repulsion Energy =            658.8494758941649252
    One-Electron Energy =               -2019.9735848896814332
    Two-Electron Energy =                 835.5794298216540028
    Total Energy =                       -525.5446791738625052
  Basis Set: (AUG-CC-PVTZ AUX)
    Blend: AUG-CC-PVTZ-RI
    Molecular point group: c1

    Geometry (in Angstrom), charge = 0, multiplicity = 1:

       Center              X                  Y                   Z               Mass
    ------------   -----------------  -----------------  -----------------  -----------------
         N            0.824970939247    -0.261773109388    -0.037220861243    14.003074004430
         N            1.367417939247    -1.489124109388    -0.266299861243    14.003074004430
         N           -1.072911060753     1.024809890612    -0.452965861243    14.003074004430
         N           -1.259758060753    -1.205941109388     0.429886138757    14.003074004430
         C            1.768586939247     0.732359890612     0.134379138757    12.000000000000
         C            2.987485939247     0.090465890612     0.008763138757    12.000000000000
         C           -0.581479060753    -0.142265109388    -0.017690861243    12.000000000000
         C            1.462812939247     2.161955890612     0.438818138757    12.000000000000
         C            2.664310639247    -1.256653509388    -0.238365961243    12.000000000000
         C           -2.412214060753     1.130068890612    -0.431072861243    12.000000000000
         C           -2.595045060753    -1.080272109388     0.404393138757    12.000000000000
         C           -3.232591060753     0.084171890612    -0.020465861243    12.000000000000
         H            3.961732939247     0.552172890612     0.100082138757     1.007825032230
         H            1.022062939247     2.675955890612    -0.417305861243     1.007825032230
         H            0.763317939247     2.257576890612     1.274172138757     1.007825032230
         H            2.395301939247     2.661778890612     0.714182138757     1.007825032230
         H            3.365024939247    -2.089954109388    -0.409083861243     1.007825032230
         H           -2.821610060753     2.078769890612    -0.772542861243     1.007825032230
         H           -3.159565060753    -1.942866109388     0.753297138757     1.007825032230
         H           -4.313805060753     0.173103890612    -0.024023861243     1.007825032230

  Basis Set: AUG-CC-PVTZ
    Blend: AUG-CC-PVTZ
  Basis Set: (AUG-CC-PVTZ AUX)
    Blend: AUG-CC-PVTZ-JKFIT
	 Reference Energy          =    -525.5446791738625052 [Eh]
	 Singles Energy            =      -0.0000000000000000 [Eh]
	 Same-Spin Energy          =      -0.5769650319623942 [Eh]
	 Opposite-Spin Energy      =      -1.7374853709484168 [Eh]
	 Correlation Energy        =      -2.3144504029108113 [Eh]
	 Total Energy              =    -527.8591295767732845 [Eh]

	 ================> DF-SCS-MP2 Energies <==================
	-----------------------------------------------------------
	 SCS Same-Spin Scale       =       0.3333333333333333 [-]
	 SCS Opposite-Spin Scale   =       1.2000000000000000 [-]
	 SCS Same-Spin Energy      =      -0.1923216773207981 [Eh]
	 SCS Opposite-Spin Energy  =      -2.0849824451381003 [Eh]
	 SCS Correlation Energy    =      -2.2773041224588981 [Eh]
	 SCS Total Energy          =    -527.8219832963213776 [Eh]
	-----------------------------------------------------------

  Dipole Moment: [D]
     X:    -2.5487      Y:     2.5577      Z:     0.4400     Total:     3.6375

*** Psi4 exiting successfully. Buy a developer a beer!
