                               Psi4 1.3.2 release

  ==> Input File <==

--------------------------------------------------------------------------
#psi4
#
memory 32 gb

molecule  {
0 1
  N        0.8160970    -0.2990240    -0.0443680
  N        1.3585440    -1.5263750    -0.2734470
  N       -1.0817850     0.9875590    -0.4601130
  N       -1.2710391    -1.2648532     0.4312902
  C        1.7597130     0.6951090     0.1272320
  C        2.9786120     0.0532150     0.0016160
  C       -0.5903530    -0.1795160    -0.0248380
  C        1.4539390     2.1247050     0.4316710
  C        2.6793880    -1.2992810    -0.2463060
  C       -2.4210880     1.0928180    -0.4382200
  C       -2.6039190    -1.1175230     0.3972460
  C       -3.2414650     0.0469210    -0.0276130
  H        3.9528590     0.5149220     0.0929350
  H        1.0131890     2.6387050    -0.4244530
  H        0.7544440     2.2203260     1.2670250
  H        2.3864280     2.6245280     0.7070350
  H        3.3561510    -2.1272050    -0.4162310
  H       -2.8304840     2.0415190    -0.7796900
  H       -3.1684390    -1.9801170     0.7461500
  H       -4.3226790     0.1358530    -0.0311710
units angstrom
no_reorient  #important for SAPT in psi4, default
symmetry c1  #important for SAPT in psi4, default
}

set PROPERTIES_ORIGIN ["COM"]
properties('MP2/aug-cc-pvtz', properties = ['dipole'])
--------------------------------------------------------------------------

    Molecular point group: c1
  Charge       = 0
  Multiplicity = 1
  Basis Set: AUG-CC-PVTZ
    Blend: AUG-CC-PVTZ
  Basis Set: (AUG-CC-PVTZ AUX)
    Blend: AUG-CC-PVTZ-JKFIT

    Orbital Energies [Eh]
    ---------------------

    Doubly Occupied:

       1A    -15.643038     2A    -15.583260     3A    -15.581920
       4A    -15.581842     5A    -11.370295     6A    -11.311773
       7A    -11.308629     8A    -11.287273     9A    -11.255080
      10A    -11.252355    11A    -11.235055    12A    -11.217846
      13A     -1.386084    14A     -1.310143    15A     -1.205366
      16A     -1.129363    17A     -1.084324    18A     -1.044484
      19A     -0.959223    20A     -0.907207    21A     -0.896407
      22A     -0.800265    23A     -0.794700    24A     -0.713163
      25A     -0.705411    26A     -0.682353    27A     -0.637911
      28A     -0.633322    29A     -0.606796    30A     -0.588234
      31A     -0.586065    32A     -0.574484    33A     -0.564314
      34A     -0.552767    35A     -0.536322    36A     -0.493348
      37A     -0.455634    38A     -0.430995    39A     -0.421490
      40A     -0.407183    41A     -0.337632    42A     -0.332850

  @DF-RHF Final Energy:  -525.54188200117437

   => Energetics <=

    Nuclear Repulsion Energy =            657.6695713125985776
    One-Electron Energy =               -2017.6105005256908953
    Two-Electron Energy =                 834.3990472119178321
    Total Energy =                       -525.5418820011743719
  Basis Set: (AUG-CC-PVTZ AUX)
    Blend: AUG-CC-PVTZ-RI
    Molecular point group: c1

    Geometry (in Angstrom), charge = 0, multiplicity = 1:

       Center              X                  Y                   Z               Mass
    ------------   -----------------  -----------------  -----------------  -----------------
         N            0.823386001156    -0.259475168891    -0.037909465697    14.003074004430
         N            1.365833001156    -1.486826168891    -0.266988465697    14.003074004430
         N           -1.074495998844     1.027107831109    -0.453654465697    14.003074004430
         N           -1.263750098844    -1.225304368891     0.437748734303    14.003074004430
         C            1.767002001156     0.734657831109     0.133690534303    12.000000000000
         C            2.985901001156     0.092763831109     0.008074534303    12.000000000000
         C           -0.583063998844    -0.139967168891    -0.018379465697    12.000000000000
         C            1.461228001156     2.164253831109     0.438129534303    12.000000000000
         C            2.686677001156    -1.259732168891    -0.239847465697    12.000000000000
         C           -2.413798998844     1.132366831109    -0.431761465697    12.000000000000
         C           -2.596629998844    -1.077974168891     0.403704534303    12.000000000000
         C           -3.234175998844     0.086469831109    -0.021154465697    12.000000000000
         H            3.960148001156     0.554470831109     0.099393534303     1.007825032230
         H            1.020478001156     2.678253831109    -0.417994465697     1.007825032230
         H            0.761733001156     2.259874831109     1.273483534303     1.007825032230
         H            2.393717001156     2.664076831109     0.713493534303     1.007825032230
         H            3.363440001156    -2.087656168891    -0.409772465697     1.007825032230
         H           -2.823194998844     2.081067831109    -0.773231465697     1.007825032230
         H           -3.161149998844    -1.940568168891     0.752608534303     1.007825032230
         H           -4.315389998844     0.175401831109    -0.024712465697     1.007825032230

  Basis Set: AUG-CC-PVTZ
    Blend: AUG-CC-PVTZ
  Basis Set: (AUG-CC-PVTZ AUX)
    Blend: AUG-CC-PVTZ-JKFIT
	 Reference Energy          =    -525.5418820011743719 [Eh]
	 Singles Energy            =      -0.0000000000000000 [Eh]
	 Same-Spin Energy          =      -0.5777031280321677 [Eh]
	 Opposite-Spin Energy      =      -1.7392926124924923 [Eh]
	 Correlation Energy        =      -2.3169957405246602 [Eh]
	 Total Energy              =    -527.8588777416990752 [Eh]

	 ================> DF-SCS-MP2 Energies <==================
	-----------------------------------------------------------
	 SCS Same-Spin Scale       =       0.3333333333333333 [-]
	 SCS Opposite-Spin Scale   =       1.2000000000000000 [-]
	 SCS Same-Spin Energy      =      -0.1925677093440559 [Eh]
	 SCS Opposite-Spin Energy  =      -2.0871511349909908 [Eh]
	 SCS Correlation Energy    =      -2.2797188443350467 [Eh]
	 SCS Total Energy          =    -527.8216008455094652 [Eh]
	-----------------------------------------------------------

  Dipole Moment: [D]
     X:    -2.5319      Y:     2.5864      Z:     0.4259     Total:     3.6443

*** Psi4 exiting successfully. Buy a developer a beer!
