                               Psi4 1.3.2 release

  ==> Input File <==

--------------------------------------------------------------------------
#psi4
#
memory 32 gb

molecule  {
0 1
  N        0.7814661    -0.2660581    -0.0381434
  N        1.3585440    -1.5263750    -0.2734470
  N       -1.0817850     0.9875590    -0.4601130
  N       -1.2686320    -1.2431920     0.4227390
  C        1.7597130     0.6951090     0.1272320
  C        2.9786120     0.0532150     0.0016160
  C       -0.5903530    -0.1795160    -0.0248380
  C        1.4539390     2.1247050     0.4316710
  C        2.6793880    -1.2992810    -0.2463060
  C       -2.4210880     1.0928180    -0.4382200
  C       -2.6039190    -1.1175230     0.3972460
  C       -3.2414650     0.0469210    -0.0276130
  H        3.9528590     0.5149220     0.0929350
  H        1.0131890     2.6387050    -0.4244530
  H        0.7544440     2.2203260     1.2670250
  H        2.3864280     2.6245280     0.7070350
  H        3.3561510    -2.1272050    -0.4162310
  H       -2.8304840     2.0415190    -0.7796900
  H       -3.1684390    -1.9801170     0.7461500
  H       -4.3226790     0.1358530    -0.0311710
units angstrom
no_reorient  #important for SAPT in psi4, default
symmetry c1  #important for SAPT in psi4, default
}

set PROPERTIES_ORIGIN ["COM"]
properties('MP2/aug-cc-pvtz', properties = ['dipole'])
--------------------------------------------------------------------------

    Molecular point group: c1
  Charge       = 0
  Multiplicity = 1
  Basis Set: AUG-CC-PVTZ
    Blend: AUG-CC-PVTZ
  Basis Set: (AUG-CC-PVTZ AUX)
    Blend: AUG-CC-PVTZ-JKFIT

    Orbital Energies [Eh]
    ---------------------

    Doubly Occupied:

       1A    -15.639161     2A    -15.583764     3A    -15.578496
       4A    -15.575728     5A    -11.363727     6A    -11.309136
       7A    -11.307614     8A    -11.292292     9A    -11.260623
      10A    -11.249829    11A    -11.234478    12A    -11.219815
      13A     -1.379825    14A     -1.306130    15A     -1.203948
      16A     -1.136323    17A     -1.082956    18A     -1.044204
      19A     -0.958416    20A     -0.907830    21A     -0.898654
      22A     -0.802172    23A     -0.793329    24A     -0.712934
      25A     -0.704957    26A     -0.681542    27A     -0.637816
      28A     -0.633765    29A     -0.606824    30A     -0.594800
      31A     -0.585373    32A     -0.573990    33A     -0.560893
      34A     -0.548206    35A     -0.537768    36A     -0.491336
      37A     -0.452141    38A     -0.428648    39A     -0.417652
      40A     -0.411493    41A     -0.340055    42A     -0.331147

  @DF-RHF Final Energy:  -525.54046697016759

   => Energetics <=

    Nuclear Repulsion Energy =            658.3252467515792432
    One-Electron Energy =               -2018.9718516555387851
    Two-Electron Energy =                 835.1061379337919561
    Total Energy =                       -525.5404669701675857
  Basis Set: (AUG-CC-PVTZ AUX)
    Blend: AUG-CC-PVTZ-RI
    Molecular point group: c1

    Geometry (in Angstrom), charge = 0, multiplicity = 1:

       Center              X                  Y                   Z               Mass
    ------------   -----------------  -----------------  -----------------  -----------------
         N            0.791573983233    -0.231287952756    -0.031481338768    14.003074004430
         N            1.368651883233    -1.491604852756    -0.266784938768    14.003074004430
         N           -1.071677116767     1.022329147244    -0.453450938768    14.003074004430
         N           -1.258524116767    -1.208421852756     0.429401061232    14.003074004430
         C            1.769820883233     0.729879147244     0.133894061232    12.000000000000
         C            2.988719883233     0.087985147244     0.008278061232    12.000000000000
         C           -0.580245116767    -0.144745852756    -0.018175938768    12.000000000000
         C            1.464046883233     2.159475147244     0.438333061232    12.000000000000
         C            2.689495883233    -1.264510852756    -0.239643938768    12.000000000000
         C           -2.410980116767     1.127588147244    -0.431557938768    12.000000000000
         C           -2.593811116767    -1.082752852756     0.403908061232    12.000000000000
         C           -3.231357116767     0.081691147244    -0.020950938768    12.000000000000
         H            3.962966883233     0.549692147244     0.099597061232     1.007825032230
         H            1.023296883233     2.673475147244    -0.417790938768     1.007825032230
         H            0.764551883233     2.255096147244     1.273687061232     1.007825032230
         H            2.396535883233     2.659298147244     0.713697061232     1.007825032230
         H            3.366258883233    -2.092434852756    -0.409568938768     1.007825032230
         H           -2.820376116767     2.076289147244    -0.773027938768     1.007825032230
         H           -3.158331116767    -1.945346852756     0.752812061232     1.007825032230
         H           -4.312571116767     0.170623147244    -0.024508938768     1.007825032230

  Basis Set: AUG-CC-PVTZ
    Blend: AUG-CC-PVTZ
  Basis Set: (AUG-CC-PVTZ AUX)
    Blend: AUG-CC-PVTZ-JKFIT
	 Reference Energy          =    -525.5404669701675857 [Eh]
	 Singles Energy            =      -0.0000000000000000 [Eh]
	 Same-Spin Energy          =      -0.5772308731938903 [Eh]
	 Opposite-Spin Energy      =      -1.7391072684415838 [Eh]
	 Correlation Energy        =      -2.3163381416354740 [Eh]
	 Total Energy              =    -527.8568051118030553 [Eh]

	 ================> DF-SCS-MP2 Energies <==================
	-----------------------------------------------------------
	 SCS Same-Spin Scale       =       0.3333333333333333 [-]
	 SCS Opposite-Spin Scale   =       1.2000000000000000 [-]
	 SCS Same-Spin Energy      =      -0.1924102910646301 [Eh]
	 SCS Opposite-Spin Energy  =      -2.0869287221299007 [Eh]
	 SCS Correlation Energy    =      -2.2793390131945306 [Eh]
	 SCS Total Energy          =    -527.8198059833621301 [Eh]
	-----------------------------------------------------------

  Dipole Moment: [D]
     X:    -2.2877      Y:     2.4979      Z:     0.4335     Total:     3.4148

*** Psi4 exiting successfully. Buy a developer a beer!
