                               Psi4 1.3.2 release

  ==> Input File <==

--------------------------------------------------------------------------
#psi4
#
memory 32 gb

molecule  {
0 1
  N        0.8160970    -0.2990240    -0.0443680
  N        1.3585440    -1.5263750    -0.2734470
  N       -1.0817850     0.9875590    -0.4601130
  N       -1.2666316    -1.2214925     0.4141800
  C        1.7597130     0.6951090     0.1272320
  C        2.9786120     0.0532150     0.0016160
  C       -0.5903530    -0.1795160    -0.0248380
  C        1.4539390     2.1247050     0.4316710
  C        2.6793880    -1.2992810    -0.2463060
  C       -2.4210880     1.0928180    -0.4382200
  C       -2.6039190    -1.1175230     0.3972460
  C       -3.2414650     0.0469210    -0.0276130
  H        3.9528590     0.5149220     0.0929350
  H        1.0131890     2.6387050    -0.4244530
  H        0.7544440     2.2203260     1.2670250
  H        2.3864280     2.6245280     0.7070350
  H        3.3561510    -2.1272050    -0.4162310
  H       -2.8304840     2.0415190    -0.7796900
  H       -3.1684390    -1.9801170     0.7461500
  H       -4.3226790     0.1358530    -0.0311710
units angstrom
no_reorient  #important for SAPT in psi4, default
symmetry c1  #important for SAPT in psi4, default
}

set PROPERTIES_ORIGIN ["COM"]
properties('MP2/aug-cc-pvtz', properties = ['dipole'])
--------------------------------------------------------------------------

    Molecular point group: c1
  Charge       = 0
  Multiplicity = 1
  Basis Set: AUG-CC-PVTZ
    Blend: AUG-CC-PVTZ
  Basis Set: (AUG-CC-PVTZ AUX)
    Blend: AUG-CC-PVTZ-JKFIT

    Orbital Energies [Eh]
    ---------------------

    Doubly Occupied:

       1A    -15.641157     2A    -15.581539     3A    -15.580991
       4A    -15.575415     5A    -11.364355     6A    -11.311257
       7A    -11.310358     8A    -11.286189     9A    -11.253978
      10A    -11.253042    11A    -11.234337    12A    -11.216761
      13A     -1.386664    14A     -1.315093    15A     -1.206601
      16A     -1.129451    17A     -1.084103    18A     -1.045557
      19A     -0.958350    20A     -0.911382    21A     -0.896206
      22A     -0.800175    23A     -0.795557    24A     -0.713510
      25A     -0.709110    26A     -0.682556    27A     -0.638611
      28A     -0.633542    29A     -0.607518    30A     -0.591062
      31A     -0.586957    32A     -0.575815    33A     -0.563607
      34A     -0.552565    35A     -0.535476    36A     -0.490056
      37A     -0.454484    38A     -0.430153    39A     -0.418720
      40A     -0.408150    41A     -0.338448    42A     -0.331882

  @DF-RHF Final Energy:  -525.54443192717167

   => Energetics <=

    Nuclear Repulsion Energy =            658.8848455894020617
    One-Electron Energy =               -2020.0570757578802841
    Two-Electron Energy =                 835.6277982413064365
    Total Energy =                       -525.5444319271716722
  Basis Set: (AUG-CC-PVTZ AUX)
    Blend: AUG-CC-PVTZ-RI
    Molecular point group: c1

    Geometry (in Angstrom), charge = 0, multiplicity = 1:

       Center              X                  Y                   Z               Mass
    ------------   -----------------  -----------------  -----------------  -----------------
         N            0.823000440708    -0.263268287645    -0.036412695107    14.003074004430
         N            1.365447440708    -1.490619287645    -0.265491695107    14.003074004430
         N           -1.074881559292     1.023314712355    -0.452157695107    14.003074004430
         N           -1.259728159292    -1.185736787645     0.422135304893    14.003074004430
         C            1.766616440708     0.730864712355     0.135187304893    12.000000000000
         C            2.985515440708     0.088970712355     0.009571304893    12.000000000000
         C           -0.583449559292    -0.143760287645    -0.016882695107    12.000000000000
         C            1.460842440708     2.160460712355     0.439626304893    12.000000000000
         C            2.686291440708    -1.263525287645    -0.238350695107    12.000000000000
         C           -2.414184559292     1.128573712355    -0.430264695107    12.000000000000
         C           -2.597015559292    -1.081767287645     0.405201304893    12.000000000000
         C           -3.234561559292     0.082676712355    -0.019657695107    12.000000000000
         H            3.959762440708     0.550677712355     0.100890304893     1.007825032230
         H            1.020092440708     2.674460712355    -0.416497695107     1.007825032230
         H            0.761347440708     2.256081712355     1.274980304893     1.007825032230
         H            2.393331440708     2.660283712355     0.714990304893     1.007825032230
         H            3.363054440708    -2.091449287645    -0.408275695107     1.007825032230
         H           -2.823580559292     2.077274712355    -0.771734695107     1.007825032230
         H           -3.161535559292    -1.944361287645     0.754105304893     1.007825032230
         H           -4.315775559292     0.171608712355    -0.023215695107     1.007825032230

  Basis Set: AUG-CC-PVTZ
    Blend: AUG-CC-PVTZ
  Basis Set: (AUG-CC-PVTZ AUX)
    Blend: AUG-CC-PVTZ-JKFIT
	 Reference Energy          =    -525.5444319271716722 [Eh]
	 Singles Energy            =      -0.0000000000000000 [Eh]
	 Same-Spin Energy          =      -0.5774302046471260 [Eh]
	 Opposite-Spin Energy      =      -1.7380334974695546 [Eh]
	 Correlation Energy        =      -2.3154637021166806 [Eh]
	 Total Energy              =    -527.8598956292883031 [Eh]

	 ================> DF-SCS-MP2 Energies <==================
	-----------------------------------------------------------
	 SCS Same-Spin Scale       =       0.3333333333333333 [-]
	 SCS Opposite-Spin Scale   =       1.2000000000000000 [-]
	 SCS Same-Spin Energy      =      -0.1924767348823753 [Eh]
	 SCS Opposite-Spin Energy  =      -2.0856401969634653 [Eh]
	 SCS Correlation Energy    =      -2.2781169318458407 [Eh]
	 SCS Total Energy          =    -527.8225488590175019 [Eh]
	-----------------------------------------------------------

  Dipole Moment: [D]
     X:    -2.6268      Y:     2.5216      Z:     0.4549     Total:     3.6695

*** Psi4 exiting successfully. Buy a developer a beer!
