                               Psi4 1.3.2 release

  ==> Input File <==

--------------------------------------------------------------------------
#psi4
#
memory 32 gb

molecule  {
0 1
  N        0.8160970    -0.2990240    -0.0443680
  N        1.3585440    -1.5263750    -0.2734470
  N       -1.0817850     0.9875590    -0.4601130
  N       -1.2686320    -1.2431920     0.4227390
  C        1.7170599     0.6098830     0.1117485
  C        2.9786120     0.0532150     0.0016160
  C       -0.5903530    -0.1795160    -0.0248380
  C        1.4539390     2.1247050     0.4316710
  C        2.6793880    -1.2992810    -0.2463060
  C       -2.4210880     1.0928180    -0.4382200
  C       -2.6039190    -1.1175230     0.3972460
  C       -3.2414650     0.0469210    -0.0276130
  H        3.9528590     0.5149220     0.0929350
  H        1.0131890     2.6387050    -0.4244530
  H        0.7544440     2.2203260     1.2670250
  H        2.3864280     2.6245280     0.7070350
  H        3.3561510    -2.1272050    -0.4162310
  H       -2.8304840     2.0415190    -0.7796900
  H       -3.1684390    -1.9801170     0.7461500
  H       -4.3226790     0.1358530    -0.0311710
units angstrom
no_reorient  #important for SAPT in psi4, default
symmetry c1  #important for SAPT in psi4, default
}

set PROPERTIES_ORIGIN ["COM"]
properties('MP2/aug-cc-pvtz', properties = ['dipole'])
--------------------------------------------------------------------------

    Molecular point group: c1
  Charge       = 0
  Multiplicity = 1
  Basis Set: AUG-CC-PVTZ
    Blend: AUG-CC-PVTZ
  Basis Set: (AUG-CC-PVTZ AUX)
    Blend: AUG-CC-PVTZ-JKFIT

    Orbital Energies [Eh]
    ---------------------

    Doubly Occupied:

       1A    -15.645121     2A    -15.586510     3A    -15.582957
       4A    -15.571961     5A    -11.372078     6A    -11.314253
       7A    -11.312305     8A    -11.280860     9A    -11.256354
      10A    -11.253182    11A    -11.236346    12A    -11.210646
      13A     -1.404478    14A     -1.318689    15A     -1.209709
      16A     -1.135883    17A     -1.083371    18A     -1.046464
      19A     -0.948431    20A     -0.912311    21A     -0.906685
      22A     -0.807883    23A     -0.801978    24A     -0.716557
      25A     -0.706044    26A     -0.680486    27A     -0.647019
      28A     -0.636526    29A     -0.608705    30A     -0.597546
      31A     -0.586201    32A     -0.574425    33A     -0.562808
      34A     -0.553690    35A     -0.512133    36A     -0.494664
      37A     -0.452593    38A     -0.432989    39A     -0.422521
      40A     -0.409693    41A     -0.347332    42A     -0.328238

  @DF-RHF Final Energy:  -525.53640726550691

   => Energetics <=

    Nuclear Repulsion Energy =            659.8972602957555864
    One-Electron Energy =               -2021.9300807543063456
    Two-Electron Energy =                 836.4964131930438498
    Total Energy =                       -525.5364072655069094
  Basis Set: (AUG-CC-PVTZ AUX)
    Blend: AUG-CC-PVTZ-RI
    Molecular point group: c1

    Geometry (in Angstrom), charge = 0, multiplicity = 1:

       Center              X                  Y                   Z               Mass
    ------------   -----------------  -----------------  -----------------  -----------------
         N            0.826372917978    -0.254981093742    -0.036000702402    14.003074004430
         N            1.368819917978    -1.482332093742    -0.265079702402    14.003074004430
         N           -1.071509082022     1.031601906258    -0.451745702402    14.003074004430
         N           -1.258356082022    -1.199149093742     0.431106297598    14.003074004430
         C            1.727335817978     0.653925906258     0.120115797598    12.000000000000
         C            2.988887917978     0.097257906258     0.009983297598    12.000000000000
         C           -0.580077082022    -0.135473093742    -0.016470702402    12.000000000000
         C            1.464214917978     2.168747906258     0.440038297598    12.000000000000
         C            2.689663917978    -1.255238093742    -0.237938702402    12.000000000000
         C           -2.410812082022     1.136860906258    -0.429852702402    12.000000000000
         C           -2.593643082022    -1.073480093742     0.405613297598    12.000000000000
         C           -3.231189082022     0.090963906258    -0.019245702402    12.000000000000
         H            3.963134917978     0.558964906258     0.101302297598     1.007825032230
         H            1.023464917978     2.682747906258    -0.416085702402     1.007825032230
         H            0.764719917978     2.264368906258     1.275392297598     1.007825032230
         H            2.396703917978     2.668570906258     0.715402297598     1.007825032230
         H            3.366426917978    -2.083162093742    -0.407863702402     1.007825032230
         H           -2.820208082022     2.085561906258    -0.771322702402     1.007825032230
         H           -3.158163082022    -1.936074093742     0.754517297598     1.007825032230
         H           -4.312403082022     0.179895906258    -0.022803702402     1.007825032230

  Basis Set: AUG-CC-PVTZ
    Blend: AUG-CC-PVTZ
  Basis Set: (AUG-CC-PVTZ AUX)
    Blend: AUG-CC-PVTZ-JKFIT
	 Reference Energy          =    -525.5364072655069094 [Eh]
	 Singles Energy            =      -0.0000000000000000 [Eh]
	 Same-Spin Energy          =      -0.5765429589755582 [Eh]
	 Opposite-Spin Energy      =      -1.7365427123766701 [Eh]
	 Correlation Energy        =      -2.3130856713522281 [Eh]
	 Total Energy              =    -527.8494929368591784 [Eh]

	 ================> DF-SCS-MP2 Energies <==================
	-----------------------------------------------------------
	 SCS Same-Spin Scale       =       0.3333333333333333 [-]
	 SCS Opposite-Spin Scale   =       1.2000000000000000 [-]
	 SCS Same-Spin Energy      =      -0.1921809863251860 [Eh]
	 SCS Opposite-Spin Energy  =      -2.0838512548520041 [Eh]
	 SCS Correlation Energy    =      -2.2760322411771901 [Eh]
	 SCS Total Energy          =    -527.8124395066840862 [Eh]
	-----------------------------------------------------------

  Dipole Moment: [D]
     X:    -2.8890      Y:     2.5054      Z:     0.4275     Total:     3.8479

*** Psi4 exiting successfully. Buy a developer a beer!
