                               Psi4 1.3.2 release

  ==> Input File <==

--------------------------------------------------------------------------
#psi4
#
memory 32 gb

molecule  {
0 1
  N        0.8160970    -0.2990240    -0.0443680
  N        1.3585440    -1.5263750    -0.2734470
  N       -1.0817850     0.9875590    -0.4601130
  N       -1.2686320    -1.2431920     0.4227390
  C        1.7832805     0.7365746     0.1347488
  C        2.9786120     0.0532150     0.0016160
  C       -0.5903530    -0.1795160    -0.0248380
  C        1.4539390     2.1247050     0.4316710
  C        2.6793880    -1.2992810    -0.2463060
  C       -2.4210880     1.0928180    -0.4382200
  C       -2.6039190    -1.1175230     0.3972460
  C       -3.2414650     0.0469210    -0.0276130
  H        3.9528590     0.5149220     0.0929350
  H        1.0131890     2.6387050    -0.4244530
  H        0.7544440     2.2203260     1.2670250
  H        2.3864280     2.6245280     0.7070350
  H        3.3561510    -2.1272050    -0.4162310
  H       -2.8304840     2.0415190    -0.7796900
  H       -3.1684390    -1.9801170     0.7461500
  H       -4.3226790     0.1358530    -0.0311710
units angstrom
no_reorient  #important for SAPT in psi4, default
symmetry c1  #important for SAPT in psi4, default
}

set PROPERTIES_ORIGIN ["COM"]
properties('MP2/aug-cc-pvtz', properties = ['dipole'])
--------------------------------------------------------------------------

    Molecular point group: c1
  Charge       = 0
  Multiplicity = 1
  Basis Set: AUG-CC-PVTZ
    Blend: AUG-CC-PVTZ
  Basis Set: (AUG-CC-PVTZ AUX)
    Blend: AUG-CC-PVTZ-JKFIT

    Orbital Energies [Eh]
    ---------------------

    Doubly Occupied:

       1A    -15.639658     2A    -15.585959     3A    -15.580440
       4A    -15.576568     5A    -11.365053     6A    -11.310179
       7A    -11.308086     8A    -11.289749     9A    -11.255162
      10A    -11.250913    11A    -11.233895    12A    -11.220900
      13A     -1.379146    14A     -1.309665    15A     -1.204229
      16A     -1.126554    17A     -1.087047    18A     -1.043387
      19A     -0.963876    20A     -0.907493    21A     -0.892078
      22A     -0.798882    23A     -0.789087    24A     -0.712615
      25A     -0.707559    26A     -0.682991    27A     -0.635260
      28A     -0.631848    29A     -0.606706    30A     -0.588486
      31A     -0.587409    32A     -0.576141    33A     -0.564947
      34A     -0.551392    35A     -0.542938    36A     -0.489290
      37A     -0.455515    38A     -0.429264    39A     -0.418893
      40A     -0.406851    41A     -0.336839    42A     -0.330945

  @DF-RHF Final Energy:  -525.53843778079170

   => Energetics <=

    Nuclear Repulsion Energy =            657.5196768371032476
    One-Electron Energy =               -2017.3684321738278413
    Two-Electron Energy =                 834.3103175559327838
    Total Energy =                       -525.5384377807916962
  Basis Set: (AUG-CC-PVTZ AUX)
    Blend: AUG-CC-PVTZ-RI
    Molecular point group: c1

    Geometry (in Angstrom), charge = 0, multiplicity = 1:

       Center              X                  Y                   Z               Mass
    ------------   -----------------  -----------------  -----------------  -----------------
         N            0.821408696739    -0.264478517981    -0.037724917794    14.003074004430
         N            1.363855696739    -1.491829517981    -0.266803917794    14.003074004430
         N           -1.076473303261     1.022104482019    -0.453469917794    14.003074004430
         N           -1.263320303261    -1.208646517981     0.429382082206    14.003074004430
         C            1.788592196739     0.771120082019     0.141391882206    12.000000000000
         C            2.983923696739     0.087760482019     0.008259082206    12.000000000000
         C           -0.585041303261    -0.144970517981    -0.018194917794    12.000000000000
         C            1.459250696739     2.159250482019     0.438314082206    12.000000000000
         C            2.684699696739    -1.264735517981    -0.239662917794    12.000000000000
         C           -2.415776303261     1.127363482019    -0.431576917794    12.000000000000
         C           -2.598607303261    -1.082977517981     0.403889082206    12.000000000000
         C           -3.236153303261     0.081466482019    -0.020969917794    12.000000000000
         H            3.958170696739     0.549467482019     0.099578082206     1.007825032230
         H            1.018500696739     2.673250482019    -0.417809917794     1.007825032230
         H            0.759755696739     2.254871482019     1.273668082206     1.007825032230
         H            2.391739696739     2.659073482019     0.713678082206     1.007825032230
         H            3.361462696739    -2.092659517981    -0.409587917794     1.007825032230
         H           -2.825172303261     2.076064482019    -0.773046917794     1.007825032230
         H           -3.163127303261    -1.945571517981     0.752793082206     1.007825032230
         H           -4.317367303261     0.170398482019    -0.024527917794     1.007825032230

  Basis Set: AUG-CC-PVTZ
    Blend: AUG-CC-PVTZ
  Basis Set: (AUG-CC-PVTZ AUX)
    Blend: AUG-CC-PVTZ-JKFIT
	 Reference Energy          =    -525.5384377807916962 [Eh]
	 Singles Energy            =      -0.0000000000000000 [Eh]
	 Same-Spin Energy          =      -0.5782763353011822 [Eh]
	 Opposite-Spin Energy      =      -1.7400748695250297 [Eh]
	 Correlation Energy        =      -2.3183512048262118 [Eh]
	 Total Energy              =    -527.8567889856178681 [Eh]

	 ================> DF-SCS-MP2 Energies <==================
	-----------------------------------------------------------
	 SCS Same-Spin Scale       =       0.3333333333333333 [-]
	 SCS Opposite-Spin Scale   =       1.2000000000000000 [-]
	 SCS Same-Spin Energy      =      -0.1927587784337274 [Eh]
	 SCS Opposite-Spin Energy  =      -2.0880898434300357 [Eh]
	 SCS Correlation Energy    =      -2.2808486218637629 [Eh]
	 SCS Total Energy          =    -527.8192864026555071 [Eh]
	-----------------------------------------------------------

  Dipole Moment: [D]
     X:    -2.4262      Y:     2.5936      Z:     0.4497     Total:     3.5799

*** Psi4 exiting successfully. Buy a developer a beer!
