                               Psi4 1.3.2 release

  ==> Input File <==

--------------------------------------------------------------------------
#psi4
#
memory 32 gb

molecule  {
0 1
  N        0.8176996    -0.2761503    -0.0533815
  N        1.3585440    -1.5263750    -0.2734470
  N       -1.0817850     0.9875590    -0.4601130
  N       -1.2686320    -1.2431920     0.4227390
  C        1.7597130     0.6951090     0.1272320
  C        2.9786120     0.0532150     0.0016160
  C       -0.5903530    -0.1795160    -0.0248380
  C        1.4539390     2.1247050     0.4316710
  C        2.6793880    -1.2992810    -0.2463060
  C       -2.4210880     1.0928180    -0.4382200
  C       -2.6039190    -1.1175230     0.3972460
  C       -3.2414650     0.0469210    -0.0276130
  H        3.9528590     0.5149220     0.0929350
  H        1.0131890     2.6387050    -0.4244530
  H        0.7544440     2.2203260     1.2670250
  H        2.3864280     2.6245280     0.7070350
  H        3.3561510    -2.1272050    -0.4162310
  H       -2.8304840     2.0415190    -0.7796900
  H       -3.1684390    -1.9801170     0.7461500
  H       -4.3226790     0.1358530    -0.0311710
units angstrom
no_reorient  #important for SAPT in psi4, default
symmetry c1  #important for SAPT in psi4, default
}

set PROPERTIES_ORIGIN ["COM"]
properties('MP2/aug-cc-pvtz', properties = ['dipole'])
--------------------------------------------------------------------------

    Molecular point group: c1
  Charge       = 0
  Multiplicity = 1
  Basis Set: AUG-CC-PVTZ
    Blend: AUG-CC-PVTZ
  Basis Set: (AUG-CC-PVTZ AUX)
    Blend: AUG-CC-PVTZ-JKFIT

    Orbital Energies [Eh]
    ---------------------

    Doubly Occupied:

       1A    -15.641128     2A    -15.581885     3A    -15.581002
       4A    -15.579113     5A    -11.367670     6A    -11.311213
       7A    -11.309681     8A    -11.287018     9A    -11.255768
      10A    -11.252671    11A    -11.234625    12A    -11.216225
      13A     -1.383479    14A     -1.311484    15A     -1.206081
      16A     -1.130267    17A     -1.085142    18A     -1.044299
      19A     -0.958791    20A     -0.909013    21A     -0.897293
      22A     -0.799429    23A     -0.795847    24A     -0.713365
      25A     -0.706692    26A     -0.682319    27A     -0.638310
      28A     -0.633007    29A     -0.607163    30A     -0.589997
      31A     -0.586063    32A     -0.574684    33A     -0.562950
      34A     -0.551442    35A     -0.536185    36A     -0.491978
      37A     -0.454961    38A     -0.430433    39A     -0.420149
      40A     -0.408192    41A     -0.340473    42A     -0.330993

  @DF-RHF Final Energy:  -525.54309015219633

   => Energetics <=

    Nuclear Repulsion Energy =            658.2870798099402236
    One-Electron Energy =               -2018.8633826707159642
    Two-Electron Energy =                 835.0332127085794127
    Total Energy =                       -525.5430901521963278
  Basis Set: (AUG-CC-PVTZ AUX)
    Blend: AUG-CC-PVTZ-RI
    Molecular point group: c1

    Geometry (in Angstrom), charge = 0, multiplicity = 1:

       Center              X                  Y                   Z               Mass
    ------------   -----------------  -----------------  -----------------  -----------------
         N            0.824637839561    -0.240497304622    -0.045386436236    14.003074004430
         N            1.365482239561    -1.490722004622    -0.265451936236    14.003074004430
         N           -1.074846760439     1.023211995378    -0.452117936236    14.003074004430
         N           -1.261693760439    -1.207539004622     0.430734063764    14.003074004430
         C            1.766651239561     0.730761995378     0.135227063764    12.000000000000
         C            2.985550239561     0.088867995378     0.009611063764    12.000000000000
         C           -0.583414760439    -0.143863004622    -0.016842936236    12.000000000000
         C            1.460877239561     2.160357995378     0.439666063764    12.000000000000
         C            2.686326239561    -1.263628004622    -0.238310936236    12.000000000000
         C           -2.414149760439     1.128470995378    -0.430224936236    12.000000000000
         C           -2.596980760439    -1.081870004622     0.405241063764    12.000000000000
         C           -3.234526760439     0.082573995378    -0.019617936236    12.000000000000
         H            3.959797239561     0.550574995378     0.100930063764     1.007825032230
         H            1.020127239561     2.674357995378    -0.416457936236     1.007825032230
         H            0.761382239561     2.255978995378     1.275020063764     1.007825032230
         H            2.393366239561     2.660180995378     0.715030063764     1.007825032230
         H            3.363089239561    -2.091552004622    -0.408235936236     1.007825032230
         H           -2.823545760439     2.077171995378    -0.771694936236     1.007825032230
         H           -3.161500760439    -1.944464004622     0.754145063764     1.007825032230
         H           -4.315740760439     0.171505995378    -0.023175936236     1.007825032230

  Basis Set: AUG-CC-PVTZ
    Blend: AUG-CC-PVTZ
  Basis Set: (AUG-CC-PVTZ AUX)
    Blend: AUG-CC-PVTZ-JKFIT
	 Reference Energy          =    -525.5430901521963278 [Eh]
	 Singles Energy            =      -0.0000000000000000 [Eh]
	 Same-Spin Energy          =      -0.5774519555134500 [Eh]
	 Opposite-Spin Energy      =      -1.7386851682475077 [Eh]
	 Correlation Energy        =      -2.3161371237609578 [Eh]
	 Total Energy              =    -527.8592272759573234 [Eh]

	 ================> DF-SCS-MP2 Energies <==================
	-----------------------------------------------------------
	 SCS Same-Spin Scale       =       0.3333333333333333 [-]
	 SCS Opposite-Spin Scale   =       1.2000000000000000 [-]
	 SCS Same-Spin Energy      =      -0.1924839851711500 [Eh]
	 SCS Opposite-Spin Energy  =      -2.0864222018970091 [Eh]
	 SCS Correlation Energy    =      -2.2789061870681593 [Eh]
	 SCS Total Energy          =    -527.8219963392645013 [Eh]
	-----------------------------------------------------------

  Dipole Moment: [D]
     X:    -2.5789      Y:     2.5402      Z:     0.4421     Total:     3.6467

*** Psi4 exiting successfully. Buy a developer a beer!
