                               Psi4 1.3.2 release

  ==> Input File <==

--------------------------------------------------------------------------
#psi4
#
memory 32 gb

molecule  {
0 1
  N        0.8160970    -0.2990240    -0.0443680
  N        1.3585440    -1.5263750    -0.2734470
  N       -1.0817850     0.9875590    -0.4601130
  N       -1.2686320    -1.2431920     0.4227390
  C        1.7597130     0.6951090     0.1272320
  C        2.9898389     0.0740866     0.0062214
  C       -0.5903530    -0.1795160    -0.0248380
  C        1.4539390     2.1247050     0.4316710
  C        2.6793880    -1.2992810    -0.2463060
  C       -2.4210880     1.0928180    -0.4382200
  C       -2.6039190    -1.1175230     0.3972460
  C       -3.2414650     0.0469210    -0.0276130
  H        3.9528590     0.5149220     0.0929350
  H        1.0131890     2.6387050    -0.4244530
  H        0.7544440     2.2203260     1.2670250
  H        2.3864280     2.6245280     0.7070350
  H        3.3561510    -2.1272050    -0.4162310
  H       -2.8304840     2.0415190    -0.7796900
  H       -3.1684390    -1.9801170     0.7461500
  H       -4.3226790     0.1358530    -0.0311710
units angstrom
no_reorient  #important for SAPT in psi4, default
symmetry c1  #important for SAPT in psi4, default
}

set PROPERTIES_ORIGIN ["COM"]
properties('MP2/aug-cc-pvtz', properties = ['dipole'])
--------------------------------------------------------------------------

    Molecular point group: c1
  Charge       = 0
  Multiplicity = 1
  Basis Set: AUG-CC-PVTZ
    Blend: AUG-CC-PVTZ
  Basis Set: (AUG-CC-PVTZ AUX)
    Blend: AUG-CC-PVTZ-JKFIT

    Orbital Energies [Eh]
    ---------------------

    Doubly Occupied:

       1A    -15.641697     2A    -15.582796     3A    -15.582231
       4A    -15.578565     5A    -11.367456     6A    -11.311437
       7A    -11.309442     8A    -11.287392     9A    -11.257349
      10A    -11.252532    11A    -11.233989    12A    -11.218194
      13A     -1.385829    14A     -1.312194    15A     -1.205943
      16A     -1.128508    17A     -1.084442    18A     -1.044038
      19A     -0.957642    20A     -0.909071    21A     -0.895875
      22A     -0.800449    23A     -0.796440    24A     -0.712818
      25A     -0.706738    26A     -0.681670    27A     -0.638128
      28A     -0.634162    29A     -0.609019    30A     -0.591240
      31A     -0.586892    32A     -0.575495    33A     -0.564118
      34A     -0.552197    35A     -0.533353    36A     -0.491655
      37A     -0.455161    38A     -0.430465    39A     -0.420168
      40A     -0.406732    41A     -0.337003    42A     -0.333522

  @DF-RHF Final Energy:  -525.54326432002358

   => Energetics <=

    Nuclear Repulsion Energy =            657.9075969541954692
    One-Electron Energy =               -2018.0936264610138551
    Two-Electron Energy =                 834.6427651867948043
    Total Energy =                       -525.5432643200235816
  Basis Set: (AUG-CC-PVTZ AUX)
    Blend: AUG-CC-PVTZ-RI
    Molecular point group: c1

    Geometry (in Angstrom), charge = 0, multiplicity = 1:

       Center              X                  Y                   Z               Mass
    ------------   -----------------  -----------------  -----------------  -----------------
         N            0.822333808692    -0.262934690650    -0.037506664958    14.003074004430
         N            1.364780808692    -1.490285690650    -0.266585664958    14.003074004430
         N           -1.075548191308     1.023648309350    -0.453251664958    14.003074004430
         N           -1.262395191308    -1.207102690650     0.429600335042    14.003074004430
         C            1.765949808692     0.731198309350     0.134093335042    12.000000000000
         C            2.996075708692     0.110175909350     0.013082735042    12.000000000000
         C           -0.584116191308    -0.143426690650    -0.017976664958    12.000000000000
         C            1.460175808692     2.160794309350     0.438532335042    12.000000000000
         C            2.685624808692    -1.263191690650    -0.239444664958    12.000000000000
         C           -2.414851191308     1.128907309350    -0.431358664958    12.000000000000
         C           -2.597682191308    -1.081433690650     0.404107335042    12.000000000000
         C           -3.235228191308     0.083010309350    -0.020751664958    12.000000000000
         H            3.959095808692     0.551011309350     0.099796335042     1.007825032230
         H            1.019425808692     2.674794309350    -0.417591664958     1.007825032230
         H            0.760680808692     2.256415309350     1.273886335042     1.007825032230
         H            2.392664808692     2.660617309350     0.713896335042     1.007825032230
         H            3.362387808692    -2.091115690650    -0.409369664958     1.007825032230
         H           -2.824247191308     2.077608309350    -0.772828664958     1.007825032230
         H           -3.162202191308    -1.944027690650     0.753011335042     1.007825032230
         H           -4.316442191308     0.171942309350    -0.024309664958     1.007825032230

  Basis Set: AUG-CC-PVTZ
    Blend: AUG-CC-PVTZ
  Basis Set: (AUG-CC-PVTZ AUX)
    Blend: AUG-CC-PVTZ-JKFIT
	 Reference Energy          =    -525.5432643200235816 [Eh]
	 Singles Energy            =      -0.0000000000000000 [Eh]
	 Same-Spin Energy          =      -0.5772376183988670 [Eh]
	 Opposite-Spin Energy      =      -1.7384672778494306 [Eh]
	 Correlation Energy        =      -2.3157048962482976 [Eh]
	 Total Energy              =    -527.8589692162719302 [Eh]

	 ================> DF-SCS-MP2 Energies <==================
	-----------------------------------------------------------
	 SCS Same-Spin Scale       =       0.3333333333333333 [-]
	 SCS Opposite-Spin Scale   =       1.2000000000000000 [-]
	 SCS Same-Spin Energy      =      -0.1924125394662890 [Eh]
	 SCS Opposite-Spin Energy  =      -2.0861607334193164 [Eh]
	 SCS Correlation Energy    =      -2.2785732728856054 [Eh]
	 SCS Total Energy          =    -527.8218375929092190 [Eh]
	-----------------------------------------------------------

  Dipole Moment: [D]
     X:    -2.5588      Y:     2.5406      Z:     0.4354     Total:     3.6321

*** Psi4 exiting successfully. Buy a developer a beer!
