                               Psi4 1.4a3.dev225

  ==> Input File <==

--------------------------------------------------------------------------
#psi4
#
memory 32 gb

molecule  {
0 1
  N        0.8160970    -0.2990240    -0.0443680
  N        1.3585440    -1.5263750    -0.2734470
  N       -1.0817850     0.9875590    -0.4601130
  N       -1.2686320    -1.2431920     0.4227390
  C        1.7597130     0.6951090     0.1272320
  C        2.9786120     0.0532150     0.0016160
  C       -0.5802187    -0.1636234    -0.0315253
  C        1.4539390     2.1247050     0.4316710
  C        2.6793880    -1.2992810    -0.2463060
  C       -2.4210880     1.0928180    -0.4382200
  C       -2.6039190    -1.1175230     0.3972460
  C       -3.2414650     0.0469210    -0.0276130
  H        3.9528590     0.5149220     0.0929350
  H        1.0131890     2.6387050    -0.4244530
  H        0.7544440     2.2203260     1.2670250
  H        2.3864280     2.6245280     0.7070350
  H        3.3561510    -2.1272050    -0.4162310
  H       -2.8304840     2.0415190    -0.7796900
  H       -3.1684390    -1.9801170     0.7461500
  H       -4.3226790     0.1358530    -0.0311710
units angstrom
no_reorient  #important for SAPT in psi4, default
symmetry c1  #important for SAPT in psi4, default
}

set PROPERTIES_ORIGIN ["COM"]
properties('MP2/aug-cc-pvtz', properties = ['dipole'])
--------------------------------------------------------------------------

    Molecular point group: c1
  Charge       = 0
  Multiplicity = 1
  Basis Set: AUG-CC-PVTZ
    Blend: AUG-CC-PVTZ
  Basis Set: (AUG-CC-PVTZ AUX)
    Blend: AUG-CC-PVTZ-JKFIT

    Orbital Energies [Eh]
    ---------------------

    Doubly Occupied:

       1A    -15.643020     2A    -15.582505     3A    -15.581127
       4A    -15.578717     5A    -11.367351     6A    -11.311062
       7A    -11.308068     8A    -11.287440     9A    -11.255656
      10A    -11.251990    11A    -11.235322    12A    -11.218126
      13A     -1.387781    14A     -1.311278    15A     -1.203540
      16A     -1.131345    17A     -1.084754    18A     -1.045145
      19A     -0.959625    20A     -0.908135    21A     -0.896502
      22A     -0.801692    23A     -0.795523    24A     -0.713553
      25A     -0.706045    26A     -0.682847    27A     -0.638968
      28A     -0.633273    29A     -0.607007    30A     -0.590802
      31A     -0.586588    32A     -0.574862    33A     -0.564687
      34A     -0.553054    35A     -0.536585    36A     -0.491127
      37A     -0.455754    38A     -0.429665    39A     -0.418178
      40A     -0.407815    41A     -0.337747    42A     -0.333180

  @DF-RHF Final Energy:  -525.54303035204100

   => Energetics <=

    Nuclear Repulsion Energy =            658.3148658145998979
    One-Electron Energy =               -2018.9009090239599118
    Two-Electron Energy =                 835.0430128573190132
    Total Energy =                       -525.5430303520410007
  Basis Set: (AUG-CC-PVTZ AUX)
    Blend: AUG-CC-PVTZ-RI
    Molecular point group: c1

    Geometry (in Angstrom), charge = 0, multiplicity = 1:

       Center              X                  Y                   Z               Mass
    ------------   -----------------  -----------------  -----------------  -----------------
         N            0.822415715352    -0.262561440369    -0.036660108733    14.003074004430
         N            1.364862715352    -1.489912440369    -0.265739108733    14.003074004430
         N           -1.075466284648     1.024021559631    -0.452405108733    14.003074004430
         N           -1.262313284648    -1.206729440369     0.430446891267    14.003074004430
         C            1.766031715352     0.731571559631     0.134939891267    12.000000000000
         C            2.984930715352     0.089677559631     0.009323891267    12.000000000000
         C           -0.573899984648    -0.127160840369    -0.023817408733    12.000000000000
         C            1.460257715352     2.161167559631     0.439378891267    12.000000000000
         C            2.685706715352    -1.262818440369    -0.238598108733    12.000000000000
         C           -2.414769284648     1.129280559631    -0.430512108733    12.000000000000
         C           -2.597600284648    -1.081060440369     0.404953891267    12.000000000000
         C           -3.235146284648     0.083383559631    -0.019905108733    12.000000000000
         H            3.959177715352     0.551384559631     0.100642891267     1.007825032230
         H            1.019507715352     2.675167559631    -0.416745108733     1.007825032230
         H            0.760762715352     2.256788559631     1.274732891267     1.007825032230
         H            2.392746715352     2.660990559631     0.714742891267     1.007825032230
         H            3.362469715352    -2.090742440369    -0.408523108733     1.007825032230
         H           -2.824165284648     2.077981559631    -0.771982108733     1.007825032230
         H           -3.162120284648    -1.943654440369     0.753857891267     1.007825032230
         H           -4.316360284648     0.172315559631    -0.023463108733     1.007825032230

  Basis Set: AUG-CC-PVTZ
    Blend: AUG-CC-PVTZ
  Basis Set: (AUG-CC-PVTZ AUX)
    Blend: AUG-CC-PVTZ-JKFIT
	 Reference Energy          =    -525.5430303520410007 [Eh]
	 Singles Energy            =      -0.0000000000000000 [Eh]
	 Same-Spin Energy          =      -0.5775717752530968 [Eh]
	 Opposite-Spin Energy      =      -1.7387254638915595 [Eh]
	 Correlation Energy        =      -2.3162972391446561 [Eh]
	 Total Energy              =    -527.8593275911856608 [Eh]

	 ================> DF-SCS-MP2 Energies <==================
	-----------------------------------------------------------
	 SCS Same-Spin Scale       =       0.3333333333333333 [-]
	 SCS Opposite-Spin Scale   =       1.2000000000000000 [-]
	 SCS Same-Spin Energy      =      -0.1925239250843656 [Eh]
	 SCS Opposite-Spin Energy  =      -2.0864705566698714 [Eh]
	 SCS Correlation Energy    =      -2.2789944817542369 [Eh]
	 SCS Total Energy          =    -527.8220248337952398 [Eh]
	-----------------------------------------------------------

  Dipole Moment: [D]
     X:    -2.4792      Y:     2.5674      Z:     0.4281     Total:     3.5946

*** Psi4 exiting successfully. Buy a developer a beer!
