                               Psi4 1.3.2 release

  ==> Input File <==

--------------------------------------------------------------------------
#psi4
#
memory 32 gb

molecule  {
0 1
  N        0.8160970    -0.2990240    -0.0443680
  N        1.3585440    -1.5263750    -0.2734470
  N       -1.0817850     0.9875590    -0.4601130
  N       -1.2686320    -1.2431920     0.4227390
  C        1.7597130     0.6951090     0.1272320
  C        3.1548425    -0.0395911    -0.0165458
  C       -0.5903530    -0.1795160    -0.0248380
  C        1.4539390     2.1247050     0.4316710
  C        2.6793880    -1.2992810    -0.2463060
  C       -2.4210880     1.0928180    -0.4382200
  C       -2.6039190    -1.1175230     0.3972460
  C       -3.2414650     0.0469210    -0.0276130
  H        3.9528590     0.5149220     0.0929350
  H        1.0131890     2.6387050    -0.4244530
  H        0.7544440     2.2203260     1.2670250
  H        2.3864280     2.6245280     0.7070350
  H        3.3561510    -2.1272050    -0.4162310
  H       -2.8304840     2.0415190    -0.7796900
  H       -3.1684390    -1.9801170     0.7461500
  H       -4.3226790     0.1358530    -0.0311710
units angstrom
no_reorient  #important for SAPT in psi4, default
symmetry c1  #important for SAPT in psi4, default
}

set PROPERTIES_ORIGIN ["COM"]
properties('MP2/aug-cc-pvtz', properties = ['dipole'])
--------------------------------------------------------------------------

    Molecular point group: c1
  Charge       = 0
  Multiplicity = 1
  Basis Set: AUG-CC-PVTZ
    Blend: AUG-CC-PVTZ
  Basis Set: (AUG-CC-PVTZ AUX)
    Blend: AUG-CC-PVTZ-JKFIT

    Orbital Energies [Eh]
    ---------------------

    Doubly Occupied:

       1A    -15.655230     2A    -15.587234     3A    -15.583195
       4A    -15.568570     5A    -11.371693     6A    -11.314661
       7A    -11.312535     8A    -11.309772     9A    -11.256882
      10A    -11.252415    11A    -11.238574    12A    -11.223710
      13A     -1.384870    14A     -1.313173    15A     -1.209862
      16A     -1.131264    17A     -1.072672    18A     -1.044378
      19A     -0.960466    20A     -0.912355    21A     -0.902625
      22A     -0.808755    23A     -0.794567    24A     -0.717774
      25A     -0.706086    26A     -0.687136    27A     -0.641939
      28A     -0.636600    29A     -0.618497    30A     -0.598412
      31A     -0.587054    32A     -0.579059    33A     -0.572891
      34A     -0.553961    35A     -0.502519    36A     -0.481340
      37A     -0.454703    38A     -0.433435    39A     -0.423450
      40A     -0.410857    41A     -0.347221    42A     -0.307882

  @DF-RHF Final Energy:  -525.49578015094755

   => Energetics <=

    Nuclear Repulsion Energy =            654.7794569077710776
    One-Electron Energy =               -2011.6099288285772673
    Two-Electron Energy =                 831.3346917698587504
    Total Energy =                       -525.4957801509475530
  Basis Set: (AUG-CC-PVTZ AUX)
    Blend: AUG-CC-PVTZ-RI
    Molecular point group: c1

    Geometry (in Angstrom), charge = 0, multiplicity = 1:

       Center              X                  Y                   Z               Mass
    ------------   -----------------  -----------------  -----------------  -----------------
         N            0.809964328867    -0.254412852237    -0.035799923887    14.003074004430
         N            1.352411328867    -1.481763852237    -0.264878923887    14.003074004430
         N           -1.087917671133     1.032170147763    -0.451544923887    14.003074004430
         N           -1.274764671133    -1.198580852237     0.431307076113    14.003074004430
         C            1.753580328867     0.739720147763     0.135800076113    12.000000000000
         C            3.148709828867     0.005020047763    -0.007977723887    12.000000000000
         C           -0.596485671133    -0.134904852237    -0.016269923887    12.000000000000
         C            1.447806328867     2.169316147763     0.440239076113    12.000000000000
         C            2.673255328867    -1.254669852237    -0.237737923887    12.000000000000
         C           -2.427220671133     1.137429147763    -0.429651923887    12.000000000000
         C           -2.610051671133    -1.072911852237     0.405814076113    12.000000000000
         C           -3.247597671133     0.091532147763    -0.019044923887    12.000000000000
         H            3.946726328867     0.559533147763     0.101503076113     1.007825032230
         H            1.007056328867     2.683316147763    -0.415884923887     1.007825032230
         H            0.748311328867     2.264937147763     1.275593076113     1.007825032230
         H            2.380295328867     2.669139147763     0.715603076113     1.007825032230
         H            3.350018328867    -2.082593852237    -0.407662923887     1.007825032230
         H           -2.836616671133     2.086130147763    -0.771121923887     1.007825032230
         H           -3.174571671133    -1.935505852237     0.754718076113     1.007825032230
         H           -4.328811671133     0.180464147763    -0.022602923887     1.007825032230

  Basis Set: AUG-CC-PVTZ
    Blend: AUG-CC-PVTZ
  Basis Set: (AUG-CC-PVTZ AUX)
    Blend: AUG-CC-PVTZ-JKFIT
	 Reference Energy          =    -525.4957801509475530 [Eh]
	 Singles Energy            =      -0.0000000000000000 [Eh]
	 Same-Spin Energy          =      -0.5800173537218026 [Eh]
	 Opposite-Spin Energy      =      -1.7432686929715535 [Eh]
	 Correlation Energy        =      -2.3232860466933563 [Eh]
	 Total Energy              =    -527.8190661976409501 [Eh]

	 ================> DF-SCS-MP2 Energies <==================
	-----------------------------------------------------------
	 SCS Same-Spin Scale       =       0.3333333333333333 [-]
	 SCS Opposite-Spin Scale   =       1.2000000000000000 [-]
	 SCS Same-Spin Energy      =      -0.1933391179072675 [Eh]
	 SCS Opposite-Spin Energy  =      -2.0919224315658642 [Eh]
	 SCS Correlation Energy    =      -2.2852615494731316 [Eh]
	 SCS Total Energy          =    -527.7810417004207011 [Eh]
	-----------------------------------------------------------

  Dipole Moment: [D]
     X:    -3.0135      Y:     2.6435      Z:     0.4611     Total:     4.0351

*** Psi4 exiting successfully. Buy a developer a beer!
