                               Psi4 1.3.2 release

  ==> Input File <==

--------------------------------------------------------------------------
#psi4
#
memory 32 gb

molecule  {
0 1
  N        0.8160970    -0.2990240    -0.0443680
  N        1.3585440    -1.5263750    -0.2734470
  N       -1.0817850     0.9875590    -0.4601130
  N       -1.2686320    -1.2431920     0.4227390
  C        1.7597130     0.6951090     0.1272320
  C        2.9786120     0.0532150     0.0016160
  C       -0.5903530    -0.1795160    -0.0248380
  C        1.4539390     2.1247050     0.4316710
  C        2.6793880    -1.2992810    -0.2463060
  C       -2.4210880     1.0928180    -0.4382200
  C       -2.6039190    -1.1175230     0.3972460
  C       -3.2414650     0.0469210    -0.0276130
  H        3.7727722     0.4295768     0.0760549
  H        1.0131890     2.6387050    -0.4244530
  H        0.7544440     2.2203260     1.2670250
  H        2.3864280     2.6245280     0.7070350
  H        3.3561510    -2.1272050    -0.4162310
  H       -2.8304840     2.0415190    -0.7796900
  H       -3.1684390    -1.9801170     0.7461500
  H       -4.3226790     0.1358530    -0.0311710
units angstrom
no_reorient  #important for SAPT in psi4, default
symmetry c1  #important for SAPT in psi4, default
}

set PROPERTIES_ORIGIN ["COM"]
properties('MP2/aug-cc-pvtz', properties = ['dipole'])
--------------------------------------------------------------------------

    Molecular point group: c1
  Charge       = 0
  Multiplicity = 1
  Basis Set: AUG-CC-PVTZ
    Blend: AUG-CC-PVTZ
  Basis Set: (AUG-CC-PVTZ AUX)
    Blend: AUG-CC-PVTZ-JKFIT

    Orbital Energies [Eh]
    ---------------------

    Doubly Occupied:

       1A    -15.641281     2A    -15.582186     3A    -15.580390
       4A    -15.578345     5A    -11.366989     6A    -11.311324
       7A    -11.309247     8A    -11.285898     9A    -11.253254
      10A    -11.252471    11A    -11.234989    12A    -11.193988
      13A     -1.385488    14A     -1.312105    15A     -1.205775
      16A     -1.129058    17A     -1.086679    18A     -1.047763
      19A     -0.962876    20A     -0.909487    21A     -0.899412
      22A     -0.817005    23A     -0.799179    24A     -0.714388
      25A     -0.707822    26A     -0.687985    27A     -0.647368
      28A     -0.637348    29A     -0.616129    30A     -0.595830
      31A     -0.587024    32A     -0.576133    33A     -0.567614
      34A     -0.552521    35A     -0.535387    36A     -0.491502
      37A     -0.455181    38A     -0.430286    39A     -0.420021
      40A     -0.407306    41A     -0.337592    42A     -0.331906

  @DF-RHF Final Energy:  -525.50762124605558

   => Energetics <=

    Nuclear Repulsion Energy =            659.4993493205768118
    One-Electron Energy =               -2021.1248780729888495
    Two-Electron Energy =                 836.1179075063564596
    Total Energy =                       -525.5076212460555780
  Basis Set: (AUG-CC-PVTZ AUX)
    Blend: AUG-CC-PVTZ-RI
    Molecular point group: c1

    Geometry (in Angstrom), charge = 0, multiplicity = 1:

       Center              X                  Y                   Z               Mass
    ------------   -----------------  -----------------  -----------------  -----------------
         N            0.824309251390    -0.260832723153    -0.037055145145    14.003074004430
         N            1.366756251390    -1.488183723153    -0.266134145145    14.003074004430
         N           -1.073572748610     1.025750276847    -0.452800145145    14.003074004430
         N           -1.260419748610    -1.205000723153     0.430051854855    14.003074004430
         C            1.767925251390     0.733300276847     0.134544854855    12.000000000000
         C            2.986824251390     0.091406276847     0.008928854855    12.000000000000
         C           -0.582140748610    -0.141324723153    -0.017525145145    12.000000000000
         C            1.462151251390     2.162896276847     0.438983854855    12.000000000000
         C            2.687600251390    -1.261089723153    -0.238993145145    12.000000000000
         C           -2.412875748610     1.131009276847    -0.430907145145    12.000000000000
         C           -2.595706748610    -1.079331723153     0.404558854855    12.000000000000
         C           -3.233252748610     0.085112276847    -0.020300145145    12.000000000000
         H            3.780984451390     0.467768076847     0.083367754855     1.007825032230
         H            1.021401251390     2.676896276847    -0.417140145145     1.007825032230
         H            0.762656251390     2.258517276847     1.274337854855     1.007825032230
         H            2.394640251390     2.662719276847     0.714347854855     1.007825032230
         H            3.364363251390    -2.089013723153    -0.408918145145     1.007825032230
         H           -2.822271748610     2.079710276847    -0.772377145145     1.007825032230
         H           -3.160226748610    -1.941925723153     0.753462854855     1.007825032230
         H           -4.314466748610     0.174044276847    -0.023858145145     1.007825032230

  Basis Set: AUG-CC-PVTZ
    Blend: AUG-CC-PVTZ
  Basis Set: (AUG-CC-PVTZ AUX)
    Blend: AUG-CC-PVTZ-JKFIT
	 Reference Energy          =    -525.5076212460555780 [Eh]
	 Singles Energy            =      -0.0000000000000000 [Eh]
	 Same-Spin Energy          =      -0.5773587179307975 [Eh]
	 Opposite-Spin Energy      =      -1.7380930033233843 [Eh]
	 Correlation Energy        =      -2.3154517212541821 [Eh]
	 Total Energy              =    -527.8230729673097130 [Eh]

	 ================> DF-SCS-MP2 Energies <==================
	-----------------------------------------------------------
	 SCS Same-Spin Scale       =       0.3333333333333333 [-]
	 SCS Opposite-Spin Scale   =       1.2000000000000000 [-]
	 SCS Same-Spin Energy      =      -0.1924529059769325 [Eh]
	 SCS Opposite-Spin Energy  =      -2.0857116039880612 [Eh]
	 SCS Correlation Energy    =      -2.2781645099649936 [Eh]
	 SCS Total Energy          =    -527.7857857560205730 [Eh]
	-----------------------------------------------------------

  Dipole Moment: [D]
     X:    -2.5740      Y:     2.5664      Z:     0.4426     Total:     3.6617

*** Psi4 exiting successfully. Buy a developer a beer!
