                               Psi4 1.3.2 release

  ==> Input File <==

--------------------------------------------------------------------------
#psi4
#
memory 32 gb

molecule  {
0 1
  N        0.8160970    -0.2990240    -0.0443680
  N        1.3585440    -1.5263750    -0.2734470
  N       -1.0817850     0.9875590    -0.4601130
  N       -1.2686320    -1.2431920     0.4227390
  C        1.7597130     0.6951090     0.1272320
  C        2.9786120     0.0532150     0.0016160
  C       -0.5903530    -0.1795160    -0.0248380
  C        1.4539390     2.1247050     0.4316710
  C        2.6793880    -1.2992810    -0.2463060
  C       -2.3447302     1.0361617    -0.4184923
  C       -2.6039190    -1.1175230     0.3972460
  C       -3.2414650     0.0469210    -0.0276130
  H        3.9528590     0.5149220     0.0929350
  H        1.0131890     2.6387050    -0.4244530
  H        0.7544440     2.2203260     1.2670250
  H        2.3864280     2.6245280     0.7070350
  H        3.3561510    -2.1272050    -0.4162310
  H       -2.8304840     2.0415190    -0.7796900
  H       -3.1684390    -1.9801170     0.7461500
  H       -4.3226790     0.1358530    -0.0311710
units angstrom
no_reorient  #important for SAPT in psi4, default
symmetry c1  #important for SAPT in psi4, default
}

set PROPERTIES_ORIGIN ["COM"]
properties('MP2/aug-cc-pvtz', properties = ['dipole'])
--------------------------------------------------------------------------

    Molecular point group: c1
  Charge       = 0
  Multiplicity = 1
  Basis Set: AUG-CC-PVTZ
    Blend: AUG-CC-PVTZ
  Basis Set: (AUG-CC-PVTZ AUX)
    Blend: AUG-CC-PVTZ-JKFIT

    Orbital Energies [Eh]
    ---------------------

    Doubly Occupied:

       1A    -15.644111     2A    -15.583019     3A    -15.580647
       4A    -15.577965     5A    -11.370882     6A    -11.308924
       7A    -11.306944     8A    -11.288649     9A    -11.256263
      10A    -11.249970    11A    -11.236741    12A    -11.219142
      13A     -1.390834    14A     -1.328769    15A     -1.221456
      16A     -1.132151    17A     -1.085871    18A     -1.045378
      19A     -0.960882    20A     -0.905251    21A     -0.900682
      22A     -0.798733    23A     -0.798137    24A     -0.717277
      25A     -0.709064    26A     -0.684718    27A     -0.642715
      28A     -0.631070    29A     -0.604324    30A     -0.590536
      31A     -0.583307    32A     -0.569731    33A     -0.565727
      34A     -0.556792    35A     -0.538015    36A     -0.498561
      37A     -0.456391    38A     -0.442447    39A     -0.416936
      40A     -0.407243    41A     -0.338019    42A     -0.334081

  @DF-RHF Final Energy:  -525.53392828134929

   => Energetics <=

    Nuclear Repulsion Energy =            660.4912290681340892
    One-Electron Energy =               -2023.0935997867316019
    Two-Electron Energy =                 837.0684424372482226
    Total Energy =                       -525.5339282813492900
  Basis Set: (AUG-CC-PVTZ AUX)
    Blend: AUG-CC-PVTZ-RI
    Molecular point group: c1

    Geometry (in Angstrom), charge = 0, multiplicity = 1:

       Center              X                  Y                   Z               Mass
    ------------   -----------------  -----------------  -----------------  -----------------
         N            0.817451276714    -0.257122818697    -0.038640306799    14.003074004430
         N            1.359898276714    -1.484473818697    -0.267719306799    14.003074004430
         N           -1.080430723286     1.029460181303    -0.454385306799    14.003074004430
         N           -1.267277723286    -1.201290818697     0.428466693201    14.003074004430
         C            1.761067276714     0.737010181303     0.132959693201    12.000000000000
         C            2.979966276714     0.095116181303     0.007343693201    12.000000000000
         C           -0.588998723286    -0.137614818697    -0.019110306799    12.000000000000
         C            1.455293276714     2.166606181303     0.437398693201    12.000000000000
         C            2.680742276714    -1.257379818697    -0.240578306799    12.000000000000
         C           -2.343375923286     1.078062881303    -0.412764606799    12.000000000000
         C           -2.602564723286    -1.075621818697     0.402973693201    12.000000000000
         C           -3.240110723286     0.088822181303    -0.021885306799    12.000000000000
         H            3.954213276714     0.556823181303     0.098662693201     1.007825032230
         H            1.014543276714     2.680606181303    -0.418725306799     1.007825032230
         H            0.755798276714     2.262227181303     1.272752693201     1.007825032230
         H            2.387782276714     2.666429181303     0.712762693201     1.007825032230
         H            3.357505276714    -2.085303818697    -0.410503306799     1.007825032230
         H           -2.829129723286     2.083420181303    -0.773962306799     1.007825032230
         H           -3.167084723286    -1.938215818697     0.751877693201     1.007825032230
         H           -4.321324723286     0.177754181303    -0.025443306799     1.007825032230

  Basis Set: AUG-CC-PVTZ
    Blend: AUG-CC-PVTZ
  Basis Set: (AUG-CC-PVTZ AUX)
    Blend: AUG-CC-PVTZ-JKFIT
	 Reference Energy          =    -525.5339282813492900 [Eh]
	 Singles Energy            =      -0.0000000000000000 [Eh]
	 Same-Spin Energy          =      -0.5770606351442282 [Eh]
	 Opposite-Spin Energy      =      -1.7373357373435596 [Eh]
	 Correlation Energy        =      -2.3143963724877876 [Eh]
	 Total Energy              =    -527.8483246538370395 [Eh]

	 ================> DF-SCS-MP2 Energies <==================
	-----------------------------------------------------------
	 SCS Same-Spin Scale       =       0.3333333333333333 [-]
	 SCS Opposite-Spin Scale   =       1.2000000000000000 [-]
	 SCS Same-Spin Energy      =      -0.1923535450480761 [Eh]
	 SCS Opposite-Spin Energy  =      -2.0848028848122713 [Eh]
	 SCS Correlation Energy    =      -2.2771564298603475 [Eh]
	 SCS Total Energy          =    -527.8110847112096735 [Eh]
	-----------------------------------------------------------

  Dipole Moment: [D]
     X:    -2.3562      Y:     2.4358      Z:     0.4784     Total:     3.4225

*** Psi4 exiting successfully. Buy a developer a beer!
