                               Psi4 1.3.2 release

  ==> Input File <==

--------------------------------------------------------------------------
#psi4
#
memory 32 gb

molecule  {
0 1
  N        0.8160970    -0.2990240    -0.0443680
  N        1.3585440    -1.5263750    -0.2734470
  N       -1.0817850     0.9875590    -0.4601130
  N       -1.2686320    -1.2431920     0.4227390
  C        1.8131143     0.6838841     0.2737033
  C        2.9786120     0.0532150     0.0016160
  C       -0.5903530    -0.1795160    -0.0248380
  C        1.4539390     2.1247050     0.4316710
  C        2.6793880    -1.2992810    -0.2463060
  C       -2.4210880     1.0928180    -0.4382200
  C       -2.6039190    -1.1175230     0.3972460
  C       -3.2414650     0.0469210    -0.0276130
  H        3.9528590     0.5149220     0.0929350
  H        1.0131890     2.6387050    -0.4244530
  H        0.7544440     2.2203260     1.2670250
  H        2.3864280     2.6245280     0.7070350
  H        3.3561510    -2.1272050    -0.4162310
  H       -2.8304840     2.0415190    -0.7796900
  H       -3.1684390    -1.9801170     0.7461500
  H       -4.3226790     0.1358530    -0.0311710
units angstrom
no_reorient  #important for SAPT in psi4, default
symmetry c1  #important for SAPT in psi4, default
}

set PROPERTIES_ORIGIN ["COM"]
properties('MP2/aug-cc-pvtz', properties = ['dipole'])
--------------------------------------------------------------------------

    Molecular point group: c1
  Charge       = 0
  Multiplicity = 1
  Basis Set: AUG-CC-PVTZ
    Blend: AUG-CC-PVTZ
  Basis Set: (AUG-CC-PVTZ AUX)
    Blend: AUG-CC-PVTZ-JKFIT

    Orbital Energies [Eh]
    ---------------------

    Doubly Occupied:

       1A    -15.636759     2A    -15.587911     3A    -15.580447
       4A    -15.576880     5A    -11.364880     6A    -11.309839
       7A    -11.307873     8A    -11.286524     9A    -11.255176
      10A    -11.251317    11A    -11.234010    12A    -11.220141
      13A     -1.378784    14A     -1.310062    15A     -1.204018
      16A     -1.125616    17A     -1.085443    18A     -1.044514
      19A     -0.959906    20A     -0.907406    21A     -0.891798
      22A     -0.799899    23A     -0.788221    24A     -0.713464
      25A     -0.707871    26A     -0.683120    27A     -0.633156
      28A     -0.631428    29A     -0.606418    30A     -0.590512
      31A     -0.585387    32A     -0.574650    33A     -0.558202
      34A     -0.551691    35A     -0.538397    36A     -0.488963
      37A     -0.455832    38A     -0.428846    39A     -0.418759
      40A     -0.406164    41A     -0.342041    42A     -0.332403

  @DF-RHF Final Energy:  -525.53179077142636

   => Energetics <=

    Nuclear Repulsion Energy =            657.2900334953732226
    One-Electron Energy =               -2016.9341924227969685
    Two-Electron Energy =                 834.1123681559972738
    Total Energy =                       -525.5317907714263583
  Basis Set: (AUG-CC-PVTZ AUX)
    Blend: AUG-CC-PVTZ-RI
    Molecular point group: c1

    Geometry (in Angstrom), charge = 0, multiplicity = 1:

       Center              X                  Y                   Z               Mass
    ------------   -----------------  -----------------  -----------------  -----------------
         N            0.819172208643    -0.260528579454    -0.048141629213    14.003074004430
         N            1.361619208643    -1.487879579454    -0.277220629213    14.003074004430
         N           -1.078709791357     1.026054420546    -0.463886629213    14.003074004430
         N           -1.265556791357    -1.204696579454     0.418965370787    14.003074004430
         C            1.816189508643     0.722379520546     0.269929670787    12.000000000000
         C            2.981687208643     0.091710420546    -0.002157629213    12.000000000000
         C           -0.587277791357    -0.141020579454    -0.028611629213    12.000000000000
         C            1.457014208643     2.163200420546     0.427897370787    12.000000000000
         C            2.682463208643    -1.260785579454    -0.250079629213    12.000000000000
         C           -2.418012791357     1.131313420546    -0.441993629213    12.000000000000
         C           -2.600843791357    -1.079027579454     0.393472370787    12.000000000000
         C           -3.238389791357     0.085416420546    -0.031386629213    12.000000000000
         H            3.955934208643     0.553417420546     0.089161370787     1.007825032230
         H            1.016264208643     2.677200420546    -0.428226629213     1.007825032230
         H            0.757519208643     2.258821420546     1.263251370787     1.007825032230
         H            2.389503208643     2.663023420546     0.703261370787     1.007825032230
         H            3.359226208643    -2.088709579454    -0.420004629213     1.007825032230
         H           -2.827408791357     2.080014420546    -0.783463629213     1.007825032230
         H           -3.165363791357    -1.941621579454     0.742376370787     1.007825032230
         H           -4.319603791357     0.174348420546    -0.034944629213     1.007825032230

  Basis Set: AUG-CC-PVTZ
    Blend: AUG-CC-PVTZ
  Basis Set: (AUG-CC-PVTZ AUX)
    Blend: AUG-CC-PVTZ-JKFIT
	 Reference Energy          =    -525.5317907714263583 [Eh]
	 Singles Energy            =      -0.0000000000000000 [Eh]
	 Same-Spin Energy          =      -0.5779802556650274 [Eh]
	 Opposite-Spin Energy      =      -1.7402250306081926 [Eh]
	 Correlation Energy        =      -2.3182052862732201 [Eh]
	 Total Energy              =    -527.8499960576996273 [Eh]

	 ================> DF-SCS-MP2 Energies <==================
	-----------------------------------------------------------
	 SCS Same-Spin Scale       =       0.3333333333333333 [-]
	 SCS Opposite-Spin Scale   =       1.2000000000000000 [-]
	 SCS Same-Spin Energy      =      -0.1926600852216758 [Eh]
	 SCS Opposite-Spin Energy  =      -2.0882700367298308 [Eh]
	 SCS Correlation Energy    =      -2.2809301219515068 [Eh]
	 SCS Total Energy          =    -527.8127208933779002 [Eh]
	-----------------------------------------------------------

  Dipole Moment: [D]
     X:    -2.4162      Y:     2.5307      Z:     0.3770     Total:     3.5192

*** Psi4 exiting successfully. Buy a developer a beer!
