                               Psi4 1.4a3.dev225

  ==> Input File <==

--------------------------------------------------------------------------
#psi4
#
memory 32 gb

molecule  {
0 1
  N        0.8160970    -0.2990240    -0.0443680
  N        1.3585440    -1.5263750    -0.2734470
  N       -1.0817850     0.9875590    -0.4601130
  N       -1.2686320    -1.2431920     0.4227390
  C        1.7597130     0.6951090     0.1272320
  C        2.9786120     0.0532150     0.0016160
  C       -0.6004873    -0.1954086    -0.0181507
  C        1.4539390     2.1247050     0.4316710
  C        2.6793880    -1.2992810    -0.2463060
  C       -2.4210880     1.0928180    -0.4382200
  C       -2.6039190    -1.1175230     0.3972460
  C       -3.2414650     0.0469210    -0.0276130
  H        3.9528590     0.5149220     0.0929350
  H        1.0131890     2.6387050    -0.4244530
  H        0.7544440     2.2203260     1.2670250
  H        2.3864280     2.6245280     0.7070350
  H        3.3561510    -2.1272050    -0.4162310
  H       -2.8304840     2.0415190    -0.7796900
  H       -3.1684390    -1.9801170     0.7461500
  H       -4.3226790     0.1358530    -0.0311710
units angstrom
no_reorient  #important for SAPT in psi4, default
symmetry c1  #important for SAPT in psi4, default
}

set PROPERTIES_ORIGIN ["COM"]
properties('MP2/aug-cc-pvtz', properties = ['dipole'])
--------------------------------------------------------------------------

    Molecular point group: c1
  Charge       = 0
  Multiplicity = 1
  Basis Set: AUG-CC-PVTZ
    Blend: AUG-CC-PVTZ
  Basis Set: (AUG-CC-PVTZ AUX)
    Blend: AUG-CC-PVTZ-JKFIT

    Orbital Energies [Eh]
    ---------------------

    Doubly Occupied:

       1A    -15.641142     2A    -15.583695     3A    -15.580391
       4A    -15.578520     5A    -11.367292     6A    -11.311966
       7A    -11.310881     8A    -11.286003     9A    -11.253450
      10A    -11.253385    11A    -11.234071    12A    -11.216465
      13A     -1.384963    14A     -1.314268    15A     -1.208383
      16A     -1.127461    17A     -1.083644    18A     -1.044842
      19A     -0.957945    20A     -0.910663    21A     -0.895976
      22A     -0.798560    23A     -0.794865    24A     -0.712977
      25A     -0.708661    26A     -0.681965    27A     -0.637558
      28A     -0.633563    29A     -0.607430    30A     -0.588453
      31A     -0.586530    32A     -0.575452    33A     -0.563209
      34A     -0.552250    35A     -0.535206    36A     -0.492163
      37A     -0.454376    38A     -0.431830    39A     -0.422059
      40A     -0.407283    41A     -0.338303    42A     -0.331532

  @DF-RHF Final Energy:  -525.54323628592272

   => Energetics <=

    Nuclear Repulsion Energy =            658.2417035044632030
    One-Electron Energy =               -2018.7706133086264799
    Two-Electron Energy =                 834.9856735182405600
    Total Energy =                       -525.5432362859227169
  Basis Set: (AUG-CC-PVTZ AUX)
    Blend: AUG-CC-PVTZ-RI
    Molecular point group: c1

    Geometry (in Angstrom), charge = 0, multiplicity = 1:

       Center              X                  Y                   Z               Mass
    ------------   -----------------  -----------------  -----------------  -----------------
         N            0.823935149102    -0.260178665750    -0.037662734402    14.003074004430
         N            1.366382149102    -1.487529665750    -0.266741734402    14.003074004430
         N           -1.073946850898     1.026404334250    -0.453407734402    14.003074004430
         N           -1.260793850898    -1.204346665750     0.429444265598    14.003074004430
         C            1.767551149102     0.733954334250     0.133937265598    12.000000000000
         C            2.986450149102     0.092060334250     0.008321265598    12.000000000000
         C           -0.592649150898    -0.156563265750    -0.011445434402    12.000000000000
         C            1.461777149102     2.163550334250     0.438376265598    12.000000000000
         C            2.687226149102    -1.260435665750    -0.239600734402    12.000000000000
         C           -2.413249850898     1.131663334250    -0.431514734402    12.000000000000
         C           -2.596080850898    -1.078677665750     0.403951265598    12.000000000000
         C           -3.233626850898     0.085766334250    -0.020907734402    12.000000000000
         H            3.960697149102     0.553767334250     0.099640265598     1.007825032230
         H            1.021027149102     2.677550334250    -0.417747734402     1.007825032230
         H            0.762282149102     2.259171334250     1.273730265598     1.007825032230
         H            2.394266149102     2.663373334250     0.713740265598     1.007825032230
         H            3.363989149102    -2.088359665750    -0.409525734402     1.007825032230
         H           -2.822645850898     2.080364334250    -0.772984734402     1.007825032230
         H           -3.160600850898    -1.941271665750     0.752855265598     1.007825032230
         H           -4.314840850898     0.174698334250    -0.024465734402     1.007825032230

  Basis Set: AUG-CC-PVTZ
    Blend: AUG-CC-PVTZ
  Basis Set: (AUG-CC-PVTZ AUX)
    Blend: AUG-CC-PVTZ-JKFIT
	 Reference Energy          =    -525.5432362859227169 [Eh]
	 Singles Energy            =      -0.0000000000000000 [Eh]
	 Same-Spin Energy          =      -0.5775363740505399 [Eh]
	 Opposite-Spin Energy      =      -1.7385952719713449 [Eh]
	 Correlation Energy        =      -2.3161316460218848 [Eh]
	 Total Energy              =    -527.8593679319445755 [Eh]

	 ================> DF-SCS-MP2 Energies <==================
	-----------------------------------------------------------
	 SCS Same-Spin Scale       =       0.3333333333333333 [-]
	 SCS Opposite-Spin Scale   =       1.2000000000000000 [-]
	 SCS Same-Spin Energy      =      -0.1925121246835133 [Eh]
	 SCS Opposite-Spin Energy  =      -2.0863143263656139 [Eh]
	 SCS Correlation Energy    =      -2.2788264510491270 [Eh]
	 SCS Total Energy          =    -527.8220627369718159 [Eh]
	-----------------------------------------------------------

  Dipole Moment: [D]
     X:    -2.6797      Y:     2.5423      Z:     0.4519     Total:     3.7213

*** Psi4 exiting successfully. Buy a developer a beer!
