                               Psi4 1.3.2 release

  ==> Input File <==

--------------------------------------------------------------------------
#psi4
#
memory 32 gb

molecule  {
0 1
  N        0.8160970    -0.2990240    -0.0443680
  N        1.3585440    -1.5263750    -0.2734470
  N       -1.0817850     0.9875590    -0.4601130
  N       -1.2686320    -1.2431920     0.4227390
  C        1.6870417     0.7575674     0.1379177
  C        2.9786120     0.0532150     0.0016160
  C       -0.5903530    -0.1795160    -0.0248380
  C        1.4539390     2.1247050     0.4316710
  C        2.6793880    -1.2992810    -0.2463060
  C       -2.4210880     1.0928180    -0.4382200
  C       -2.6039190    -1.1175230     0.3972460
  C       -3.2414650     0.0469210    -0.0276130
  H        3.9528590     0.5149220     0.0929350
  H        1.0131890     2.6387050    -0.4244530
  H        0.7544440     2.2203260     1.2670250
  H        2.3864280     2.6245280     0.7070350
  H        3.3561510    -2.1272050    -0.4162310
  H       -2.8304840     2.0415190    -0.7796900
  H       -3.1684390    -1.9801170     0.7461500
  H       -4.3226790     0.1358530    -0.0311710
units angstrom
no_reorient  #important for SAPT in psi4, default
symmetry c1  #important for SAPT in psi4, default
}

set PROPERTIES_ORIGIN ["COM"]
properties('MP2/aug-cc-pvtz', properties = ['dipole'])
--------------------------------------------------------------------------

    Molecular point group: c1
  Charge       = 0
  Multiplicity = 1
  Basis Set: AUG-CC-PVTZ
    Blend: AUG-CC-PVTZ
  Basis Set: (AUG-CC-PVTZ AUX)
    Blend: AUG-CC-PVTZ-JKFIT

    Orbital Energies [Eh]
    ---------------------

    Doubly Occupied:

       1A    -15.648490     2A    -15.583867     3A    -15.579103
       4A    -15.579034     5A    -11.366506     6A    -11.312584
       7A    -11.310066     8A    -11.295934     9A    -11.253903
      10A    -11.253632    11A    -11.233984    12A    -11.222515
      13A     -1.385238    14A     -1.311604    15A     -1.207089
      16A     -1.132878    17A     -1.087544    18A     -1.042670
      19A     -0.964082    20A     -0.909439    21A     -0.896078
      22A     -0.796387    23A     -0.794874    24A     -0.712180
      25A     -0.707603    26A     -0.682931    27A     -0.640131
      28A     -0.631920    29A     -0.608823    30A     -0.590831
      31A     -0.589124    32A     -0.582115    33A     -0.579258
      34A     -0.553607    35A     -0.523224    36A     -0.489102
      37A     -0.454403    38A     -0.431402    39A     -0.421049
      40A     -0.406574    41A     -0.339971    42A     -0.316295

  @DF-RHF Final Energy:  -525.52619383102331

   => Energetics <=

    Nuclear Repulsion Energy =            658.1758800020951412
    One-Electron Energy =               -2018.5480617252062530
    Two-Electron Energy =                 834.8459878920879191
    Total Energy =                       -525.5261938310233063
  Basis Set: (AUG-CC-PVTZ AUX)
    Blend: AUG-CC-PVTZ-RI
    Molecular point group: c1

    Geometry (in Angstrom), charge = 0, multiplicity = 1:

       Center              X                  Y                   Z               Mass
    ------------   -----------------  -----------------  -----------------  -----------------
         N            0.828623229603    -0.266052241319    -0.037962474093    14.003074004430
         N            1.371070229603    -1.493403241319    -0.267041474093    14.003074004430
         N           -1.069258770397     1.020530758681    -0.453707474093    14.003074004430
         N           -1.256105770397    -1.210220241319     0.429144525907    14.003074004430
         C            1.699567929603     0.790539158681     0.144323225907    12.000000000000
         C            2.991138229603     0.086186758681     0.008021525907    12.000000000000
         C           -0.577826770397    -0.146544241319    -0.018432474093    12.000000000000
         C            1.466465229603     2.157676758681     0.438076525907    12.000000000000
         C            2.691914229603    -1.266309241319    -0.239900474093    12.000000000000
         C           -2.408561770397     1.125789758681    -0.431814474093    12.000000000000
         C           -2.591392770397    -1.084551241319     0.403651525907    12.000000000000
         C           -3.228938770397     0.079892758681    -0.021207474093    12.000000000000
         H            3.965385229603     0.547893758681     0.099340525907     1.007825032230
         H            1.025715229603     2.671676758681    -0.418047474093     1.007825032230
         H            0.766970229603     2.253297758681     1.273430525907     1.007825032230
         H            2.398954229603     2.657499758681     0.713440525907     1.007825032230
         H            3.368677229603    -2.094233241319    -0.409825474093     1.007825032230
         H           -2.817957770397     2.074490758681    -0.773284474093     1.007825032230
         H           -3.155912770397    -1.947145241319     0.752555525907     1.007825032230
         H           -4.310152770397     0.168824758681    -0.024765474093     1.007825032230

  Basis Set: AUG-CC-PVTZ
    Blend: AUG-CC-PVTZ
  Basis Set: (AUG-CC-PVTZ AUX)
    Blend: AUG-CC-PVTZ-JKFIT
	 Reference Energy          =    -525.5261938310233063 [Eh]
	 Singles Energy            =      -0.0000000000000000 [Eh]
	 Same-Spin Energy          =      -0.5798527340565759 [Eh]
	 Opposite-Spin Energy      =      -1.7416205549896464 [Eh]
	 Correlation Energy        =      -2.3214732890462222 [Eh]
	 Total Energy              =    -527.8476671200695591 [Eh]

	 ================> DF-SCS-MP2 Energies <==================
	-----------------------------------------------------------
	 SCS Same-Spin Scale       =       0.3333333333333333 [-]
	 SCS Opposite-Spin Scale   =       1.2000000000000000 [-]
	 SCS Same-Spin Energy      =      -0.1932842446855253 [Eh]
	 SCS Opposite-Spin Energy  =      -2.0899446659875758 [Eh]
	 SCS Correlation Energy    =      -2.2832289106731012 [Eh]
	 SCS Total Energy          =    -527.8094227416963804 [Eh]
	-----------------------------------------------------------

  Dipole Moment: [D]
     X:    -2.7232      Y:     2.6039      Z:     0.4567     Total:     3.7953

*** Psi4 exiting successfully. Buy a developer a beer!
