                               Psi4 1.4a3.dev225

  ==> Input File <==

--------------------------------------------------------------------------
#psi4
#
memory 32 gb

molecule  {
0 1
  N        0.8160970    -0.2990240    -0.0443680
  N        1.3585440    -1.5263750    -0.2734470
  N       -1.0817850     0.9875590    -0.4601130
  N       -1.2686320    -1.2431920     0.4227390
  C        1.7597130     0.6951090     0.1272320
  C        2.9786120     0.0532150     0.0016160
  C       -0.5903530    -0.1795160    -0.0248380
  C        1.4539390     2.1247050     0.4316710
  C        2.6900198    -1.2512251    -0.2374970
  C       -2.4210880     1.0928180    -0.4382200
  C       -2.6039190    -1.1175230     0.3972460
  C       -3.2414650     0.0469210    -0.0276130
  H        3.9528590     0.5149220     0.0929350
  H        1.0131890     2.6387050    -0.4244530
  H        0.7544440     2.2203260     1.2670250
  H        2.3864280     2.6245280     0.7070350
  H        3.3561510    -2.1272050    -0.4162310
  H       -2.8304840     2.0415190    -0.7796900
  H       -3.1684390    -1.9801170     0.7461500
  H       -4.3226790     0.1358530    -0.0311710
units angstrom
no_reorient  #important for SAPT in psi4, default
symmetry c1  #important for SAPT in psi4, default
}

set PROPERTIES_ORIGIN ["COM"]
properties('MP2/aug-cc-pvtz', properties = ['dipole'])
--------------------------------------------------------------------------

    Molecular point group: c1
  Charge       = 0
  Multiplicity = 1
  Basis Set: AUG-CC-PVTZ
    Blend: AUG-CC-PVTZ
  Basis Set: (AUG-CC-PVTZ AUX)
    Blend: AUG-CC-PVTZ-JKFIT

    Orbital Energies [Eh]
    ---------------------

    Doubly Occupied:

       1A    -15.644109     2A    -15.583150     3A    -15.579392
       4A    -15.579250     5A    -11.367701     6A    -11.311951
       7A    -11.309927     8A    -11.287610     9A    -11.253395
      10A    -11.252320    11A    -11.235180    12A    -11.213870
      13A     -1.386650    14A     -1.312921    15A     -1.206587
      16A     -1.127964    17A     -1.085185    18A     -1.048148
      19A     -0.961936    20A     -0.909395    21A     -0.897589
      22A     -0.799517    23A     -0.793037    24A     -0.713994
      25A     -0.708433    26A     -0.683910    27A     -0.638167
      28A     -0.633800    29A     -0.605948    30A     -0.590634
      31A     -0.584246    32A     -0.571213    33A     -0.565495
      34A     -0.552943    35A     -0.531716    36A     -0.492283
      37A     -0.458697    38A     -0.430938    39A     -0.421112
      40A     -0.409692    41A     -0.342131    42A     -0.327863

  @DF-RHF Final Energy:  -525.53760105532047

   => Energetics <=

    Nuclear Repulsion Energy =            658.8015685456540496
    One-Electron Energy =               -2019.8583398600053442
    Two-Electron Energy =                 835.5191702590309433
    Total Energy =                       -525.5376010553204651
  Basis Set: (AUG-CC-PVTZ AUX)
    Blend: AUG-CC-PVTZ-RI
    Molecular point group: c1

    Geometry (in Angstrom), charge = 0, multiplicity = 1:

       Center              X                  Y                   Z               Mass
    ------------   -----------------  -----------------  -----------------  -----------------
         N            0.822378420309    -0.264972559220    -0.037821787449    14.003074004430
         N            1.364825420309    -1.492323559220    -0.266900787449    14.003074004430
         N           -1.075503579691     1.021610440780    -0.453566787449    14.003074004430
         N           -1.262350579691    -1.209140559220     0.429285212551    14.003074004430
         C            1.765994420309     0.729160440780     0.133778212551    12.000000000000
         C            2.984893420309     0.087266440780     0.008162212551    12.000000000000
         C           -0.584071579691    -0.145464559220    -0.018291787449    12.000000000000
         C            1.460220420309     2.158756440780     0.438217212551    12.000000000000
         C            2.696301220309    -1.217173659220    -0.230950787449    12.000000000000
         C           -2.414806579691     1.126869440780    -0.431673787449    12.000000000000
         C           -2.597637579691    -1.083471559220     0.403792212551    12.000000000000
         C           -3.235183579691     0.080972440780    -0.021066787449    12.000000000000
         H            3.959140420309     0.548973440780     0.099481212551     1.007825032230
         H            1.019470420309     2.672756440780    -0.417906787449     1.007825032230
         H            0.760725420309     2.254377440780     1.273571212551     1.007825032230
         H            2.392709420309     2.658579440780     0.713581212551     1.007825032230
         H            3.362432420309    -2.093153559220    -0.409684787449     1.007825032230
         H           -2.824202579691     2.075570440780    -0.773143787449     1.007825032230
         H           -3.162157579691    -1.946065559220     0.752696212551     1.007825032230
         H           -4.316397579691     0.169904440780    -0.024624787449     1.007825032230

  Basis Set: AUG-CC-PVTZ
    Blend: AUG-CC-PVTZ
  Basis Set: (AUG-CC-PVTZ AUX)
    Blend: AUG-CC-PVTZ-JKFIT
	 Reference Energy          =    -525.5376010553204651 [Eh]
	 Singles Energy            =      -0.0000000000000000 [Eh]
	 Same-Spin Energy          =      -0.5787848208310158 [Eh]
	 Opposite-Spin Energy      =      -1.7402254430863784 [Eh]
	 Correlation Energy        =      -2.3190102639173942 [Eh]
	 Total Energy              =    -527.8566113192379134 [Eh]

	 ================> DF-SCS-MP2 Energies <==================
	-----------------------------------------------------------
	 SCS Same-Spin Scale       =       0.3333333333333333 [-]
	 SCS Opposite-Spin Scale   =       1.2000000000000000 [-]
	 SCS Same-Spin Energy      =      -0.1929282736103386 [Eh]
	 SCS Opposite-Spin Energy  =      -2.0882705317036541 [Eh]
	 SCS Correlation Energy    =      -2.2811988053139927 [Eh]
	 SCS Total Energy          =    -527.8187998606344991 [Eh]
	-----------------------------------------------------------

  Dipole Moment: [D]
     X:    -2.6575      Y:     2.6332      Z:     0.4554     Total:     3.7687

*** Psi4 exiting successfully. Buy a developer a beer!
