                               Psi4 1.3.2 release

  ==> Input File <==

--------------------------------------------------------------------------
#psi4
#
memory 32 gb

molecule  {
0 1
  N        0.8160970    -0.2990240    -0.0443680
  N        1.3585440    -1.5263750    -0.2734470
  N       -1.0817850     0.9875590    -0.4601130
  N       -1.2686320    -1.2431920     0.4227390
  C        1.7597130     0.6951090     0.1272320
  C        2.9786120     0.0532150     0.0016160
  C       -0.5903530    -0.1795160    -0.0248380
  C        1.4539390     2.1247050     0.4316710
  C        2.6793880    -1.2992810    -0.2463060
  C       -2.4210880     1.0928180    -0.4382200
  C       -2.6039190    -1.1175230     0.3972460
  C       -3.3178076     0.1038166    -0.0467008
  H        3.9528590     0.5149220     0.0929350
  H        1.0131890     2.6387050    -0.4244530
  H        0.7544440     2.2203260     1.2670250
  H        2.3864280     2.6245280     0.7070350
  H        3.3561510    -2.1272050    -0.4162310
  H       -2.8304840     2.0415190    -0.7796900
  H       -3.1684390    -1.9801170     0.7461500
  H       -4.3226790     0.1358530    -0.0311710
units angstrom
no_reorient  #important for SAPT in psi4, default
symmetry c1  #important for SAPT in psi4, default
}

set PROPERTIES_ORIGIN ["COM"]
properties('MP2/aug-cc-pvtz', properties = ['dipole'])
--------------------------------------------------------------------------

    Molecular point group: c1
  Charge       = 0
  Multiplicity = 1
  Basis Set: AUG-CC-PVTZ
    Blend: AUG-CC-PVTZ
  Basis Set: (AUG-CC-PVTZ AUX)
    Blend: AUG-CC-PVTZ-JKFIT

    Orbital Energies [Eh]
    ---------------------

    Doubly Occupied:

       1A    -15.643492     2A    -15.582507     3A    -15.581865
       4A    -15.580865     5A    -11.370250     6A    -11.321731
       7A    -11.308828     8A    -11.287746     9A    -11.255729
      10A    -11.254793    11A    -11.234887    12A    -11.218276
      13A     -1.387302    14A     -1.310318    15A     -1.205522
      16A     -1.127380    17A     -1.083484    18A     -1.043162
      19A     -0.959289    20A     -0.905937    21A     -0.897153
      22A     -0.800027    23A     -0.795783    24A     -0.712273
      25A     -0.707405    26A     -0.692316    27A     -0.646391
      28A     -0.637041    29A     -0.598618    30A     -0.590238
      31A     -0.580128    32A     -0.573210    33A     -0.564633
      34A     -0.551782    35A     -0.536986    36A     -0.497652
      37A     -0.455867    38A     -0.431145    39A     -0.417271
      40A     -0.403446    41A     -0.337209    42A     -0.333310

  @DF-RHF Final Energy:  -525.53092374443474

   => Energetics <=

    Nuclear Repulsion Energy =            656.5517788303308180
    One-Electron Energy =               -2015.3189115334071175
    Two-Electron Energy =                 833.2362089586414413
    Total Energy =                       -525.5309237444347445
  Basis Set: (AUG-CC-PVTZ AUX)
    Blend: AUG-CC-PVTZ-RI
    Molecular point group: c1

    Geometry (in Angstrom), charge = 0, multiplicity = 1:

       Center              X                  Y                   Z               Mass
    ------------   -----------------  -----------------  -----------------  -----------------
         N            0.828898448273    -0.265635226524    -0.035730506381    14.003074004430
         N            1.371345448273    -1.492986226524    -0.264809506381    14.003074004430
         N           -1.068983551727     1.020947773476    -0.451475506381    14.003074004430
         N           -1.255830551727    -1.209803226524     0.431376493619    14.003074004430
         C            1.772514448273     0.728497773476     0.135869493619    12.000000000000
         C            2.991413448273     0.086603773476     0.010253493619    12.000000000000
         C           -0.577551551727    -0.146127226524    -0.016200506381    12.000000000000
         C            1.466740448273     2.158093773476     0.440308493619    12.000000000000
         C            2.692189448273    -1.265892226524    -0.237668506381    12.000000000000
         C           -2.408286551727     1.126206773476    -0.429582506381    12.000000000000
         C           -2.591117551727    -1.084134226524     0.405883493619    12.000000000000
         C           -3.305006151727     0.137205373476    -0.038063306381    12.000000000000
         H            3.965660448273     0.548310773476     0.101572493619     1.007825032230
         H            1.025990448273     2.672093773476    -0.415815506381     1.007825032230
         H            0.767245448273     2.253714773476     1.275662493619     1.007825032230
         H            2.399229448273     2.657916773476     0.715672493619     1.007825032230
         H            3.368952448273    -2.093816226524    -0.407593506381     1.007825032230
         H           -2.817682551727     2.074907773476    -0.771052506381     1.007825032230
         H           -3.155637551727    -1.946728226524     0.754787493619     1.007825032230
         H           -4.309877551727     0.169241773476    -0.022533506381     1.007825032230

  Basis Set: AUG-CC-PVTZ
    Blend: AUG-CC-PVTZ
  Basis Set: (AUG-CC-PVTZ AUX)
    Blend: AUG-CC-PVTZ-JKFIT
	 Reference Energy          =    -525.5309237444347445 [Eh]
	 Singles Energy            =      -0.0000000000000000 [Eh]
	 Same-Spin Energy          =      -0.5771869364531217 [Eh]
	 Opposite-Spin Energy      =      -1.7391345696537004 [Eh]
	 Correlation Energy        =      -2.3163215061068221 [Eh]
	 Total Energy              =    -527.8472452505416186 [Eh]

	 ================> DF-SCS-MP2 Energies <==================
	-----------------------------------------------------------
	 SCS Same-Spin Scale       =       0.3333333333333333 [-]
	 SCS Opposite-Spin Scale   =       1.2000000000000000 [-]
	 SCS Same-Spin Energy      =      -0.1923956454843739 [Eh]
	 SCS Opposite-Spin Energy  =      -2.0869614835844406 [Eh]
	 SCS Correlation Energy    =      -2.2793571290688144 [Eh]
	 SCS Total Energy          =    -527.8102808735035296 [Eh]
	-----------------------------------------------------------

  Dipole Moment: [D]
     X:    -2.5229      Y:     2.4598      Z:     0.4767     Total:     3.5556

*** Psi4 exiting successfully. Buy a developer a beer!
