                               Psi4 1.3.2 release

  ==> Input File <==

--------------------------------------------------------------------------
#psi4
#
memory 32 gb

molecule  {
0 1
  N        0.8160970    -0.2990240    -0.0443680
  N        1.3585440    -1.5263750    -0.2734470
  N       -1.0817850     0.9875590    -0.4601130
  N       -1.2686320    -1.2431920     0.4227390
  C        1.7597130     0.6951090     0.1272320
  C        2.9786120     0.0532150     0.0016160
  C       -0.5903530    -0.1795160    -0.0248380
  C        1.4539390     2.1247050     0.4316710
  C        2.6793880    -1.2992810    -0.2463060
  C       -2.4210880     1.0928180    -0.4382200
  C       -2.6039190    -1.1175230     0.3972460
  C       -3.3329429     0.2140006    -0.0885737
  H        3.9528590     0.5149220     0.0929350
  H        1.0131890     2.6387050    -0.4244530
  H        0.7544440     2.2203260     1.2670250
  H        2.3864280     2.6245280     0.7070350
  H        3.3561510    -2.1272050    -0.4162310
  H       -2.8304840     2.0415190    -0.7796900
  H       -3.1684390    -1.9801170     0.7461500
  H       -4.3226790     0.1358530    -0.0311710
units angstrom
no_reorient  #important for SAPT in psi4, default
symmetry c1  #important for SAPT in psi4, default
}

set PROPERTIES_ORIGIN ["COM"]
properties('MP2/aug-cc-pvtz', properties = ['dipole'])
--------------------------------------------------------------------------

    Molecular point group: c1
  Charge       = 0
  Multiplicity = 1
  Basis Set: AUG-CC-PVTZ
    Blend: AUG-CC-PVTZ
  Basis Set: (AUG-CC-PVTZ AUX)
    Blend: AUG-CC-PVTZ-JKFIT

    Orbital Energies [Eh]
    ---------------------

    Doubly Occupied:

       1A    -15.644005     2A    -15.585595     3A    -15.582961
       4A    -15.575445     5A    -11.371625     6A    -11.333541
       7A    -11.292739     8A    -11.288008     9A    -11.256283
      10A    -11.255154    11A    -11.234200    12A    -11.218549
      13A     -1.387663    14A     -1.309354    15A     -1.205335
      16A     -1.128186    17A     -1.083279    18A     -1.047265
      19A     -0.958965    20A     -0.913475    21A     -0.887661
      22A     -0.799196    23A     -0.796448    24A     -0.722567
      25A     -0.705929    26A     -0.689447    27A     -0.651081
      28A     -0.636387    29A     -0.594926    30A     -0.590746
      31A     -0.575201    32A     -0.571158    33A     -0.562172
      34A     -0.551169    35A     -0.536241    36A     -0.492199
      37A     -0.456231    38A     -0.436110    39A     -0.411993
      40A     -0.402358    41A     -0.338559    42A     -0.333617

  @DF-RHF Final Energy:  -525.50308293407568

   => Energetics <=

    Nuclear Repulsion Energy =            656.1819298927800901
    One-Electron Energy =               -2014.5439731080723504
    Two-Electron Energy =                 832.8589602812165822
    Total Energy =                       -525.5030829340756782
  Basis Set: (AUG-CC-PVTZ AUX)
    Blend: AUG-CC-PVTZ-RI
    Molecular point group: c1

    Geometry (in Angstrom), charge = 0, multiplicity = 1:

       Center              X                  Y                   Z               Mass
    ------------   -----------------  -----------------  -----------------  -----------------
         N            0.830033064657    -0.273895160035    -0.032591508252    14.003074004430
         N            1.372480064657    -1.501246160035    -0.261670508252    14.003074004430
         N           -1.067848935343     1.012687839965    -0.448336508252    14.003074004430
         N           -1.254695935343    -1.218063160035     0.434515491748    14.003074004430
         C            1.773649064657     0.720237839965     0.139008491748    12.000000000000
         C            2.992548064657     0.078343839965     0.013392491748    12.000000000000
         C           -0.576416935343    -0.154387160035    -0.013061508252    12.000000000000
         C            1.467875064657     2.149833839965     0.443447491748    12.000000000000
         C            2.693324064657    -1.274152160035    -0.234529508252    12.000000000000
         C           -2.407151935343     1.117946839965    -0.426443508252    12.000000000000
         C           -2.589982935343    -1.092394160035     0.409022491748    12.000000000000
         C           -3.319006835343     0.239129439965    -0.076797208252    12.000000000000
         H            3.966795064657     0.540050839965     0.104711491748     1.007825032230
         H            1.027125064657     2.663833839965    -0.412676508252     1.007825032230
         H            0.768380064657     2.245454839965     1.278801491748     1.007825032230
         H            2.400364064657     2.649656839965     0.718811491748     1.007825032230
         H            3.370087064657    -2.102076160035    -0.404454508252     1.007825032230
         H           -2.816547935343     2.066647839965    -0.767913508252     1.007825032230
         H           -3.154502935343    -1.954988160035     0.757926491748     1.007825032230
         H           -4.308742935343     0.160981839965    -0.019394508252     1.007825032230

  Basis Set: AUG-CC-PVTZ
    Blend: AUG-CC-PVTZ
  Basis Set: (AUG-CC-PVTZ AUX)
    Blend: AUG-CC-PVTZ-JKFIT
	 Reference Energy          =    -525.5030829340756782 [Eh]
	 Singles Energy            =      -0.0000000000000000 [Eh]
	 Same-Spin Energy          =      -0.5765817404135954 [Eh]
	 Opposite-Spin Energy      =      -1.7399142600041979 [Eh]
	 Correlation Energy        =      -2.3164960004177932 [Eh]
	 Total Energy              =    -527.8195789344935065 [Eh]

	 ================> DF-SCS-MP2 Energies <==================
	-----------------------------------------------------------
	 SCS Same-Spin Scale       =       0.3333333333333333 [-]
	 SCS Opposite-Spin Scale   =       1.2000000000000000 [-]
	 SCS Same-Spin Energy      =      -0.1921939134711985 [Eh]
	 SCS Opposite-Spin Energy  =      -2.0878971120050376 [Eh]
	 SCS Correlation Energy    =      -2.2800910254762359 [Eh]
	 SCS Total Energy          =    -527.7831739595519593 [Eh]
	-----------------------------------------------------------

  Dipole Moment: [D]
     X:    -2.4751      Y:     2.2537      Z:     0.5564     Total:     3.3934

*** Psi4 exiting successfully. Buy a developer a beer!
