                               Psi4 1.3.2 release

  ==> Input File <==

--------------------------------------------------------------------------
#psi4
#
memory 32 gb

molecule  {
0 1
  N        0.8160970    -0.2990240    -0.0443680
  N        1.3585440    -1.5263750    -0.2734470
  N       -1.0817850     0.9875590    -0.4601130
  N       -1.2686320    -1.2431920     0.4227390
  C        1.7504707     0.6985084     0.1031015
  C        2.9786120     0.0532150     0.0016160
  C       -0.5903530    -0.1795160    -0.0248380
  C        1.4539390     2.1247050     0.4316710
  C        2.6793880    -1.2992810    -0.2463060
  C       -2.4210880     1.0928180    -0.4382200
  C       -2.6039190    -1.1175230     0.3972460
  C       -3.2414650     0.0469210    -0.0276130
  H        3.9528590     0.5149220     0.0929350
  H        1.0131890     2.6387050    -0.4244530
  H        0.7544440     2.2203260     1.2670250
  H        2.3864280     2.6245280     0.7070350
  H        3.3561510    -2.1272050    -0.4162310
  H       -2.8304840     2.0415190    -0.7796900
  H       -3.1684390    -1.9801170     0.7461500
  H       -4.3226790     0.1358530    -0.0311710
units angstrom
no_reorient  #important for SAPT in psi4, default
symmetry c1  #important for SAPT in psi4, default
}

set PROPERTIES_ORIGIN ["COM"]
properties('MP2/aug-cc-pvtz', properties = ['dipole'])
--------------------------------------------------------------------------

    Molecular point group: c1
  Charge       = 0
  Multiplicity = 1
  Basis Set: AUG-CC-PVTZ
    Blend: AUG-CC-PVTZ
  Basis Set: (AUG-CC-PVTZ AUX)
    Blend: AUG-CC-PVTZ-JKFIT

    Orbital Energies [Eh]
    ---------------------

    Doubly Occupied:

       1A    -15.643068     2A    -15.582719     3A    -15.580731
       4A    -15.578906     5A    -11.367670     6A    -11.311776
       7A    -11.309710     8A    -11.287147     9A    -11.254475
      10A    -11.252895    11A    -11.234811    12A    -11.217471
      13A     -1.387399    14A     -1.312863    15A     -1.206328
      16A     -1.130048    17A     -1.083892    18A     -1.044852
      19A     -0.958516    20A     -0.909292    21A     -0.897179
      22A     -0.800019    23A     -0.796017    24A     -0.713073
      25A     -0.707228    26A     -0.682328    27A     -0.639213
      28A     -0.633354    29A     -0.607267    30A     -0.589491
      31A     -0.586636    32A     -0.575439    33A     -0.565752
      34A     -0.552630    35A     -0.533913    36A     -0.491911
      37A     -0.454980    38A     -0.430750    39A     -0.420437
      40A     -0.407883    41A     -0.338567    42A     -0.330938

  @DF-RHF Final Energy:  -525.54333098755922

   => Energetics <=

    Nuclear Repulsion Energy =            658.3661439574252654
    One-Electron Energy =               -2018.9998015878031765
    Two-Electron Energy =                 835.0903266428186953
    Total Energy =                       -525.5433309875592158
  Basis Set: (AUG-CC-PVTZ AUX)
    Blend: AUG-CC-PVTZ-RI
    Molecular point group: c1

    Geometry (in Angstrom), charge = 0, multiplicity = 1:

       Center              X                  Y                   Z               Mass
    ------------   -----------------  -----------------  -----------------  -----------------
         N            0.823868280403    -0.261624888770    -0.035352480836    14.003074004430
         N            1.366315280403    -1.488975888770    -0.264431480836    14.003074004430
         N           -1.074013719597     1.024958111230    -0.451097480836    14.003074004430
         N           -1.260860719597    -1.205792888770     0.431754519164    14.003074004430
         C            1.758241980403     0.735907511230     0.112117019164    12.000000000000
         C            2.986383280403     0.090614111230     0.010631519164    12.000000000000
         C           -0.582581719597    -0.142116888770    -0.015822480836    12.000000000000
         C            1.461710280403     2.162104111230     0.440686519164    12.000000000000
         C            2.687159280403    -1.261881888770    -0.237290480836    12.000000000000
         C           -2.413316719597     1.130217111230    -0.429204480836    12.000000000000
         C           -2.596147719597    -1.080123888770     0.406261519164    12.000000000000
         C           -3.233693719597     0.084320111230    -0.018597480836    12.000000000000
         H            3.960630280403     0.552321111230     0.101950519164     1.007825032230
         H            1.020960280403     2.676104111230    -0.415437480836     1.007825032230
         H            0.762215280403     2.257725111230     1.276040519164     1.007825032230
         H            2.394199280403     2.661927111230     0.716050519164     1.007825032230
         H            3.363922280403    -2.089805888770    -0.407215480836     1.007825032230
         H           -2.822712719597     2.078918111230    -0.770674480836     1.007825032230
         H           -3.160667719597    -1.942717888770     0.755165519164     1.007825032230
         H           -4.314907719597     0.173252111230    -0.022155480836     1.007825032230

  Basis Set: AUG-CC-PVTZ
    Blend: AUG-CC-PVTZ
  Basis Set: (AUG-CC-PVTZ AUX)
    Blend: AUG-CC-PVTZ-JKFIT
	 Reference Energy          =    -525.5433309875592158 [Eh]
	 Singles Energy            =      -0.0000000000000000 [Eh]
	 Same-Spin Energy          =      -0.5776299375477736 [Eh]
	 Opposite-Spin Energy      =      -1.7386767599550663 [Eh]
	 Correlation Energy        =      -2.3163066975028399 [Eh]
	 Total Energy              =    -527.8596376850620118 [Eh]

	 ================> DF-SCS-MP2 Energies <==================
	-----------------------------------------------------------
	 SCS Same-Spin Scale       =       0.3333333333333333 [-]
	 SCS Opposite-Spin Scale   =       1.2000000000000000 [-]
	 SCS Same-Spin Energy      =      -0.1925433125159245 [Eh]
	 SCS Opposite-Spin Energy  =      -2.0864121119460797 [Eh]
	 SCS Correlation Energy    =      -2.2789554244620041 [Eh]
	 SCS Total Energy          =    -527.8222864120211852 [Eh]
	-----------------------------------------------------------

  Dipole Moment: [D]
     X:    -2.6014      Y:     2.5499      Z:     0.4491     Total:     3.6703

*** Psi4 exiting successfully. Buy a developer a beer!
