                               Psi4 1.3.2 release

  ==> Input File <==

--------------------------------------------------------------------------
#psi4
#
memory 32 gb

molecule  {
0 1
  N        0.8160970    -0.2990240    -0.0443680
  N        1.3585440    -1.5263750    -0.2734470
  N       -1.0817850     0.9875590    -0.4601130
  N       -1.2686320    -1.2431920     0.4227390
  C        1.7597130     0.6951090     0.1272320
  C        3.0667272     0.0068119    -0.0074649
  C       -0.5903530    -0.1795160    -0.0248380
  C        1.4539390     2.1247050     0.4316710
  C        2.6793880    -1.2992810    -0.2463060
  C       -2.4210880     1.0928180    -0.4382200
  C       -2.6039190    -1.1175230     0.3972460
  C       -3.2414650     0.0469210    -0.0276130
  H        3.9528590     0.5149220     0.0929350
  H        1.0131890     2.6387050    -0.4244530
  H        0.7544440     2.2203260     1.2670250
  H        2.3864280     2.6245280     0.7070350
  H        3.3561510    -2.1272050    -0.4162310
  H       -2.8304840     2.0415190    -0.7796900
  H       -3.1684390    -1.9801170     0.7461500
  H       -4.3226790     0.1358530    -0.0311710
units angstrom
no_reorient  #important for SAPT in psi4, default
symmetry c1  #important for SAPT in psi4, default
}

set PROPERTIES_ORIGIN ["COM"]
properties('MP2/aug-cc-pvtz', properties = ['dipole'])
--------------------------------------------------------------------------

    Molecular point group: c1
  Charge       = 0
  Multiplicity = 1
  Basis Set: AUG-CC-PVTZ
    Blend: AUG-CC-PVTZ
  Basis Set: (AUG-CC-PVTZ AUX)
    Blend: AUG-CC-PVTZ-JKFIT

    Orbital Energies [Eh]
    ---------------------

    Doubly Occupied:

       1A    -15.649000     2A    -15.584955     3A    -15.581049
       4A    -15.574836     5A    -11.369671     6A    -11.313175
       7A    -11.311090     8A    -11.299775     9A    -11.254899
      10A    -11.252572    11A    -11.236744    12A    -11.220104
      13A     -1.385330    14A     -1.312879    15A     -1.208045
      16A     -1.130539    17A     -1.076457    18A     -1.045128
      19A     -0.959139    20A     -0.910624    21A     -0.900062
      22A     -0.802304    23A     -0.796100    24A     -0.714637
      25A     -0.706246    26A     -0.683960    27A     -0.638334
      28A     -0.636451    29A     -0.612620    30A     -0.594527
      31A     -0.587133    32A     -0.576864    33A     -0.571161
      34A     -0.553428    35A     -0.516584    36A     -0.491753
      37A     -0.455255    38A     -0.432053    39A     -0.421951
      40A     -0.409158    41A     -0.342634    42A     -0.318481

  @DF-RHF Final Energy:  -525.52871077818020

   => Energetics <=

    Nuclear Repulsion Energy =            656.4835668817845544
    One-Electron Energy =               -2015.1491459536771345
    Two-Electron Energy =                 833.1368682937123822
    Total Energy =                       -525.5287107781801978
  Basis Set: (AUG-CC-PVTZ AUX)
    Blend: AUG-CC-PVTZ-RI
    Molecular point group: c1

    Geometry (in Angstrom), charge = 0, multiplicity = 1:

       Center              X                  Y                   Z               Mass
    ------------   -----------------  -----------------  -----------------  -----------------
         N            0.816569884295    -0.257891448900    -0.036480672727    14.003074004430
         N            1.359016884295    -1.485242448900    -0.265559672727    14.003074004430
         N           -1.081312115705     1.028691551100    -0.452225672727    14.003074004430
         N           -1.268159115705    -1.202059448900     0.430626327273    14.003074004430
         C            1.760185884295     0.736241551100     0.135119327273    12.000000000000
         C            3.067200084295     0.047944451100     0.000422427273    12.000000000000
         C           -0.589880115705    -0.138383448900    -0.016950672727    12.000000000000
         C            1.454411884295     2.165837551100     0.439558327273    12.000000000000
         C            2.679860884295    -1.258148448900    -0.238418672727    12.000000000000
         C           -2.420615115705     1.133950551100    -0.430332672727    12.000000000000
         C           -2.603446115705    -1.076390448900     0.405133327273    12.000000000000
         C           -3.240992115705     0.088053551100    -0.019725672727    12.000000000000
         H            3.953331884295     0.556054551100     0.100822327273     1.007825032230
         H            1.013661884295     2.679837551100    -0.416565672727     1.007825032230
         H            0.754916884295     2.261458551100     1.274912327273     1.007825032230
         H            2.386900884295     2.665660551100     0.714922327273     1.007825032230
         H            3.356623884295    -2.086072448900    -0.408343672727     1.007825032230
         H           -2.830011115705     2.082651551100    -0.771802672727     1.007825032230
         H           -3.167966115705    -1.938984448900     0.754037327273     1.007825032230
         H           -4.322206115705     0.176985551100    -0.023283672727     1.007825032230

  Basis Set: AUG-CC-PVTZ
    Blend: AUG-CC-PVTZ
  Basis Set: (AUG-CC-PVTZ AUX)
    Blend: AUG-CC-PVTZ-JKFIT
	 Reference Energy          =    -525.5287107781801978 [Eh]
	 Singles Energy            =      -0.0000000000000000 [Eh]
	 Same-Spin Energy          =      -0.5788128308888528 [Eh]
	 Opposite-Spin Energy      =      -1.7406477541728131 [Eh]
	 Correlation Energy        =      -2.3194605850616661 [Eh]
	 Total Energy              =    -527.8481713632418177 [Eh]

	 ================> DF-SCS-MP2 Energies <==================
	-----------------------------------------------------------
	 SCS Same-Spin Scale       =       0.3333333333333333 [-]
	 SCS Opposite-Spin Scale   =       1.2000000000000000 [-]
	 SCS Same-Spin Energy      =      -0.1929376102962843 [Eh]
	 SCS Opposite-Spin Energy  =      -2.0887773050073757 [Eh]
	 SCS Correlation Energy    =      -2.2817149153036600 [Eh]
	 SCS Total Energy          =    -527.8104256934838077 [Eh]
	-----------------------------------------------------------

  Dipole Moment: [D]
     X:    -2.8011      Y:     2.6099      Z:     0.4526     Total:     3.8552

*** Psi4 exiting successfully. Buy a developer a beer!
