                               Psi4 1.4a3.dev225

  ==> Input File <==

--------------------------------------------------------------------------
#psi4
#
memory 32 gb

molecule  {
0 1
  N        0.8160970    -0.2990240    -0.0443680
  N        1.3585440    -1.5263750    -0.2734470
  N       -1.0817850     0.9875590    -0.4601130
  N       -1.2686320    -1.2431920     0.4227390
  C        1.7597130     0.6951090     0.1272320
  C        2.9786120     0.0532150     0.0016160
  C       -0.5830129    -0.1969475    -0.0183367
  C        1.4539390     2.1247050     0.4316710
  C        2.6793880    -1.2992810    -0.2463060
  C       -2.4210880     1.0928180    -0.4382200
  C       -2.6039190    -1.1175230     0.3972460
  C       -3.2414650     0.0469210    -0.0276130
  H        3.9528590     0.5149220     0.0929350
  H        1.0131890     2.6387050    -0.4244530
  H        0.7544440     2.2203260     1.2670250
  H        2.3864280     2.6245280     0.7070350
  H        3.3561510    -2.1272050    -0.4162310
  H       -2.8304840     2.0415190    -0.7796900
  H       -3.1684390    -1.9801170     0.7461500
  H       -4.3226790     0.1358530    -0.0311710
units angstrom
no_reorient  #important for SAPT in psi4, default
symmetry c1  #important for SAPT in psi4, default
}

set PROPERTIES_ORIGIN ["COM"]
properties('MP2/aug-cc-pvtz', properties = ['dipole'])
--------------------------------------------------------------------------

    Molecular point group: c1
  Charge       = 0
  Multiplicity = 1
  Basis Set: AUG-CC-PVTZ
    Blend: AUG-CC-PVTZ
  Basis Set: (AUG-CC-PVTZ AUX)
    Blend: AUG-CC-PVTZ-JKFIT

    Orbital Energies [Eh]
    ---------------------

    Doubly Occupied:

       1A    -15.642916     2A    -15.582352     3A    -15.582018
       4A    -15.577195     5A    -11.367325     6A    -11.310446
       7A    -11.309299     8A    -11.287954     9A    -11.255403
      10A    -11.251869    11A    -11.234880    12A    -11.218263
      13A     -1.387921    14A     -1.310740    15A     -1.203978
      16A     -1.130677    17A     -1.084966    18A     -1.045138
      19A     -0.959252    20A     -0.908068    21A     -0.896675
      22A     -0.800372    23A     -0.796933    24A     -0.711724
      25A     -0.707967    26A     -0.682851    27A     -0.638807
      28A     -0.633299    29A     -0.606763    30A     -0.590545
      31A     -0.586452    32A     -0.574539    33A     -0.564462
      34A     -0.552569    35A     -0.536397    36A     -0.491242
      37A     -0.455520    38A     -0.429694    39A     -0.418588
      40A     -0.407925    41A     -0.337734    42A     -0.333180

  @DF-RHF Final Energy:  -525.54300142537443

   => Energetics <=

    Nuclear Repulsion Energy =            658.2680099730122265
    One-Electron Energy =               -2018.8122259896194919
    Two-Electron Energy =                 835.0012145912327242
    Total Energy =                       -525.5430014253744275
  Basis Set: (AUG-CC-PVTZ AUX)
    Blend: AUG-CC-PVTZ-RI
    Molecular point group: c1

    Geometry (in Angstrom), charge = 0, multiplicity = 1:

       Center              X                  Y                   Z               Mass
    ------------   -----------------  -----------------  -----------------  -----------------
         N            0.822625182300    -0.260063302251    -0.037648790929    14.003074004430
         N            1.365072182300    -1.487414302251    -0.266727790929    14.003074004430
         N           -1.075256817700     1.026519697749    -0.453393790929    14.003074004430
         N           -1.262103817700    -1.204231302251     0.429458209071    14.003074004430
         C            1.766241182300     0.734069697749     0.133951209071    12.000000000000
         C            2.985140182300     0.092175697749     0.008335209071    12.000000000000
         C           -0.576484717700    -0.157986802251    -0.011617490929    12.000000000000
         C            1.460467182300     2.163665697749     0.438390209071    12.000000000000
         C            2.685916182300    -1.260320302251    -0.239586790929    12.000000000000
         C           -2.414559817700     1.131778697749    -0.431500790929    12.000000000000
         C           -2.597390817700    -1.078562302251     0.403965209071    12.000000000000
         C           -3.234936817700     0.085881697749    -0.020893790929    12.000000000000
         H            3.959387182300     0.553882697749     0.099654209071     1.007825032230
         H            1.019717182300     2.677665697749    -0.417733790929     1.007825032230
         H            0.760972182300     2.259286697749     1.273744209071     1.007825032230
         H            2.392956182300     2.663488697749     0.713754209071     1.007825032230
         H            3.362679182300    -2.088244302251    -0.409511790929     1.007825032230
         H           -2.823955817700     2.080479697749    -0.772970790929     1.007825032230
         H           -3.161910817700    -1.941156302251     0.752869209071     1.007825032230
         H           -4.316150817700     0.174813697749    -0.024451790929     1.007825032230

  Basis Set: AUG-CC-PVTZ
    Blend: AUG-CC-PVTZ
  Basis Set: (AUG-CC-PVTZ AUX)
    Blend: AUG-CC-PVTZ-JKFIT
	 Reference Energy          =    -525.5430014253744275 [Eh]
	 Singles Energy            =      -0.0000000000000000 [Eh]
	 Same-Spin Energy          =      -0.5775965754127930 [Eh]
	 Opposite-Spin Energy      =      -1.7387459593897905 [Eh]
	 Correlation Energy        =      -2.3163425348025832 [Eh]
	 Total Energy              =    -527.8593439601770569 [Eh]

	 ================> DF-SCS-MP2 Energies <==================
	-----------------------------------------------------------
	 SCS Same-Spin Scale       =       0.3333333333333333 [-]
	 SCS Opposite-Spin Scale   =       1.2000000000000000 [-]
	 SCS Same-Spin Energy      =      -0.1925321918042643 [Eh]
	 SCS Opposite-Spin Energy  =      -2.0864951512677483 [Eh]
	 SCS Correlation Energy    =      -2.2790273430720127 [Eh]
	 SCS Total Energy          =    -527.8220287684464438 [Eh]
	-----------------------------------------------------------

  Dipole Moment: [D]
     X:    -2.4895      Y:     2.5331      Z:     0.4497     Total:     3.5800

*** Psi4 exiting successfully. Buy a developer a beer!
