                               Psi4 1.3.2 release

  ==> Input File <==

--------------------------------------------------------------------------
#psi4
#
memory 32 gb

molecule  {
0 1
  N        0.7159284    -0.1976277    -0.0200530
  N        1.3585440    -1.5263750    -0.2734470
  N       -1.0817850     0.9875590    -0.4601130
  N       -1.2686320    -1.2431920     0.4227390
  C        1.7597130     0.6951090     0.1272320
  C        2.9786120     0.0532150     0.0016160
  C       -0.5903530    -0.1795160    -0.0248380
  C        1.4539390     2.1247050     0.4316710
  C        2.6793880    -1.2992810    -0.2463060
  C       -2.4210880     1.0928180    -0.4382200
  C       -2.6039190    -1.1175230     0.3972460
  C       -3.2414650     0.0469210    -0.0276130
  H        3.9528590     0.5149220     0.0929350
  H        1.0131890     2.6387050    -0.4244530
  H        0.7544440     2.2203260     1.2670250
  H        2.3864280     2.6245280     0.7070350
  H        3.3561510    -2.1272050    -0.4162310
  H       -2.8304840     2.0415190    -0.7796900
  H       -3.1684390    -1.9801170     0.7461500
  H       -4.3226790     0.1358530    -0.0311710
units angstrom
no_reorient  #important for SAPT in psi4, default
symmetry c1  #important for SAPT in psi4, default
}

set PROPERTIES_ORIGIN ["COM"]
properties('MP2/aug-cc-pvtz', properties = ['dipole'])
--------------------------------------------------------------------------

    Molecular point group: c1
  Charge       = 0
  Multiplicity = 1
  Basis Set: AUG-CC-PVTZ
    Blend: AUG-CC-PVTZ
  Basis Set: (AUG-CC-PVTZ AUX)
    Blend: AUG-CC-PVTZ-JKFIT

    Orbital Energies [Eh]
    ---------------------

    Doubly Occupied:

       1A    -15.633789     2A    -15.589604     3A    -15.570161
       4A    -15.569541     5A    -11.355777     6A    -11.304044
       7A    -11.303720     8A    -11.303493     9A    -11.272410
      10A    -11.243695    11A    -11.234019    12A    -11.225507
      13A     -1.375828    14A     -1.292837    15A     -1.199790
      16A     -1.150594    17A     -1.082808    18A     -1.040880
      19A     -0.958878    20A     -0.905812    21A     -0.903301
      22A     -0.806345    23A     -0.789468    24A     -0.713163
      25A     -0.699647    26A     -0.679650    27A     -0.641133
      28A     -0.635966    29A     -0.606350    30A     -0.600134
      31A     -0.583179    32A     -0.572452    33A     -0.552039
      34A     -0.541819    35A     -0.539067    36A     -0.489613
      37A     -0.446133    38A     -0.424722    39A     -0.420303
      40A     -0.411628    41A     -0.344872    42A     -0.326026

  @DF-RHF Final Energy:  -525.51702016673630

   => Energetics <=

    Nuclear Repulsion Energy =            658.5503427605619891
    One-Electron Energy =               -2019.4543302351469265
    Two-Electron Energy =                 835.3869673078486358
    Total Energy =                       -525.5170201667363017
  Basis Set: (AUG-CC-PVTZ AUX)
    Blend: AUG-CC-PVTZ-RI
    Molecular point group: c1

    Geometry (in Angstrom), charge = 0, multiplicity = 1:

       Center              X                  Y                   Z               Mass
    ------------   -----------------  -----------------  -----------------  -----------------
         N            0.731769407442    -0.168843725339    -0.014973455552    14.003074004430
         N            1.374385007442    -1.497591025339    -0.268367455552    14.003074004430
         N           -1.065943992558     1.016342974661    -0.455033455552    14.003074004430
         N           -1.252790992558    -1.214408025339     0.427818544448    14.003074004430
         C            1.775554007442     0.723892974661     0.132311544448    12.000000000000
         C            2.994453007442     0.081998974661     0.006695544448    12.000000000000
         C           -0.574511992558    -0.150732025339    -0.019758455552    12.000000000000
         C            1.469780007442     2.153488974661     0.436750544448    12.000000000000
         C            2.695229007442    -1.270497025339    -0.241226455552    12.000000000000
         C           -2.405246992558     1.121601974661    -0.433140455552    12.000000000000
         C           -2.588077992558    -1.088739025339     0.402325544448    12.000000000000
         C           -3.225623992558     0.075704974661    -0.022533455552    12.000000000000
         H            3.968700007442     0.543705974661     0.098014544448     1.007825032230
         H            1.029030007442     2.667488974661    -0.419373455552     1.007825032230
         H            0.770285007442     2.249109974661     1.272104544448     1.007825032230
         H            2.402269007442     2.653311974661     0.712114544448     1.007825032230
         H            3.371992007442    -2.098421025339    -0.411151455552     1.007825032230
         H           -2.814642992558     2.070302974661    -0.774610455552     1.007825032230
         H           -3.152597992558    -1.951333025339     0.751229544448     1.007825032230
         H           -4.306837992558     0.164636974661    -0.026091455552     1.007825032230

  Basis Set: AUG-CC-PVTZ
    Blend: AUG-CC-PVTZ
  Basis Set: (AUG-CC-PVTZ AUX)
    Blend: AUG-CC-PVTZ-JKFIT
	 Reference Energy          =    -525.5170201667363017 [Eh]
	 Singles Energy            =      -0.0000000000000000 [Eh]
	 Same-Spin Energy          =      -0.5773733496285229 [Eh]
	 Opposite-Spin Energy      =      -1.7415126270702896 [Eh]
	 Correlation Energy        =      -2.3188859766988124 [Eh]
	 Total Energy              =    -527.8359061434350679 [Eh]

	 ================> DF-SCS-MP2 Energies <==================
	-----------------------------------------------------------
	 SCS Same-Spin Scale       =       0.3333333333333333 [-]
	 SCS Opposite-Spin Scale   =       1.2000000000000000 [-]
	 SCS Same-Spin Energy      =      -0.1924577832095076 [Eh]
	 SCS Opposite-Spin Energy  =      -2.0898151524843476 [Eh]
	 SCS Correlation Energy    =      -2.2822729356938551 [Eh]
	 SCS Total Energy          =    -527.7992931024301697 [Eh]
	-----------------------------------------------------------

  Dipole Moment: [D]
     X:    -1.6819      Y:     2.3663      Z:     0.4155     Total:     2.9327

*** Psi4 exiting successfully. Buy a developer a beer!
