                               Psi4 1.3.2 release

  ==> Input File <==

--------------------------------------------------------------------------
#psi4
#
memory 32 gb

molecule  {
0 1
  N        0.8160970    -0.2990240    -0.0443680
  N        1.3585440    -1.5263750    -0.2734470
  N       -1.0817850     0.9875590    -0.4601130
  N       -1.2686320    -1.2431920     0.4227390
  C        1.7597130     0.6951090     0.1272320
  C        2.9786120     0.0532150     0.0016160
  C       -0.5903530    -0.1795160    -0.0248380
  C        1.4539390     2.1247050     0.4316710
  C        2.6793880    -1.2992810    -0.2463060
  C       -2.5014426     1.1443788    -0.4559473
  C       -2.6039190    -1.1175230     0.3972460
  C       -3.2414650     0.0469210    -0.0276130
  H        3.9528590     0.5149220     0.0929350
  H        1.0131890     2.6387050    -0.4244530
  H        0.7544440     2.2203260     1.2670250
  H        2.3864280     2.6245280     0.7070350
  H        3.3561510    -2.1272050    -0.4162310
  H       -2.8304840     2.0415190    -0.7796900
  H       -3.1684390    -1.9801170     0.7461500
  H       -4.3226790     0.1358530    -0.0311710
units angstrom
no_reorient  #important for SAPT in psi4, default
symmetry c1  #important for SAPT in psi4, default
}

set PROPERTIES_ORIGIN ["COM"]
properties('MP2/aug-cc-pvtz', properties = ['dipole'])
--------------------------------------------------------------------------

    Molecular point group: c1
  Charge       = 0
  Multiplicity = 1
  Basis Set: AUG-CC-PVTZ
    Blend: AUG-CC-PVTZ
  Basis Set: (AUG-CC-PVTZ AUX)
    Blend: AUG-CC-PVTZ-JKFIT

    Orbital Energies [Eh]
    ---------------------

    Doubly Occupied:

       1A    -15.640495     2A    -15.584076     3A    -15.580349
       4A    -15.580194     5A    -11.364616     6A    -11.314950
       7A    -11.312749     8A    -11.285142     9A    -11.257562
      10A    -11.253117    11A    -11.232927    12A    -11.215776
      13A     -1.383529    14A     -1.302012    15A     -1.190961
      16A     -1.126735    17A     -1.082979    18A     -1.045385
      19A     -0.957015    20A     -0.919106    21A     -0.890056
      22A     -0.804157    23A     -0.793354    24A     -0.712468
      25A     -0.702856    26A     -0.681145    27A     -0.642742
      28A     -0.634060    29A     -0.615481    30A     -0.591515
      31A     -0.586735    32A     -0.571082    33A     -0.561539
      34A     -0.549029    35A     -0.533679    36A     -0.482960
      37A     -0.453469    38A     -0.421678    39A     -0.418368
      40A     -0.408824    41A     -0.338485    42A     -0.330948

  @DF-RHF Final Energy:  -525.52748250842296

   => Energetics <=

    Nuclear Repulsion Energy =            656.2077703945817575
    One-Electron Energy =               -2014.7618959472472397
    Two-Electron Energy =                 833.0266430442425190
    Total Energy =                       -525.5274825084229633
  Basis Set: (AUG-CC-PVTZ AUX)
    Blend: AUG-CC-PVTZ-RI
    Molecular point group: c1

    Geometry (in Angstrom), charge = 0, multiplicity = 1:

       Center              X                  Y                   Z               Mass
    ------------   -----------------  -----------------  -----------------  -----------------
         N            0.829199207487    -0.265235303729    -0.035832496140    14.003074004430
         N            1.371646207487    -1.492586303729    -0.264911496140    14.003074004430
         N           -1.068682792513     1.021347696271    -0.451577496140    14.003074004430
         N           -1.255529792513    -1.209403303729     0.431274503860    14.003074004430
         C            1.772815207487     0.728897696271     0.135767503860    12.000000000000
         C            2.991714207487     0.087003696271     0.010151503860    12.000000000000
         C           -0.577250792513    -0.145727303729    -0.016302496140    12.000000000000
         C            1.467041207487     2.158493696271     0.440206503860    12.000000000000
         C            2.692490207487    -1.265492303729    -0.237770496140    12.000000000000
         C           -2.488340392513     1.178167496271    -0.447411796140    12.000000000000
         C           -2.590816792513    -1.083734303729     0.405781503860    12.000000000000
         C           -3.228362792513     0.080709696271    -0.019077496140    12.000000000000
         H            3.965961207487     0.548710696271     0.101470503860     1.007825032230
         H            1.026291207487     2.672493696271    -0.415917496140     1.007825032230
         H            0.767546207487     2.254114696271     1.275560503860     1.007825032230
         H            2.399530207487     2.658316696271     0.715570503860     1.007825032230
         H            3.369253207487    -2.093416303729    -0.407695496140     1.007825032230
         H           -2.817381792513     2.075307696271    -0.771154496140     1.007825032230
         H           -3.155336792513    -1.946328303729     0.754685503860     1.007825032230
         H           -4.309576792513     0.169641696271    -0.022635496140     1.007825032230

  Basis Set: AUG-CC-PVTZ
    Blend: AUG-CC-PVTZ
  Basis Set: (AUG-CC-PVTZ AUX)
    Blend: AUG-CC-PVTZ-JKFIT
	 Reference Energy          =    -525.5274825084229633 [Eh]
	 Singles Energy            =      -0.0000000000000000 [Eh]
	 Same-Spin Energy          =      -0.5784040532761097 [Eh]
	 Opposite-Spin Energy      =      -1.7414968537892379 [Eh]
	 Correlation Energy        =      -2.3199009070653478 [Eh]
	 Total Energy              =    -527.8473834154883662 [Eh]

	 ================> DF-SCS-MP2 Energies <==================
	-----------------------------------------------------------
	 SCS Same-Spin Scale       =       0.3333333333333333 [-]
	 SCS Opposite-Spin Scale   =       1.2000000000000000 [-]
	 SCS Same-Spin Energy      =      -0.1928013510920366 [Eh]
	 SCS Opposite-Spin Energy  =      -2.0897962245470856 [Eh]
	 SCS Correlation Energy    =      -2.2825975756391221 [Eh]
	 SCS Total Energy          =    -527.8100800840620650 [Eh]
	-----------------------------------------------------------

  Dipole Moment: [D]
     X:    -2.7441      Y:     2.6069      Z:     0.4260     Total:     3.8088

*** Psi4 exiting successfully. Buy a developer a beer!
