                               Psi4 1.3.2 release

  ==> Input File <==

--------------------------------------------------------------------------
#psi4
#
memory 32 gb

molecule  {
0 1
  N        0.8160970    -0.2990240    -0.0443680
  N        1.3585440    -1.5263750    -0.2734470
  N       -1.0817850     0.9875590    -0.4601130
  N       -1.2686320    -1.2431920     0.4227390
  C        1.7597130     0.6951090     0.1272320
  C        2.9786120     0.0532150     0.0016160
  C       -0.5903530    -0.1795160    -0.0248380
  C        1.4539390     2.1247050     0.4316710
  C        2.6793880    -1.2992810    -0.2463060
  C       -2.4210880     1.0928180    -0.4382200
  C       -2.6039190    -1.1175230     0.3972460
  C       -3.2414650     0.0469210    -0.0276130
  H        3.9528590     0.5149220     0.0929350
  H        1.0131890     2.6387050    -0.4244530
  H        0.7544440     2.2203260     1.2670250
  H        2.3864280     2.6245280     0.7070350
  H        3.3561510    -2.1272050    -0.4162310
  H       -2.7552432     1.8671620    -0.7169329
  H       -3.1684390    -1.9801170     0.7461500
  H       -4.3226790     0.1358530    -0.0311710
units angstrom
no_reorient  #important for SAPT in psi4, default
symmetry c1  #important for SAPT in psi4, default
}

set PROPERTIES_ORIGIN ["COM"]
properties('MP2/aug-cc-pvtz', properties = ['dipole'])
--------------------------------------------------------------------------

    Molecular point group: c1
  Charge       = 0
  Multiplicity = 1
  Basis Set: AUG-CC-PVTZ
    Blend: AUG-CC-PVTZ
  Basis Set: (AUG-CC-PVTZ AUX)
    Blend: AUG-CC-PVTZ-JKFIT

    Orbital Energies [Eh]
    ---------------------

    Doubly Occupied:

       1A    -15.641694     2A    -15.581365     3A    -15.581173
       4A    -15.578615     5A    -11.366286     6A    -11.308759
       7A    -11.288563     8A    -11.286449     9A    -11.254241
      10A    -11.251777    11A    -11.234518    12A    -11.217053
      13A     -1.385919    14A     -1.312415    15A     -1.207361
      16A     -1.131030    17A     -1.084208    18A     -1.046856
      19A     -0.958637    20A     -0.930954    21A     -0.896894
      22A     -0.812705    23A     -0.795557    24A     -0.722673
      25A     -0.707853    26A     -0.683824    27A     -0.646854
      28A     -0.637793    29A     -0.614666    30A     -0.593165
      31A     -0.587727    32A     -0.575123    33A     -0.563713
      34A     -0.552401    35A     -0.535660    36A     -0.491096
      37A     -0.455105    38A     -0.430146    39A     -0.421350
      40A     -0.407334    41A     -0.337608    42A     -0.332112

  @DF-RHF Final Energy:  -525.50908782777412

   => Energetics <=

    Nuclear Repulsion Energy =            659.5009593302265785
    One-Electron Energy =               -2021.1216364973893178
    Two-Electron Energy =                 836.1115893393886154
    Total Energy =                       -525.5090878277741240
  Basis Set: (AUG-CC-PVTZ AUX)
    Blend: AUG-CC-PVTZ-RI
    Molecular point group: c1

    Geometry (in Angstrom), charge = 0, multiplicity = 1:

       Center              X                  Y                   Z               Mass
    ------------   -----------------  -----------------  -----------------  -----------------
         N            0.822701719212    -0.260272308483    -0.037556537715    14.003074004430
         N            1.365148719212    -1.487623308483    -0.266635537715    14.003074004430
         N           -1.075180280788     1.026310691517    -0.453301537715    14.003074004430
         N           -1.262027280788    -1.204440308483     0.429550462285    14.003074004430
         C            1.766317719212     0.733860691517     0.134043462285    12.000000000000
         C            2.985216719212     0.091966691517     0.008427462285    12.000000000000
         C           -0.583748280788    -0.140764308483    -0.018026537715    12.000000000000
         C            1.460543719212     2.163456691517     0.438482462285    12.000000000000
         C            2.685992719212    -1.260529308483    -0.239494537715    12.000000000000
         C           -2.414483280788     1.131569691517    -0.431408537715    12.000000000000
         C           -2.597314280788    -1.078771308483     0.404057462285    12.000000000000
         C           -3.234860280788     0.085672691517    -0.020801537715    12.000000000000
         H            3.959463719212     0.553673691517     0.099746462285     1.007825032230
         H            1.019793719212     2.677456691517    -0.417641537715     1.007825032230
         H            0.761048719212     2.259077691517     1.273836462285     1.007825032230
         H            2.393032719212     2.663279691517     0.713846462285     1.007825032230
         H            3.362755719212    -2.088453308483    -0.409419537715     1.007825032230
         H           -2.748638480788     1.905913691517    -0.710121437715     1.007825032230
         H           -3.161834280788    -1.941365308483     0.752961462285     1.007825032230
         H           -4.316074280788     0.174604691517    -0.024359537715     1.007825032230

  Basis Set: AUG-CC-PVTZ
    Blend: AUG-CC-PVTZ
  Basis Set: (AUG-CC-PVTZ AUX)
    Blend: AUG-CC-PVTZ-JKFIT
	 Reference Energy          =    -525.5090878277741240 [Eh]
	 Singles Energy            =      -0.0000000000000000 [Eh]
	 Same-Spin Energy          =      -0.5773587253285575 [Eh]
	 Opposite-Spin Energy      =      -1.7380764617964031 [Eh]
	 Correlation Energy        =      -2.3154351871249608 [Eh]
	 Total Energy              =    -527.8245230148991141 [Eh]

	 ================> DF-SCS-MP2 Energies <==================
	-----------------------------------------------------------
	 SCS Same-Spin Scale       =       0.3333333333333333 [-]
	 SCS Opposite-Spin Scale   =       1.2000000000000000 [-]
	 SCS Same-Spin Energy      =      -0.1924529084428525 [Eh]
	 SCS Opposite-Spin Energy  =      -2.0856917541556834 [Eh]
	 SCS Correlation Energy    =      -2.2781446625985358 [Eh]
	 SCS Total Energy          =    -527.7872324903726167 [Eh]
	-----------------------------------------------------------

  Dipole Moment: [D]
     X:    -2.6212      Y:     2.5597      Z:     0.4395     Total:     3.6900

*** Psi4 exiting successfully. Buy a developer a beer!
