                               Psi4 1.3.2 release

  ==> Input File <==

--------------------------------------------------------------------------
#psi4
#
memory 32 gb

molecule  {
0 1
  N        0.8160970    -0.2990240    -0.0443680
  N        1.3585440    -1.5263750    -0.2734470
  N       -1.0817850     0.9875590    -0.4601130
  N       -1.2686320    -1.2431920     0.4227390
  C        1.7597130     0.6951090     0.1272320
  C        2.9786120     0.0532150     0.0016160
  C       -0.5903530    -0.1795160    -0.0248380
  C        1.4539390     2.1247050     0.4316710
  C        2.6793880    -1.2992810    -0.2463060
  C       -2.3081671     1.0060080    -0.4079079
  C       -2.6039190    -1.1175230     0.3972460
  C       -3.2414650     0.0469210    -0.0276130
  H        3.9528590     0.5149220     0.0929350
  H        1.0131890     2.6387050    -0.4244530
  H        0.7544440     2.2203260     1.2670250
  H        2.3864280     2.6245280     0.7070350
  H        3.3561510    -2.1272050    -0.4162310
  H       -2.8304840     2.0415190    -0.7796900
  H       -3.1684390    -1.9801170     0.7461500
  H       -4.3226790     0.1358530    -0.0311710
units angstrom
no_reorient  #important for SAPT in psi4, default
symmetry c1  #important for SAPT in psi4, default
}

set PROPERTIES_ORIGIN ["COM"]
properties('MP2/aug-cc-pvtz', properties = ['dipole'])
--------------------------------------------------------------------------

    Molecular point group: c1
  Charge       = 0
  Multiplicity = 1
  Basis Set: AUG-CC-PVTZ
    Blend: AUG-CC-PVTZ
  Basis Set: (AUG-CC-PVTZ AUX)
    Blend: AUG-CC-PVTZ-JKFIT

    Orbital Energies [Eh]
    ---------------------

    Doubly Occupied:

       1A    -15.645297     2A    -15.583949     3A    -15.580063
       4A    -15.578097     5A    -11.373073     6A    -11.308231
       7A    -11.306095     8A    -11.289756     9A    -11.257283
      10A    -11.249578    11A    -11.237880    12A    -11.220202
      13A     -1.394375    14A     -1.338862    15A     -1.228730
      16A     -1.133633    17A     -1.086922    18A     -1.045992
      19A     -0.962069    20A     -0.909698    21A     -0.897573
      22A     -0.800609    23A     -0.798289    24A     -0.719952
      25A     -0.709261    26A     -0.686069    27A     -0.645605
      28A     -0.630984    29A     -0.605606    30A     -0.591863
      31A     -0.586546    32A     -0.569447    33A     -0.560157
      34A     -0.558537    35A     -0.538409    36A     -0.499929
      37A     -0.457508    38A     -0.448051    39A     -0.413447
      40A     -0.407373    41A     -0.338301    42A     -0.335068

  @DF-RHF Final Energy:  -525.51888482163315

   => Energetics <=

    Nuclear Repulsion Energy =            661.6482719607649869
    One-Electron Energy =               -2025.2775712050913626
    Two-Electron Energy =                 838.1104144226932249
    Total Energy =                       -525.5188848216331508
  Basis Set: (AUG-CC-PVTZ AUX)
    Blend: AUG-CC-PVTZ-RI
    Molecular point group: c1

    Geometry (in Angstrom), charge = 0, multiplicity = 1:

       Center              X                  Y                   Z               Mass
    ------------   -----------------  -----------------  -----------------  -----------------
         N            0.814710327257    -0.254862349326    -0.039433765379    14.003074004430
         N            1.357157327257    -1.482213349326    -0.268512765379    14.003074004430
         N           -1.083171672743     1.031720650674    -0.455178765379    14.003074004430
         N           -1.270018672743    -1.199030349326     0.427673234621    14.003074004430
         C            1.758326327257     0.739270650674     0.132166234621    12.000000000000
         C            2.977225327257     0.097376650674     0.006550234621    12.000000000000
         C           -0.591739672743    -0.135354349326    -0.019903765379    12.000000000000
         C            1.452552327257     2.168866650674     0.436605234621    12.000000000000
         C            2.678001327257    -1.255119349326    -0.241371765379    12.000000000000
         C           -2.309553772743     1.050169650674    -0.402973665379    12.000000000000
         C           -2.605305672743    -1.073361349326     0.402180234621    12.000000000000
         C           -3.242851672743     0.091082650674    -0.022678765379    12.000000000000
         H            3.951472327257     0.559083650674     0.097869234621     1.007825032230
         H            1.011802327257     2.682866650674    -0.419518765379     1.007825032230
         H            0.753057327257     2.264487650674     1.271959234621     1.007825032230
         H            2.385041327257     2.668689650674     0.711969234621     1.007825032230
         H            3.354764327257    -2.083043349326    -0.411296765379     1.007825032230
         H           -2.831870672743     2.085680650674    -0.774755765379     1.007825032230
         H           -3.169825672743    -1.935955349326     0.751084234621     1.007825032230
         H           -4.324065672743     0.180014650674    -0.026236765379     1.007825032230

  Basis Set: AUG-CC-PVTZ
    Blend: AUG-CC-PVTZ
  Basis Set: (AUG-CC-PVTZ AUX)
    Blend: AUG-CC-PVTZ-JKFIT
	 Reference Energy          =    -525.5188848216331508 [Eh]
	 Singles Energy            =      -0.0000000000000000 [Eh]
	 Same-Spin Energy          =      -0.5769538561885836 [Eh]
	 Opposite-Spin Energy      =      -1.7372520081477234 [Eh]
	 Correlation Energy        =      -2.3142058643363068 [Eh]
	 Total Energy              =    -527.8330906859694096 [Eh]

	 ================> DF-SCS-MP2 Energies <==================
	-----------------------------------------------------------
	 SCS Same-Spin Scale       =       0.3333333333333333 [-]
	 SCS Opposite-Spin Scale   =       1.2000000000000000 [-]
	 SCS Same-Spin Energy      =      -0.1923179520628612 [Eh]
	 SCS Opposite-Spin Energy  =      -2.0847024097772682 [Eh]
	 SCS Correlation Energy    =      -2.2770203618401292 [Eh]
	 SCS Total Energy          =    -527.7959051834732236 [Eh]
	-----------------------------------------------------------

  Dipole Moment: [D]
     X:    -2.2159      Y:     2.3419      Z:     0.5101     Total:     3.2642

*** Psi4 exiting successfully. Buy a developer a beer!
