                               Psi4 1.3.2 release

  ==> Input File <==

--------------------------------------------------------------------------
#psi4
#
memory 32 gb

molecule  {
0 1
  N        0.8160970    -0.2990240    -0.0443680
  N        1.3585440    -1.5263750    -0.2734470
  N       -1.0817850     0.9875590    -0.4601130
  N       -1.2686320    -1.2431920     0.4227390
  C        1.7597130     0.6951090     0.1272320
  C        2.9545742     0.0580504     0.0030326
  C       -0.5903530    -0.1795160    -0.0248380
  C        1.4539390     2.1247050     0.4316710
  C        2.6793880    -1.2992810    -0.2463060
  C       -2.4210880     1.0928180    -0.4382200
  C       -2.6039190    -1.1175230     0.3972460
  C       -3.2414650     0.0469210    -0.0276130
  H        3.9528590     0.5149220     0.0929350
  H        1.0131890     2.6387050    -0.4244530
  H        0.7544440     2.2203260     1.2670250
  H        2.3864280     2.6245280     0.7070350
  H        3.3561510    -2.1272050    -0.4162310
  H       -2.8304840     2.0415190    -0.7796900
  H       -3.1684390    -1.9801170     0.7461500
  H       -4.3226790     0.1358530    -0.0311710
units angstrom
no_reorient  #important for SAPT in psi4, default
symmetry c1  #important for SAPT in psi4, default
}

set PROPERTIES_ORIGIN ["COM"]
properties('MP2/aug-cc-pvtz', properties = ['dipole'])
--------------------------------------------------------------------------

    Molecular point group: c1
  Charge       = 0
  Multiplicity = 1
  Basis Set: AUG-CC-PVTZ
    Blend: AUG-CC-PVTZ
  Basis Set: (AUG-CC-PVTZ AUX)
    Blend: AUG-CC-PVTZ-JKFIT

    Orbital Energies [Eh]
    ---------------------

    Doubly Occupied:

       1A    -15.640597     2A    -15.582677     3A    -15.581869
       4A    -15.578107     5A    -11.366826     6A    -11.311159
       7A    -11.309112     8A    -11.283105     9A    -11.254395
      10A    -11.252205    11A    -11.234426    12A    -11.216450
      13A     -1.386855    14A     -1.312593    15A     -1.205578
      16A     -1.129360    17A     -1.086713    18A     -1.045116
      19A     -0.959203    20A     -0.908738    21A     -0.895822
      22A     -0.801392    23A     -0.793056    24A     -0.713376
      25A     -0.707694    26A     -0.682671    27A     -0.638547
      28A     -0.632549    29A     -0.605815    30A     -0.588638
      31A     -0.586090    32A     -0.575045    33A     -0.560627
      34A     -0.552550    35A     -0.540227    36A     -0.491343
      37A     -0.454861    38A     -0.430153    39A     -0.419810
      40A     -0.407737    41A     -0.337356    42A     -0.335735

  @DF-RHF Final Energy:  -525.54341845019587

   => Energetics <=

    Nuclear Repulsion Energy =            658.8227717884445838
    One-Electron Energy =               -2019.9400190936833042
    Two-Electron Energy =                 835.5738288550429615
    Total Energy =                       -525.5434184501958725
  Basis Set: (AUG-CC-PVTZ AUX)
    Blend: AUG-CC-PVTZ-RI
    Molecular point group: c1

    Geometry (in Angstrom), charge = 0, multiplicity = 1:

       Center              X                  Y                   Z               Mass
    ------------   -----------------  -----------------  -----------------  -----------------
         N            0.824977423711    -0.261732538379    -0.037267616857    14.003074004430
         N            1.367424423711    -1.489083538379    -0.266346616857    14.003074004430
         N           -1.072904576289     1.024850461621    -0.453012616857    14.003074004430
         N           -1.259751576289    -1.205900538379     0.429839383143    14.003074004430
         C            1.768593423711     0.732400461621     0.134332383143    12.000000000000
         C            2.963454623711     0.095341861621     0.010132983143    12.000000000000
         C           -0.581472576289    -0.142224538379    -0.017737616857    12.000000000000
         C            1.462819423711     2.161996461621     0.438771383143    12.000000000000
         C            2.688268423711    -1.261989538379    -0.239205616857    12.000000000000
         C           -2.412207576289     1.130109461621    -0.431119616857    12.000000000000
         C           -2.595038576289    -1.080231538379     0.404346383143    12.000000000000
         C           -3.232584576289     0.084212461621    -0.020512616857    12.000000000000
         H            3.961739423711     0.552213461621     0.100035383143     1.007825032230
         H            1.022069423711     2.675996461621    -0.417352616857     1.007825032230
         H            0.763324423711     2.257617461621     1.274125383143     1.007825032230
         H            2.395308423711     2.661819461621     0.714135383143     1.007825032230
         H            3.365031423711    -2.089913538379    -0.409130616857     1.007825032230
         H           -2.821603576289     2.078810461621    -0.772589616857     1.007825032230
         H           -3.159558576289    -1.942825538379     0.753250383143     1.007825032230
         H           -4.313798576289     0.173144461621    -0.024070616857     1.007825032230

  Basis Set: AUG-CC-PVTZ
    Blend: AUG-CC-PVTZ
  Basis Set: (AUG-CC-PVTZ AUX)
    Blend: AUG-CC-PVTZ-JKFIT
	 Reference Energy          =    -525.5434184501958725 [Eh]
	 Singles Energy            =      -0.0000000000000000 [Eh]
	 Same-Spin Energy          =      -0.5773737987043386 [Eh]
	 Opposite-Spin Energy      =      -1.7383369466642609 [Eh]
	 Correlation Energy        =      -2.3157107453685994 [Eh]
	 Total Energy              =    -527.8591291955644920 [Eh]

	 ================> DF-SCS-MP2 Energies <==================
	-----------------------------------------------------------
	 SCS Same-Spin Scale       =       0.3333333333333333 [-]
	 SCS Opposite-Spin Scale   =       1.2000000000000000 [-]
	 SCS Same-Spin Energy      =      -0.1924579329014462 [Eh]
	 SCS Opposite-Spin Energy  =      -2.0860043359971128 [Eh]
	 SCS Correlation Energy    =      -2.2784622688985587 [Eh]
	 SCS Total Energy          =    -527.8218807190944517 [Eh]
	-----------------------------------------------------------

  Dipole Moment: [D]
     X:    -2.5322      Y:     2.5418      Z:     0.4368     Total:     3.6144

*** Psi4 exiting successfully. Buy a developer a beer!
