                               Psi4 1.3.2 release

  ==> Input File <==

--------------------------------------------------------------------------
#psi4
#
memory 32 gb

molecule  {
0 1
  N        0.8160970    -0.2990240    -0.0443680
  N        1.3585440    -1.5263750    -0.2734470
  N       -1.0817850     0.9875590    -0.4601130
  N       -1.2686320    -1.2431920     0.4227390
  C        1.7597130     0.6951090     0.1272320
  C        2.9786120     0.0532150     0.0016160
  C       -0.5903530    -0.1795160    -0.0248380
  C        1.4539390     2.1247050     0.4316710
  C        2.6793880    -1.2992810    -0.2463060
  C       -2.3214086     1.0849840    -0.4398494
  C       -2.6039190    -1.1175230     0.3972460
  C       -3.2414650     0.0469210    -0.0276130
  H        3.9528590     0.5149220     0.0929350
  H        1.0131890     2.6387050    -0.4244530
  H        0.7544440     2.2203260     1.2670250
  H        2.3864280     2.6245280     0.7070350
  H        3.3561510    -2.1272050    -0.4162310
  H       -2.8304840     2.0415190    -0.7796900
  H       -3.1684390    -1.9801170     0.7461500
  H       -4.3226790     0.1358530    -0.0311710
units angstrom
no_reorient  #important for SAPT in psi4, default
symmetry c1  #important for SAPT in psi4, default
}

set PROPERTIES_ORIGIN ["COM"]
properties('MP2/aug-cc-pvtz', properties = ['dipole'])
--------------------------------------------------------------------------

    Molecular point group: c1
  Charge       = 0
  Multiplicity = 1
  Basis Set: AUG-CC-PVTZ
    Blend: AUG-CC-PVTZ
  Basis Set: (AUG-CC-PVTZ AUX)
    Blend: AUG-CC-PVTZ-JKFIT

    Orbital Energies [Eh]
    ---------------------

    Doubly Occupied:

       1A    -15.644546     2A    -15.583132     3A    -15.580017
       4A    -15.577130     5A    -11.371491     6A    -11.311174
       7A    -11.302870     8A    -11.288805     9A    -11.256376
      10A    -11.252844    11A    -11.237230    12A    -11.219320
      13A     -1.391119    14A     -1.330102    15A     -1.224572
      16A     -1.130579    17A     -1.084679    18A     -1.037479
      19A     -0.961280    20A     -0.910414    21A     -0.895573
      22A     -0.801121    23A     -0.798013    24A     -0.717574
      25A     -0.707659    26A     -0.681940    27A     -0.642860
      28A     -0.633150    29A     -0.606632    30A     -0.590833
      31A     -0.584979    32A     -0.577812    33A     -0.566023
      34A     -0.557002    35A     -0.537865    36A     -0.493721
      37A     -0.456475    38A     -0.445716    39A     -0.414601
      40A     -0.402932    41A     -0.334975    42A     -0.333553

  @DF-RHF Final Energy:  -525.53312173619668

   => Energetics <=

    Nuclear Repulsion Energy =            660.0067372008629718
    One-Electron Energy =               -2022.1273767291311287
    Two-Electron Energy =                 836.5875177920714805
    Total Energy =                       -525.5331217361966765
  Basis Set: (AUG-CC-PVTZ AUX)
    Blend: AUG-CC-PVTZ-RI
    Molecular point group: c1

    Geometry (in Angstrom), charge = 0, multiplicity = 1:

       Center              X                  Y                   Z               Mass
    ------------   -----------------  -----------------  -----------------  -----------------
         N            0.815702975097    -0.260782777964    -0.037039273745    14.003074004430
         N            1.358149975097    -1.488133777964    -0.266118273745    14.003074004430
         N           -1.082179024903     1.025800222036    -0.452784273745    14.003074004430
         N           -1.269026024903    -1.204950777964     0.430067726255    14.003074004430
         C            1.759318975097     0.733350222036     0.134560726255    12.000000000000
         C            2.978217975097     0.091456222036     0.008944726255    12.000000000000
         C           -0.590747024903    -0.141274777964    -0.017509273745    12.000000000000
         C            1.453544975097     2.162946222036     0.438999726255    12.000000000000
         C            2.678993975097    -1.261039777964    -0.238977273745    12.000000000000
         C           -2.321802624903     1.123225222036    -0.432520673745    12.000000000000
         C           -2.604313024903    -1.079281777964     0.404574726255    12.000000000000
         C           -3.241859024903     0.085162222036    -0.020284273745    12.000000000000
         H            3.952464975097     0.553163222036     0.100263726255     1.007825032230
         H            1.012794975097     2.676946222036    -0.417124273745     1.007825032230
         H            0.754049975097     2.258567222036     1.274353726255     1.007825032230
         H            2.386033975097     2.662769222036     0.714363726255     1.007825032230
         H            3.355756975097    -2.088963777964    -0.408902273745     1.007825032230
         H           -2.830878024903     2.079760222036    -0.772361273745     1.007825032230
         H           -3.168833024903    -1.941875777964     0.753478726255     1.007825032230
         H           -4.323073024903     0.174094222036    -0.023842273745     1.007825032230

  Basis Set: AUG-CC-PVTZ
    Blend: AUG-CC-PVTZ
  Basis Set: (AUG-CC-PVTZ AUX)
    Blend: AUG-CC-PVTZ-JKFIT
	 Reference Energy          =    -525.5331217361966765 [Eh]
	 Singles Energy            =      -0.0000000000000000 [Eh]
	 Same-Spin Energy          =      -0.5767940791890607 [Eh]
	 Opposite-Spin Energy      =      -1.7371547220030714 [Eh]
	 Correlation Energy        =      -2.3139488011921321 [Eh]
	 Total Energy              =    -527.8470705373888450 [Eh]

	 ================> DF-SCS-MP2 Energies <==================
	-----------------------------------------------------------
	 SCS Same-Spin Scale       =       0.3333333333333333 [-]
	 SCS Opposite-Spin Scale   =       1.2000000000000000 [-]
	 SCS Same-Spin Energy      =      -0.1922646930630202 [Eh]
	 SCS Opposite-Spin Energy  =      -2.0845856664036857 [Eh]
	 SCS Correlation Energy    =      -2.2768503594667058 [Eh]
	 SCS Total Energy          =    -527.8099720956633973 [Eh]
	-----------------------------------------------------------

  Dipole Moment: [D]
     X:    -2.3447      Y:     2.5745      Z:     0.4225     Total:     3.5078

*** Psi4 exiting successfully. Buy a developer a beer!
