                               Psi4 1.4a3.dev225

  ==> Input File <==

--------------------------------------------------------------------------
#psi4
#
memory 32 gb

molecule  {
0 1
  N        0.8160970    -0.2990240    -0.0443680
  N        1.3585440    -1.5263750    -0.2734470
  N       -1.0817850     0.9875590    -0.4601130
  N       -1.2686320    -1.2431920     0.4227390
  C        1.7597130     0.6951090     0.1272320
  C        2.9786120     0.0532150     0.0016160
  C       -0.5903530    -0.1795160    -0.0248380
  C        1.4539390     2.1247050     0.4316710
  C        2.6793880    -1.2992810    -0.2463060
  C       -2.4210880     1.0928180    -0.4382200
  C       -2.6039190    -1.1175230     0.3972460
  C       -3.2414650     0.0469210    -0.0276130
  H        3.9528590     0.5149220     0.0929350
  H        1.0131890     2.6387050    -0.4244530
  H        0.7544440     2.2203260     1.2670250
  H        2.3864280     2.6245280     0.7070350
  H        3.3561510    -2.1272050    -0.4162310
  H       -2.8304840     2.0415190    -0.7796900
  H       -3.1684390    -1.9801170     0.7461500
  H       -4.3027464     0.1342135    -0.0311054
units angstrom
no_reorient  #important for SAPT in psi4, default
symmetry c1  #important for SAPT in psi4, default
}

set PROPERTIES_ORIGIN ["COM"]
properties('MP2/aug-cc-pvtz', properties = ['dipole'])
--------------------------------------------------------------------------

    Molecular point group: c1
  Charge       = 0
  Multiplicity = 1
  Basis Set: AUG-CC-PVTZ
    Blend: AUG-CC-PVTZ
  Basis Set: (AUG-CC-PVTZ AUX)
    Blend: AUG-CC-PVTZ-JKFIT

    Orbital Energies [Eh]
    ---------------------

    Doubly Occupied:

       1A    -15.642072     2A    -15.582293     3A    -15.581422
       4A    -15.578522     5A    -11.367319     6A    -11.311380
       7A    -11.309333     8A    -11.286702     9A    -11.254496
      10A    -11.250425    11A    -11.234668    12A    -11.217276
      13A     -1.386270    14A     -1.312450    15A     -1.205917
      16A     -1.129475    17A     -1.084275    18A     -1.045608
      19A     -0.958763    20A     -0.908975    21A     -0.897203
      22A     -0.800123    23A     -0.795208    24A     -0.713414
      25A     -0.707904    26A     -0.684529    27A     -0.638354
      28A     -0.635283    29A     -0.607066    30A     -0.589621
      31A     -0.586597    32A     -0.575071    33A     -0.563992
      34A     -0.552639    35A     -0.535920    36A     -0.492082
      37A     -0.455041    38A     -0.430404    39A     -0.420129
      40A     -0.407654    41A     -0.338000    42A     -0.332336

  @DF-RHF Final Energy:  -525.54375383931665

   => Energetics <=

    Nuclear Repulsion Energy =            658.3828147113920295
    One-Electron Energy =               -2019.0407145303283869
    Two-Electron Energy =                 835.1141459796197068
    Total Energy =                       -525.5437538393166506
  Basis Set: (AUG-CC-PVTZ AUX)
    Blend: AUG-CC-PVTZ-RI
    Molecular point group: c1

    Geometry (in Angstrom), charge = 0, multiplicity = 1:

       Center              X                  Y                   Z               Mass
    ------------   -----------------  -----------------  -----------------  -----------------
         N            0.823049937388    -0.261359730834    -0.037161834582    14.003074004430
         N            1.365496937388    -1.488710730834    -0.266240834582    14.003074004430
         N           -1.074832062612     1.025223269166    -0.452906834582    14.003074004430
         N           -1.261679062612    -1.205527730834     0.429945165418    14.003074004430
         C            1.766665937388     0.732773269166     0.134438165418    12.000000000000
         C            2.985564937388     0.090879269166     0.008822165418    12.000000000000
         C           -0.583400062612    -0.141851730834    -0.017631834582    12.000000000000
         C            1.460891937388     2.162369269166     0.438877165418    12.000000000000
         C            2.686340937388    -1.261616730834    -0.239099834582    12.000000000000
         C           -2.414135062612     1.130482269166    -0.431013834582    12.000000000000
         C           -2.596966062612    -1.079858730834     0.404452165418    12.000000000000
         C           -3.234512062612     0.084585269166    -0.020406834582    12.000000000000
         H            3.959811937388     0.552586269166     0.100141165418     1.007825032230
         H            1.020141937388     2.676369269166    -0.417246834582     1.007825032230
         H            0.761396937388     2.257990269166     1.274231165418     1.007825032230
         H            2.393380937388     2.662192269166     0.714241165418     1.007825032230
         H            3.363103937388    -2.089540730834    -0.409024834582     1.007825032230
         H           -2.823531062612     2.079183269166    -0.772483834582     1.007825032230
         H           -3.161486062612    -1.942452730834     0.753356165418     1.007825032230
         H           -4.295793462612     0.171877769166    -0.023899234582     1.007825032230

  Basis Set: AUG-CC-PVTZ
    Blend: AUG-CC-PVTZ
  Basis Set: (AUG-CC-PVTZ AUX)
    Blend: AUG-CC-PVTZ-JKFIT
	 Reference Energy          =    -525.5437538393166506 [Eh]
	 Singles Energy            =      -0.0000000000000000 [Eh]
	 Same-Spin Energy          =      -0.5775224382272192 [Eh]
	 Opposite-Spin Energy      =      -1.7385082310499449 [Eh]
	 Correlation Energy        =      -2.3160306692771639 [Eh]
	 Total Energy              =    -527.8597845085938616 [Eh]

	 ================> DF-SCS-MP2 Energies <==================
	-----------------------------------------------------------
	 SCS Same-Spin Scale       =       0.3333333333333333 [-]
	 SCS Opposite-Spin Scale   =       1.2000000000000000 [-]
	 SCS Same-Spin Energy      =      -0.1925074794090730 [Eh]
	 SCS Opposite-Spin Energy  =      -2.0862098772599338 [Eh]
	 SCS Correlation Energy    =      -2.2787173566690067 [Eh]
	 SCS Total Energy          =    -527.8224711959857132 [Eh]
	-----------------------------------------------------------

  Dipole Moment: [D]
     X:    -2.5827      Y:     2.5552      Z:     0.4398     Total:     3.6596

*** Psi4 exiting successfully. Buy a developer a beer!
