                               Psi4 1.3.2 release

  ==> Input File <==

--------------------------------------------------------------------------
#psi4
#
memory 32 gb

molecule  {
0 1
  N        0.9267119    -0.3905014    -0.0617584
  N        1.3585440    -1.5263750    -0.2734470
  N       -1.0817850     0.9875590    -0.4601130
  N       -1.2686320    -1.2431920     0.4227390
  C        1.7597130     0.6951090     0.1272320
  C        2.9786120     0.0532150     0.0016160
  C       -0.5903530    -0.1795160    -0.0248380
  C        1.4539390     2.1247050     0.4316710
  C        2.6793880    -1.2992810    -0.2463060
  C       -2.4210880     1.0928180    -0.4382200
  C       -2.6039190    -1.1175230     0.3972460
  C       -3.2414650     0.0469210    -0.0276130
  H        3.9528590     0.5149220     0.0929350
  H        1.0131890     2.6387050    -0.4244530
  H        0.7544440     2.2203260     1.2670250
  H        2.3864280     2.6245280     0.7070350
  H        3.3561510    -2.1272050    -0.4162310
  H       -2.8304840     2.0415190    -0.7796900
  H       -3.1684390    -1.9801170     0.7461500
  H       -4.3226790     0.1358530    -0.0311710
units angstrom
no_reorient  #important for SAPT in psi4, default
symmetry c1  #important for SAPT in psi4, default
}

set PROPERTIES_ORIGIN ["COM"]
properties('MP2/aug-cc-pvtz', properties = ['dipole'])
--------------------------------------------------------------------------

    Molecular point group: c1
  Charge       = 0
  Multiplicity = 1
  Basis Set: AUG-CC-PVTZ
    Blend: AUG-CC-PVTZ
  Basis Set: (AUG-CC-PVTZ AUX)
    Blend: AUG-CC-PVTZ-JKFIT

    Orbital Energies [Eh]
    ---------------------

    Doubly Occupied:

       1A    -15.653124     2A    -15.591953     3A    -15.586101
       4A    -15.578198     5A    -11.374855     6A    -11.317352
       7A    -11.314261     8A    -11.271158     9A    -11.259651
      10A    -11.236900    11A    -11.235503    12A    -11.211985
      13A     -1.431042    14A     -1.325344    15A     -1.211183
      16A     -1.114373    17A     -1.092379    18A     -1.042258
      19A     -0.962146    20A     -0.912105    21A     -0.892092
      22A     -0.809729    23A     -0.784400    24A     -0.715931
      25A     -0.711467    26A     -0.686505    27A     -0.649206
      28A     -0.634701    29A     -0.608698    30A     -0.590882
      31A     -0.581982    32A     -0.573291    33A     -0.566933
      34A     -0.559671    35A     -0.530399    36A     -0.492657
      37A     -0.457672    38A     -0.435128    39A     -0.426332
      40A     -0.400283    41A     -0.344009    42A     -0.320847

  @DF-RHF Final Energy:  -525.51287462854020

   => Energetics <=

    Nuclear Repulsion Energy =            658.4443917798346320
    One-Electron Energy =               -2018.9251633809442410
    Two-Electron Energy =                 834.9678969725694060
    Total Energy =                       -525.5128746285402030
  Basis Set: (AUG-CC-PVTZ AUX)
    Blend: AUG-CC-PVTZ-RI
    Molecular point group: c1

    Geometry (in Angstrom), charge = 0, multiplicity = 1:

       Center              X                  Y                   Z               Mass
    ------------   -----------------  -----------------  -----------------  -----------------
         N            0.924113932824    -0.344845168930    -0.053030539568    14.003074004430
         N            1.355946032824    -1.480718768930    -0.264719139568    14.003074004430
         N           -1.084382967176     1.033215231070    -0.451385139568    14.003074004430
         N           -1.271229967176    -1.197535768930     0.431466860432    14.003074004430
         C            1.757115032824     0.740765231070     0.135959860432    12.000000000000
         C            2.976014032824     0.098871231070     0.010343860432    12.000000000000
         C           -0.592950967176    -0.133859768930    -0.016110139568    12.000000000000
         C            1.451341032824     2.170361231070     0.440398860432    12.000000000000
         C            2.676790032824    -1.253624768930    -0.237578139568    12.000000000000
         C           -2.423685967176     1.138474231070    -0.429492139568    12.000000000000
         C           -2.606516967176    -1.071866768930     0.405973860432    12.000000000000
         C           -3.244062967176     0.092577231070    -0.018885139568    12.000000000000
         H            3.950261032824     0.560578231070     0.101662860432     1.007825032230
         H            1.010591032824     2.684361231070    -0.415725139568     1.007825032230
         H            0.751846032824     2.265982231070     1.275752860432     1.007825032230
         H            2.383830032824     2.670184231070     0.715762860432     1.007825032230
         H            3.353553032824    -2.081548768930    -0.407503139568     1.007825032230
         H           -2.833081967176     2.087175231070    -0.770962139568     1.007825032230
         H           -3.171036967176    -1.934460768930     0.754877860432     1.007825032230
         H           -4.325276967176     0.181509231070    -0.022443139568     1.007825032230

  Basis Set: AUG-CC-PVTZ
    Blend: AUG-CC-PVTZ
  Basis Set: (AUG-CC-PVTZ AUX)
    Blend: AUG-CC-PVTZ-JKFIT
	 Reference Energy          =    -525.5128746285402030 [Eh]
	 Singles Energy            =      -0.0000000000000000 [Eh]
	 Same-Spin Energy          =      -0.5797990306208293 [Eh]
	 Opposite-Spin Energy      =      -1.7399651883260556 [Eh]
	 Correlation Energy        =      -2.3197642189468848 [Eh]
	 Total Energy              =    -527.8326388474870328 [Eh]

	 ================> DF-SCS-MP2 Energies <==================
	-----------------------------------------------------------
	 SCS Same-Spin Scale       =       0.3333333333333333 [-]
	 SCS Opposite-Spin Scale   =       1.2000000000000000 [-]
	 SCS Same-Spin Energy      =      -0.1932663435402764 [Eh]
	 SCS Opposite-Spin Energy  =      -2.0879582259912666 [Eh]
	 SCS Correlation Energy    =      -2.2812245695315432 [Eh]
	 SCS Total Energy          =    -527.7940991980717627 [Eh]
	-----------------------------------------------------------

  Dipole Moment: [D]
     X:    -3.3030      Y:     2.6636      Z:     0.4469     Total:     4.2667

*** Psi4 exiting successfully. Buy a developer a beer!
