                               Psi4 1.3.2 release

  ==> Input File <==

--------------------------------------------------------------------------
#psi4
#
memory 32 gb

molecule  {
0 1
  N        0.8338283    -0.3148928    -0.0482446
  N        1.3585440    -1.5263750    -0.2734470
  N       -1.0817850     0.9875590    -0.4601130
  N       -1.2686320    -1.2431920     0.4227390
  C        1.7597130     0.6951090     0.1272320
  C        2.9786120     0.0532150     0.0016160
  C       -0.5903530    -0.1795160    -0.0248380
  C        1.4539390     2.1247050     0.4316710
  C        2.6793880    -1.2992810    -0.2463060
  C       -2.4210880     1.0928180    -0.4382200
  C       -2.6039190    -1.1175230     0.3972460
  C       -3.2414650     0.0469210    -0.0276130
  H        3.9528590     0.5149220     0.0929350
  H        1.0131890     2.6387050    -0.4244530
  H        0.7544440     2.2203260     1.2670250
  H        2.3864280     2.6245280     0.7070350
  H        3.3561510    -2.1272050    -0.4162310
  H       -2.8304840     2.0415190    -0.7796900
  H       -3.1684390    -1.9801170     0.7461500
  H       -4.3226790     0.1358530    -0.0311710
units angstrom
no_reorient  #important for SAPT in psi4, default
symmetry c1  #important for SAPT in psi4, default
}

set PROPERTIES_ORIGIN ["COM"]
properties('MP2/aug-cc-pvtz', properties = ['dipole'])
--------------------------------------------------------------------------

    Molecular point group: c1
  Charge       = 0
  Multiplicity = 1
  Basis Set: AUG-CC-PVTZ
    Blend: AUG-CC-PVTZ
  Basis Set: (AUG-CC-PVTZ AUX)
    Blend: AUG-CC-PVTZ-JKFIT

    Orbital Energies [Eh]
    ---------------------

    Doubly Occupied:

       1A    -15.643694     2A    -15.584264     3A    -15.580494
       4A    -15.580062     5A    -11.369068     6A    -11.312651
       7A    -11.310384     8A    -11.284006     9A    -11.254037
      10A    -11.251478    11A    -11.234815    12A    -11.216169
      13A     -1.391033    14A     -1.315448    15A     -1.207032
      16A     -1.126163    17A     -1.085142    18A     -1.045116
      19A     -0.959129    20A     -0.909662    21A     -0.895629
      22A     -0.800510    23A     -0.794722    24A     -0.713367
      25A     -0.708457    26A     -0.683035    27A     -0.638992
      28A     -0.633411    29A     -0.607349    30A     -0.587328
      31A     -0.586560    32A     -0.575855    33A     -0.565014
      34A     -0.554878    35A     -0.534970    36A     -0.491711
      37A     -0.456388    38A     -0.431394    39A     -0.421435
      40A     -0.406055    41A     -0.338032    42A     -0.331734

  @DF-RHF Final Energy:  -525.54284905243401

   => Energetics <=

    Nuclear Repulsion Energy =            658.2688164007792011
    One-Electron Energy =               -2018.7899815543175919
    Two-Electron Energy =                 834.9783161011042694
    Total Energy =                       -525.5428490524340077
  Basis Set: (AUG-CC-PVTZ AUX)
    Blend: AUG-CC-PVTZ-RI
    Molecular point group: c1

    Geometry (in Angstrom), charge = 0, multiplicity = 1:

       Center              X                  Y                   Z               Mass
    ------------   -----------------  -----------------  -----------------  -----------------
         N            0.839355628888    -0.275850677987    -0.040698903330    14.003074004430
         N            1.364071328888    -1.487332877987    -0.265901303330    14.003074004430
         N           -1.076257671112     1.026601122013    -0.452567303330    14.003074004430
         N           -1.263104671112    -1.204149877987     0.430284696670    14.003074004430
         C            1.765240328888     0.734151122013     0.134777696670    12.000000000000
         C            2.984139328888     0.092257122013     0.009161696670    12.000000000000
         C           -0.584825671112    -0.140473877987    -0.017292303330    12.000000000000
         C            1.459466328888     2.163747122013     0.439216696670    12.000000000000
         C            2.684915328888    -1.260238877987    -0.238760303330    12.000000000000
         C           -2.415560671112     1.131860122013    -0.430674303330    12.000000000000
         C           -2.598391671112    -1.078480877987     0.404791696670    12.000000000000
         C           -3.235937671112     0.085963122013    -0.020067303330    12.000000000000
         H            3.958386328888     0.553964122013     0.100480696670     1.007825032230
         H            1.018716328888     2.677747122013    -0.416907303330     1.007825032230
         H            0.759971328888     2.259368122013     1.274570696670     1.007825032230
         H            2.391955328888     2.663570122013     0.714580696670     1.007825032230
         H            3.361678328888    -2.088162877987    -0.408685303330     1.007825032230
         H           -2.824956671112     2.080561122013    -0.772144303330     1.007825032230
         H           -3.162911671112    -1.941074877987     0.753695696670     1.007825032230
         H           -4.317151671112     0.174895122013    -0.023625303330     1.007825032230

  Basis Set: AUG-CC-PVTZ
    Blend: AUG-CC-PVTZ
  Basis Set: (AUG-CC-PVTZ AUX)
    Blend: AUG-CC-PVTZ-JKFIT
	 Reference Energy          =    -525.5428490524340077 [Eh]
	 Singles Energy            =      -0.0000000000000000 [Eh]
	 Same-Spin Energy          =      -0.5778130057897740 [Eh]
	 Opposite-Spin Energy      =      -1.7385713263105405 [Eh]
	 Correlation Energy        =      -2.3163843321003146 [Eh]
	 Total Energy              =    -527.8592333845343774 [Eh]

	 ================> DF-SCS-MP2 Energies <==================
	-----------------------------------------------------------
	 SCS Same-Spin Scale       =       0.3333333333333333 [-]
	 SCS Opposite-Spin Scale   =       1.2000000000000000 [-]
	 SCS Same-Spin Energy      =      -0.1926043352632580 [Eh]
	 SCS Opposite-Spin Energy  =      -2.0862855915726484 [Eh]
	 SCS Correlation Energy    =      -2.2788899268359062 [Eh]
	 SCS Total Energy          =    -527.8217389792698668 [Eh]
	-----------------------------------------------------------

  Dipole Moment: [D]
     X:    -2.7184      Y:     2.5803      Z:     0.4425     Total:     3.7741

*** Psi4 exiting successfully. Buy a developer a beer!
