                               Psi4 1.3.2 release

  ==> Input File <==

--------------------------------------------------------------------------
#psi4
#
memory 32 gb

molecule  {
0 1
  N        0.8160970    -0.2990240    -0.0443680
  N        1.3776811    -1.6163815    -0.2903911
  N       -1.0817850     0.9875590    -0.4601130
  N       -1.2686320    -1.2431920     0.4227390
  C        1.7597130     0.6951090     0.1272320
  C        2.9786120     0.0532150     0.0016160
  C       -0.5903530    -0.1795160    -0.0248380
  C        1.4539390     2.1247050     0.4316710
  C        2.6793880    -1.2992810    -0.2463060
  C       -2.4210880     1.0928180    -0.4382200
  C       -2.6039190    -1.1175230     0.3972460
  C       -3.2414650     0.0469210    -0.0276130
  H        3.9528590     0.5149220     0.0929350
  H        1.0131890     2.6387050    -0.4244530
  H        0.7544440     2.2203260     1.2670250
  H        2.3864280     2.6245280     0.7070350
  H        3.3561510    -2.1272050    -0.4162310
  H       -2.8304840     2.0415190    -0.7796900
  H       -3.1684390    -1.9801170     0.7461500
  H       -4.3226790     0.1358530    -0.0311710
units angstrom
no_reorient  #important for SAPT in psi4, default
symmetry c1  #important for SAPT in psi4, default
}

set PROPERTIES_ORIGIN ["COM"]
properties('MP2/aug-cc-pvtz', properties = ['dipole'])
--------------------------------------------------------------------------

    Molecular point group: c1
  Charge       = 0
  Multiplicity = 1
  Basis Set: AUG-CC-PVTZ
    Blend: AUG-CC-PVTZ
  Basis Set: (AUG-CC-PVTZ AUX)
    Blend: AUG-CC-PVTZ-JKFIT

    Orbital Energies [Eh]
    ---------------------

    Doubly Occupied:

       1A    -15.635245     2A    -15.591163     3A    -15.579390
       4A    -15.575524     5A    -11.364520     6A    -11.309523
       7A    -11.307392     8A    -11.296743     9A    -11.261895
      10A    -11.250042    11A    -11.238572    12A    -11.218497
      13A     -1.363584    14A     -1.302262    15A     -1.203416
      16A     -1.130715    17A     -1.085048    18A     -1.040006
      19A     -0.964683    20A     -0.906649    21A     -0.891553
      22A     -0.796449    23A     -0.785095    24A     -0.713158
      25A     -0.704467    26A     -0.682072    27A     -0.630996
      28A     -0.630233    29A     -0.605830    30A     -0.588042
      31A     -0.582762    32A     -0.571057    33A     -0.560304
      34A     -0.546702    35A     -0.537826    36A     -0.490220
      37A     -0.464072    38A     -0.428718    39A     -0.419090
      40A     -0.409282    41A     -0.345145    42A     -0.329812

  @DF-RHF Final Energy:  -525.53383498121980

   => Energetics <=

    Nuclear Repulsion Energy =            655.6154432557665359
    One-Electron Energy =               -2013.6230426963077207
    Two-Electron Energy =                 832.4737644593212735
    Total Energy =                       -525.5338349812197976
  Basis Set: (AUG-CC-PVTZ AUX)
    Blend: AUG-CC-PVTZ-RI
    Molecular point group: c1

    Geometry (in Angstrom), charge = 0, multiplicity = 1:

       Center              X                  Y                   Z               Mass
    ------------   -----------------  -----------------  -----------------  -----------------
         N            0.821501351945    -0.253496440708    -0.035679181118    14.003074004430
         N            1.383085451945    -1.570853940708    -0.281702281118    14.003074004430
         N           -1.076380648055     1.033086559292    -0.451424181118    14.003074004430
         N           -1.263227648055    -1.197664440708     0.431427818882    14.003074004430
         C            1.765117351945     0.740636559292     0.135920818882    12.000000000000
         C            2.984016351945     0.098742559292     0.010304818882    12.000000000000
         C           -0.584948648055    -0.133988440708    -0.016149181118    12.000000000000
         C            1.459343351945     2.170232559292     0.440359818882    12.000000000000
         C            2.684792351945    -1.253753440708    -0.237617181118    12.000000000000
         C           -2.415683648055     1.138345559292    -0.429531181118    12.000000000000
         C           -2.598514648055    -1.071995440708     0.405934818882    12.000000000000
         C           -3.236060648055     0.092448559292    -0.018924181118    12.000000000000
         H            3.958263351945     0.560449559292     0.101623818882     1.007825032230
         H            1.018593351945     2.684232559292    -0.415764181118     1.007825032230
         H            0.759848351945     2.265853559292     1.275713818882     1.007825032230
         H            2.391832351945     2.670055559292     0.715723818882     1.007825032230
         H            3.361555351945    -2.081677440708    -0.407542181118     1.007825032230
         H           -2.825079648055     2.087046559292    -0.771001181118     1.007825032230
         H           -3.163034648055    -1.934589440708     0.754838818882     1.007825032230
         H           -4.317274648055     0.181380559292    -0.022482181118     1.007825032230

  Basis Set: AUG-CC-PVTZ
    Blend: AUG-CC-PVTZ
  Basis Set: (AUG-CC-PVTZ AUX)
    Blend: AUG-CC-PVTZ-JKFIT
	 Reference Energy          =    -525.5338349812197976 [Eh]
	 Singles Energy            =      -0.0000000000000000 [Eh]
	 Same-Spin Energy          =      -0.5774164269829554 [Eh]
	 Opposite-Spin Energy      =      -1.7407757671178885 [Eh]
	 Correlation Energy        =      -2.3181921941008437 [Eh]
	 Total Energy              =    -527.8520271753205861 [Eh]

	 ================> DF-SCS-MP2 Energies <==================
	-----------------------------------------------------------
	 SCS Same-Spin Scale       =       0.3333333333333333 [-]
	 SCS Opposite-Spin Scale   =       1.2000000000000000 [-]
	 SCS Same-Spin Energy      =      -0.1924721423276518 [Eh]
	 SCS Opposite-Spin Energy  =      -2.0889309205414661 [Eh]
	 SCS Correlation Energy    =      -2.2814030628691180 [Eh]
	 SCS Total Energy          =    -527.8152380440889146 [Eh]
	-----------------------------------------------------------

  Dipole Moment: [D]
     X:    -2.3672      Y:     2.6515      Z:     0.4603     Total:     3.5841

*** Psi4 exiting successfully. Buy a developer a beer!
