                               Psi4 1.4a3.dev225

  ==> Input File <==

--------------------------------------------------------------------------
#psi4
#
memory 32 gb

molecule  {
0 1
  N        0.8160970    -0.2990240    -0.0443680
  N        1.3585440    -1.5263750    -0.2734470
  N       -1.0817850     0.9875590    -0.4601130
  N       -1.2686320    -1.2431920     0.4227390
  C        1.7597130     0.6951090     0.1272320
  C        2.9786120     0.0532150     0.0016160
  C       -0.5903530    -0.1795160    -0.0248380
  C        1.4539390     2.1247050     0.4316710
  C        2.6990948    -1.2958928    -0.2459011
  C       -2.4210880     1.0928180    -0.4382200
  C       -2.6039190    -1.1175230     0.3972460
  C       -3.2414650     0.0469210    -0.0276130
  H        3.9528590     0.5149220     0.0929350
  H        1.0131890     2.6387050    -0.4244530
  H        0.7544440     2.2203260     1.2670250
  H        2.3864280     2.6245280     0.7070350
  H        3.3561510    -2.1272050    -0.4162310
  H       -2.8304840     2.0415190    -0.7796900
  H       -3.1684390    -1.9801170     0.7461500
  H       -4.3226790     0.1358530    -0.0311710
units angstrom
no_reorient  #important for SAPT in psi4, default
symmetry c1  #important for SAPT in psi4, default
}

set PROPERTIES_ORIGIN ["COM"]
properties('MP2/aug-cc-pvtz', properties = ['dipole'])
--------------------------------------------------------------------------

    Molecular point group: c1
  Charge       = 0
  Multiplicity = 1
  Basis Set: AUG-CC-PVTZ
    Blend: AUG-CC-PVTZ
  Basis Set: (AUG-CC-PVTZ AUX)
    Blend: AUG-CC-PVTZ-JKFIT

    Orbital Energies [Eh]
    ---------------------

    Doubly Occupied:

       1A    -15.643490     2A    -15.582848     3A    -15.582210
       4A    -15.579027     5A    -11.367730     6A    -11.311755
       7A    -11.309690     8A    -11.286477     9A    -11.254837
      10A    -11.253056    11A    -11.234713    12A    -11.217470
      13A     -1.384765    14A     -1.311832    15A     -1.206324
      16A     -1.126795    17A     -1.083306    18A     -1.045520
      19A     -0.958310    20A     -0.909193    21A     -0.897528
      22A     -0.801735    23A     -0.794743    24A     -0.713220
      25A     -0.707152    26A     -0.682557    27A     -0.637808
      28A     -0.633708    29A     -0.607153    30A     -0.590102
      31A     -0.586657    32A     -0.575404    33A     -0.563228
      34A     -0.551769    35A     -0.537328    36A     -0.491941
      37A     -0.454493    38A     -0.430680    39A     -0.420364
      40A     -0.407318    41A     -0.338481    42A     -0.329826

  @DF-RHF Final Energy:  -525.54130194241861

   => Energetics <=

    Nuclear Repulsion Energy =            657.9274535714506555
    One-Electron Energy =               -2018.1324160124086120
    Two-Electron Energy =                 834.6636604985392296
    Total Energy =                       -525.5413019424186132
  Basis Set: (AUG-CC-PVTZ AUX)
    Blend: AUG-CC-PVTZ-RI
    Molecular point group: c1

    Geometry (in Angstrom), charge = 0, multiplicity = 1:

       Center              X                  Y                   Z               Mass
    ------------   -----------------  -----------------  -----------------  -----------------
         N            0.821698113762    -0.261624049163    -0.037191774859    14.003074004430
         N            1.364145113762    -1.488975049163    -0.266270774859    14.003074004430
         N           -1.076183886238     1.024958950837    -0.452936774859    14.003074004430
         N           -1.263030886238    -1.205792049163     0.429915225141    14.003074004430
         C            1.765314113762     0.732508950837     0.134408225141    12.000000000000
         C            2.984213113762     0.090614950837     0.008792225141    12.000000000000
         C           -0.584751886238    -0.142116049163    -0.017661774859    12.000000000000
         C            1.459540113762     2.162104950837     0.438847225141    12.000000000000
         C            2.704695913762    -1.258492849163    -0.238724874859    12.000000000000
         C           -2.415486886238     1.130217950837    -0.431043774859    12.000000000000
         C           -2.598317886238    -1.080123049163     0.404422225141    12.000000000000
         C           -3.235863886238     0.084320950837    -0.020436774859    12.000000000000
         H            3.958460113762     0.552321950837     0.100111225141     1.007825032230
         H            1.018790113762     2.676104950837    -0.417276774859     1.007825032230
         H            0.760045113762     2.257725950837     1.274201225141     1.007825032230
         H            2.392029113762     2.661927950837     0.714211225141     1.007825032230
         H            3.361752113762    -2.089805049163    -0.409054774859     1.007825032230
         H           -2.824882886238     2.078918950837    -0.772513774859     1.007825032230
         H           -3.162837886238    -1.942717049163     0.753326225141     1.007825032230
         H           -4.317077886238     0.173252950837    -0.023994774859     1.007825032230

  Basis Set: AUG-CC-PVTZ
    Blend: AUG-CC-PVTZ
  Basis Set: (AUG-CC-PVTZ AUX)
    Blend: AUG-CC-PVTZ-JKFIT
	 Reference Energy          =    -525.5413019424186132 [Eh]
	 Singles Energy            =      -0.0000000000000000 [Eh]
	 Same-Spin Energy          =      -0.5782078198545146 [Eh]
	 Opposite-Spin Energy      =      -1.7397676741179500 [Eh]
	 Correlation Energy        =      -2.3179754939724644 [Eh]
	 Total Energy              =    -527.8592774363910394 [Eh]

	 ================> DF-SCS-MP2 Energies <==================
	-----------------------------------------------------------
	 SCS Same-Spin Scale       =       0.3333333333333333 [-]
	 SCS Opposite-Spin Scale   =       1.2000000000000000 [-]
	 SCS Same-Spin Energy      =      -0.1927359399515049 [Eh]
	 SCS Opposite-Spin Energy  =      -2.0877212089415398 [Eh]
	 SCS Correlation Energy    =      -2.2804571488930447 [Eh]
	 SCS Total Energy          =    -527.8217590913116055 [Eh]
	-----------------------------------------------------------

  Dipole Moment: [D]
     X:    -2.6153      Y:     2.5657      Z:     0.4425     Total:     3.6903

*** Psi4 exiting successfully. Buy a developer a beer!
