                               Psi4 1.3.2 release

  ==> Input File <==

--------------------------------------------------------------------------
#psi4
#
memory 32 gb

molecule  {
0 1
  N        0.8160970    -0.2990240    -0.0443680
  N        1.3585440    -1.5263750    -0.2734470
  N       -1.0817850     0.9875590    -0.4601130
  N       -1.2686320    -1.2431920     0.4227390
  C        1.7597130     0.6951090     0.1272320
  C        2.9786120     0.0532150     0.0016160
  C       -0.5903530    -0.1795160    -0.0248380
  C        1.4539390     2.1247050     0.4316710
  C        2.6793880    -1.2992810    -0.2463060
  C       -2.4210880     1.0928180    -0.4382200
  C       -2.5190442    -1.0739054     0.3782887
  C       -3.2414650     0.0469210    -0.0276130
  H        3.9528590     0.5149220     0.0929350
  H        1.0131890     2.6387050    -0.4244530
  H        0.7544440     2.2203260     1.2670250
  H        2.3864280     2.6245280     0.7070350
  H        3.3561510    -2.1272050    -0.4162310
  H       -2.8304840     2.0415190    -0.7796900
  H       -3.1684390    -1.9801170     0.7461500
  H       -4.3226790     0.1358530    -0.0311710
units angstrom
no_reorient  #important for SAPT in psi4, default
symmetry c1  #important for SAPT in psi4, default
}

set PROPERTIES_ORIGIN ["COM"]
properties('MP2/aug-cc-pvtz', properties = ['dipole'])
--------------------------------------------------------------------------

    Molecular point group: c1
  Charge       = 0
  Multiplicity = 1
  Basis Set: AUG-CC-PVTZ
    Blend: AUG-CC-PVTZ
  Basis Set: (AUG-CC-PVTZ AUX)
    Blend: AUG-CC-PVTZ-JKFIT

    Orbital Energies [Eh]
    ---------------------

    Doubly Occupied:

       1A    -15.644239     2A    -15.583428     3A    -15.581918
       4A    -15.576515     5A    -11.371569     6A    -11.309026
       7A    -11.306403     8A    -11.288507     9A    -11.256652
      10A    -11.250329    11A    -11.235776    12A    -11.219079
      13A     -1.391061    14A     -1.327756    15A     -1.223402
      16A     -1.131371    17A     -1.085568    18A     -1.046019
      19A     -0.960211    20A     -0.904957    21A     -0.901044
      22A     -0.803286    23A     -0.792824    24A     -0.720195
      25A     -0.706842    26A     -0.684522    27A     -0.641804
      28A     -0.633329    29A     -0.603400    30A     -0.590345
      31A     -0.580882    32A     -0.571921    33A     -0.564268
      34A     -0.555605    35A     -0.537472    36A     -0.499043
      37A     -0.457164    38A     -0.443567    39A     -0.416730
      40A     -0.407383    41A     -0.338330    42A     -0.334245

  @DF-RHF Final Energy:  -525.53396017859870

   => Energetics <=

    Nuclear Repulsion Energy =            660.4988572185759494
    One-Electron Energy =               -2023.1096571692012276
    Two-Electron Energy =                 837.0768397720265739
    Total Energy =                       -525.5339601785987043
  Basis Set: (AUG-CC-PVTZ AUX)
    Blend: AUG-CC-PVTZ-RI
    Molecular point group: c1

    Geometry (in Angstrom), charge = 0, multiplicity = 1:

       Center              X                  Y                   Z               Mass
    ------------   -----------------  -----------------  -----------------  -----------------
         N            0.816812800586    -0.264639842465    -0.035740289302    14.003074004430
         N            1.359259800586    -1.491990842465    -0.264819289302    14.003074004430
         N           -1.081069199414     1.021943157535    -0.451485289302    14.003074004430
         N           -1.267916199414    -1.208807842465     0.431366710698    14.003074004430
         C            1.760428800586     0.729493157535     0.135859710698    12.000000000000
         C            2.979327800586     0.087599157535     0.010243710698    12.000000000000
         C           -0.589637199414    -0.145131842465    -0.016210289302    12.000000000000
         C            1.454654800586     2.159089157535     0.440298710698    12.000000000000
         C            2.680103800586    -1.264896842465    -0.237678289302    12.000000000000
         C           -2.420372199414     1.127202157535    -0.429592289302    12.000000000000
         C           -2.518328399414    -1.039521242465     0.386916410698    12.000000000000
         C           -3.240749199414     0.081305157535    -0.018985289302    12.000000000000
         H            3.953574800586     0.549306157535     0.101562710698     1.007825032230
         H            1.013904800586     2.673089157535    -0.415825289302     1.007825032230
         H            0.755159800586     2.254710157535     1.275652710698     1.007825032230
         H            2.387143800586     2.658912157535     0.715662710698     1.007825032230
         H            3.356866800586    -2.092820842465    -0.407603289302     1.007825032230
         H           -2.829768199414     2.075903157535    -0.771062289302     1.007825032230
         H           -3.167723199414    -1.945732842465     0.754777710698     1.007825032230
         H           -4.321963199414     0.170237157535    -0.022543289302     1.007825032230

  Basis Set: AUG-CC-PVTZ
    Blend: AUG-CC-PVTZ
  Basis Set: (AUG-CC-PVTZ AUX)
    Blend: AUG-CC-PVTZ-JKFIT
	 Reference Energy          =    -525.5339601785987043 [Eh]
	 Singles Energy            =      -0.0000000000000000 [Eh]
	 Same-Spin Energy          =      -0.5769681146927931 [Eh]
	 Opposite-Spin Energy      =      -1.7372679461793656 [Eh]
	 Correlation Energy        =      -2.3142360608721586 [Eh]
	 Total Energy              =    -527.8481962394708944 [Eh]

	 ================> DF-SCS-MP2 Energies <==================
	-----------------------------------------------------------
	 SCS Same-Spin Scale       =       0.3333333333333333 [-]
	 SCS Opposite-Spin Scale   =       1.2000000000000000 [-]
	 SCS Same-Spin Energy      =      -0.1923227048975977 [Eh]
	 SCS Opposite-Spin Energy  =      -2.0847215354152389 [Eh]
	 SCS Correlation Energy    =      -2.2770442403128364 [Eh]
	 SCS Total Energy          =    -527.8110044189115797 [Eh]
	-----------------------------------------------------------

  Dipole Moment: [D]
     X:    -2.3418      Y:     2.6583      Z:     0.3991     Total:     3.5651

*** Psi4 exiting successfully. Buy a developer a beer!
