                               Psi4 1.3.2 release

  ==> Input File <==

--------------------------------------------------------------------------
#psi4
#
memory 32 gb

molecule  {
0 1
  N        0.8599982    -0.2810629    -0.0415717
  N        1.3585440    -1.5263750    -0.2734470
  N       -1.0817850     0.9875590    -0.4601130
  N       -1.2686320    -1.2431920     0.4227390
  C        1.7597130     0.6951090     0.1272320
  C        2.9786120     0.0532150     0.0016160
  C       -0.5903530    -0.1795160    -0.0248380
  C        1.4539390     2.1247050     0.4316710
  C        2.6793880    -1.2992810    -0.2463060
  C       -2.4210880     1.0928180    -0.4382200
  C       -2.6039190    -1.1175230     0.3972460
  C       -3.2414650     0.0469210    -0.0276130
  H        3.9528590     0.5149220     0.0929350
  H        1.0131890     2.6387050    -0.4244530
  H        0.7544440     2.2203260     1.2670250
  H        2.3864280     2.6245280     0.7070350
  H        3.3561510    -2.1272050    -0.4162310
  H       -2.8304840     2.0415190    -0.7796900
  H       -3.1684390    -1.9801170     0.7461500
  H       -4.3226790     0.1358530    -0.0311710
units angstrom
no_reorient  #important for SAPT in psi4, default
symmetry c1  #important for SAPT in psi4, default
}

set PROPERTIES_ORIGIN ["COM"]
properties('MP2/aug-cc-pvtz', properties = ['dipole'])
--------------------------------------------------------------------------

    Molecular point group: c1
  Charge       = 0
  Multiplicity = 1
  Basis Set: AUG-CC-PVTZ
    Blend: AUG-CC-PVTZ
  Basis Set: (AUG-CC-PVTZ AUX)
    Blend: AUG-CC-PVTZ-JKFIT

    Orbital Energies [Eh]
    ---------------------

    Doubly Occupied:

       1A    -15.642838     2A    -15.585337     3A    -15.582477
       4A    -15.578181     5A    -11.371626     6A    -11.313289
       7A    -11.311745     8A    -11.281365     9A    -11.255513
      10A    -11.251355    11A    -11.234875    12A    -11.211943
      13A     -1.388301    14A     -1.316232    15A     -1.208216
      16A     -1.125668    17A     -1.088530    18A     -1.043110
      19A     -0.960009    20A     -0.910201    21A     -0.896114
      22A     -0.800309    23A     -0.793991    24A     -0.714366
      25A     -0.707815    26A     -0.683137    27A     -0.639536
      28A     -0.633080    29A     -0.607633    30A     -0.588296
      31A     -0.582763    32A     -0.574280    33A     -0.564274
      34A     -0.554352    35A     -0.534738    36A     -0.491996
      37A     -0.458204    38A     -0.432213    39A     -0.422665
      40A     -0.405132    41A     -0.342403    42A     -0.329746

  @DF-RHF Final Energy:  -525.54043533613378

   => Energetics <=

    Nuclear Repulsion Energy =            658.2966215346314129
    One-Electron Energy =               -2018.8384146841449365
    Two-Electron Energy =                 835.0013578133797409
    Total Energy =                       -525.5404353361337826
  Basis Set: (AUG-CC-PVTZ AUX)
    Blend: AUG-CC-PVTZ-RI
    Molecular point group: c1

    Geometry (in Angstrom), charge = 0, multiplicity = 1:

       Center              X                  Y                   Z               Mass
    ------------   -----------------  -----------------  -----------------  -----------------
         N            0.863236231472    -0.244980158903    -0.034609737036    14.003074004430
         N            1.361782031472    -1.490292258903    -0.266485037036    14.003074004430
         N           -1.078546968528     1.023641741097    -0.453151037036    14.003074004430
         N           -1.265393968528    -1.207109258903     0.429700962964    14.003074004430
         C            1.762951031472     0.731191741097     0.134193962964    12.000000000000
         C            2.981850031472     0.089297741097     0.008577962964    12.000000000000
         C           -0.587114968528    -0.143433258903    -0.017876037036    12.000000000000
         C            1.457177031472     2.160787741097     0.438632962964    12.000000000000
         C            2.682626031472    -1.263198258903    -0.239344037036    12.000000000000
         C           -2.417849968528     1.128900741097    -0.431258037036    12.000000000000
         C           -2.600680968528    -1.081440258903     0.404207962964    12.000000000000
         C           -3.238226968528     0.083003741097    -0.020651037036    12.000000000000
         H            3.956097031472     0.551004741097     0.099896962964     1.007825032230
         H            1.016427031472     2.674787741097    -0.417491037036     1.007825032230
         H            0.757682031472     2.256408741097     1.273986962964     1.007825032230
         H            2.389666031472     2.660610741097     0.713996962964     1.007825032230
         H            3.359389031472    -2.091122258903    -0.409269037036     1.007825032230
         H           -2.827245968528     2.077601741097    -0.772728037036     1.007825032230
         H           -3.165200968528    -1.944034258903     0.753111962964     1.007825032230
         H           -4.319440968528     0.171935741097    -0.024209037036     1.007825032230

  Basis Set: AUG-CC-PVTZ
    Blend: AUG-CC-PVTZ
  Basis Set: (AUG-CC-PVTZ AUX)
    Blend: AUG-CC-PVTZ-JKFIT
	 Reference Energy          =    -525.5404353361337826 [Eh]
	 Singles Energy            =      -0.0000000000000000 [Eh]
	 Same-Spin Energy          =      -0.5777595172263310 [Eh]
	 Opposite-Spin Energy      =      -1.7385830869399965 [Eh]
	 Correlation Energy        =      -2.3163426041663273 [Eh]
	 Total Energy              =    -527.8567779403001623 [Eh]

	 ================> DF-SCS-MP2 Energies <==================
	-----------------------------------------------------------
	 SCS Same-Spin Scale       =       0.3333333333333333 [-]
	 SCS Opposite-Spin Scale   =       1.2000000000000000 [-]
	 SCS Same-Spin Energy      =      -0.1925865057421103 [Eh]
	 SCS Opposite-Spin Energy  =      -2.0862997043279958 [Eh]
	 SCS Correlation Energy    =      -2.2788862100701062 [Eh]
	 SCS Total Energy          =    -527.8193215462039234 [Eh]
	-----------------------------------------------------------

  Dipole Moment: [D]
     X:    -2.8805      Y:     2.5784      Z:     0.4486     Total:     3.8919

*** Psi4 exiting successfully. Buy a developer a beer!
