                               Psi4 1.3.2 release

  ==> Input File <==

--------------------------------------------------------------------------
#psi4
#
memory 32 gb

molecule  {
0 1
  N        0.8160970    -0.2990240    -0.0443680
  N        1.3585440    -1.5263750    -0.2734470
  N       -1.0817850     0.9875590    -0.4601130
  N       -1.2686320    -1.2431920     0.4227390
  C        1.7597130     0.6951090     0.1272320
  C        2.9786120     0.0532150     0.0016160
  C       -0.5903530    -0.1795160    -0.0248380
  C        1.4539390     2.1247050     0.4316710
  C        2.6793880    -1.2992810    -0.2463060
  C       -2.4016090     1.0791213    -0.4334720
  C       -2.6039190    -1.1175230     0.3972460
  C       -3.2414650     0.0469210    -0.0276130
  H        3.9528590     0.5149220     0.0929350
  H        1.0131890     2.6387050    -0.4244530
  H        0.7544440     2.2203260     1.2670250
  H        2.3864280     2.6245280     0.7070350
  H        3.3561510    -2.1272050    -0.4162310
  H       -2.8304840     2.0415190    -0.7796900
  H       -3.1684390    -1.9801170     0.7461500
  H       -4.3226790     0.1358530    -0.0311710
units angstrom
no_reorient  #important for SAPT in psi4, default
symmetry c1  #important for SAPT in psi4, default
}

set PROPERTIES_ORIGIN ["COM"]
properties('MP2/aug-cc-pvtz', properties = ['dipole'])
--------------------------------------------------------------------------

    Molecular point group: c1
  Charge       = 0
  Multiplicity = 1
  Basis Set: AUG-CC-PVTZ
    Blend: AUG-CC-PVTZ
  Basis Set: (AUG-CC-PVTZ AUX)
    Blend: AUG-CC-PVTZ-JKFIT

    Orbital Energies [Eh]
    ---------------------

    Doubly Occupied:

       1A    -15.642573     2A    -15.581949     3A    -15.581815
       4A    -15.578375     5A    -11.368176     6A    -11.310770
       7A    -11.308761     8A    -11.287182     9A    -11.254929
      10A    -11.251789    11A    -11.235183    12A    -11.217735
      13A     -1.387235    14A     -1.316042    15A     -1.209935
      16A     -1.130069    17A     -1.084575    18A     -1.045013
      19A     -0.959281    20A     -0.906883    21A     -0.898483
      22A     -0.799510    23A     -0.795881    24A     -0.713899
      25A     -0.708098    26A     -0.682996    27A     -0.639225
      28A     -0.632398    29A     -0.605453    30A     -0.589430
      31A     -0.584610    32A     -0.575957    33A     -0.564625
      34A     -0.553681    35A     -0.536480    36A     -0.493687
      37A     -0.455402    38A     -0.433438    39A     -0.419761
      40A     -0.407512    41A     -0.337982    42A     -0.332768

  @DF-RHF Final Energy:  -525.54370259411814

   => Energetics <=

    Nuclear Repulsion Energy =            658.8157667409684564
    One-Electron Energy =               -2019.8798510664882997
    Two-Electron Energy =                 835.5203817314016987
    Total Energy =                       -525.5437025941181446
  Basis Set: (AUG-CC-PVTZ AUX)
    Blend: AUG-CC-PVTZ-RI
    Molecular point group: c1

    Geometry (in Angstrom), charge = 0, multiplicity = 1:

       Center              X                  Y                   Z               Mass
    ------------   -----------------  -----------------  -----------------  -----------------
         N            0.821715190768    -0.260343281193    -0.037517354954    14.003074004430
         N            1.364162190768    -1.487694281193    -0.266596354954    14.003074004430
         N           -1.076166809232     1.026239718807    -0.453262354954    14.003074004430
         N           -1.263013809232    -1.204511281193     0.429589645046    14.003074004430
         C            1.765331190768     0.733789718807     0.134082645046    12.000000000000
         C            2.984230190768     0.091895718807     0.008466645046    12.000000000000
         C           -0.584734809232    -0.140835281193    -0.017987354954    12.000000000000
         C            1.459557190768     2.163385718807     0.438521645046    12.000000000000
         C            2.685006190768    -1.260600281193    -0.239455354954    12.000000000000
         C           -2.395990809232     1.117802018807    -0.426621354954    12.000000000000
         C           -2.598300809232    -1.078842281193     0.404096645046    12.000000000000
         C           -3.235846809232     0.085601718807    -0.020762354954    12.000000000000
         H            3.958477190768     0.553602718807     0.099785645046     1.007825032230
         H            1.018807190768     2.677385718807    -0.417602354954     1.007825032230
         H            0.760062190768     2.259006718807     1.273875645046     1.007825032230
         H            2.392046190768     2.663208718807     0.713885645046     1.007825032230
         H            3.361769190768    -2.088524281193    -0.409380354954     1.007825032230
         H           -2.824865809232     2.080199718807    -0.772839354954     1.007825032230
         H           -3.162820809232    -1.941436281193     0.753000645046     1.007825032230
         H           -4.317060809232     0.174533718807    -0.024320354954     1.007825032230

  Basis Set: AUG-CC-PVTZ
    Blend: AUG-CC-PVTZ
  Basis Set: (AUG-CC-PVTZ AUX)
    Blend: AUG-CC-PVTZ-JKFIT
	 Reference Energy          =    -525.5437025941181446 [Eh]
	 Singles Energy            =      -0.0000000000000000 [Eh]
	 Same-Spin Energy          =      -0.5774011137334982 [Eh]
	 Opposite-Spin Energy      =      -1.7381606594433403 [Eh]
	 Correlation Energy        =      -2.3155617731768388 [Eh]
	 Total Energy              =    -527.8592643672949407 [Eh]

	 ================> DF-SCS-MP2 Energies <==================
	-----------------------------------------------------------
	 SCS Same-Spin Scale       =       0.3333333333333333 [-]
	 SCS Opposite-Spin Scale   =       1.2000000000000000 [-]
	 SCS Same-Spin Energy      =      -0.1924670379111661 [Eh]
	 SCS Opposite-Spin Energy  =      -2.0857927913320085 [Eh]
	 SCS Correlation Energy    =      -2.2782598292431744 [Eh]
	 SCS Total Energy          =    -527.8219624233613558 [Eh]
	-----------------------------------------------------------

  Dipole Moment: [D]
     X:    -2.5300      Y:     2.5326      Z:     0.4468     Total:     3.6076

*** Psi4 exiting successfully. Buy a developer a beer!
