                               Psi4 1.3.2 release

  ==> Input File <==

--------------------------------------------------------------------------
#psi4
#
memory 32 gb

molecule  {
0 1
  N        0.8160970    -0.2990240    -0.0443680
  N        1.3585440    -1.5263750    -0.2734470
  N       -1.0817850     0.9875590    -0.4601130
  N       -1.2686320    -1.2431920     0.4227390
  C        1.7597130     0.6951090     0.1272320
  C        2.9786120     0.0532150     0.0016160
  C       -0.6310318    -0.1579736    -0.0328498
  C        1.4539390     2.1247050     0.4316710
  C        2.6793880    -1.2992810    -0.2463060
  C       -2.4210880     1.0928180    -0.4382200
  C       -2.6039190    -1.1175230     0.3972460
  C       -3.2414650     0.0469210    -0.0276130
  H        3.9528590     0.5149220     0.0929350
  H        1.0131890     2.6387050    -0.4244530
  H        0.7544440     2.2203260     1.2670250
  H        2.3864280     2.6245280     0.7070350
  H        3.3561510    -2.1272050    -0.4162310
  H       -2.8304840     2.0415190    -0.7796900
  H       -3.1684390    -1.9801170     0.7461500
  H       -4.3226790     0.1358530    -0.0311710
units angstrom
no_reorient  #important for SAPT in psi4, default
symmetry c1  #important for SAPT in psi4, default
}

set PROPERTIES_ORIGIN ["COM"]
properties('MP2/aug-cc-pvtz', properties = ['dipole'])
--------------------------------------------------------------------------

    Molecular point group: c1
  Charge       = 0
  Multiplicity = 1
  Basis Set: AUG-CC-PVTZ
    Blend: AUG-CC-PVTZ
  Basis Set: (AUG-CC-PVTZ AUX)
    Blend: AUG-CC-PVTZ-JKFIT

    Orbital Energies [Eh]
    ---------------------

    Doubly Occupied:

       1A    -15.637635     2A    -15.584801     3A    -15.582825
       4A    -15.577789     5A    -11.367492     6A    -11.315555
       7A    -11.312601     8A    -11.281804     9A    -11.256494
      10A    -11.249864    11A    -11.233018    12A    -11.212993
      13A     -1.380321    14A     -1.321003    15A     -1.216544
      16A     -1.122642    17A     -1.081292    18A     -1.043523
      19A     -0.955884    20A     -0.915726    21A     -0.894780
      22A     -0.796185    23A     -0.789671    24A     -0.717691
      25A     -0.707792    26A     -0.680006    27A     -0.636196
      28A     -0.633967    29A     -0.609390    30A     -0.587421
      31A     -0.583955    32A     -0.577236    33A     -0.561144
      34A     -0.551616    35A     -0.533177    36A     -0.493063
      37A     -0.453216    38A     -0.436050    39A     -0.427278
      40A     -0.406506    41A     -0.338794    42A     -0.328411

  @DF-RHF Final Energy:  -525.54135401951328

   => Energetics <=

    Nuclear Repulsion Energy =            658.2554441219486989
    One-Electron Energy =               -2018.8068931485747726
    Two-Electron Energy =                 835.0100950071126817
    Total Energy =                       -525.5413540195132782
  Basis Set: (AUG-CC-PVTZ AUX)
    Blend: AUG-CC-PVTZ-RI
    Molecular point group: c1

    Geometry (in Angstrom), charge = 0, multiplicity = 1:

       Center              X                  Y                   Z               Mass
    ------------   -----------------  -----------------  -----------------  -----------------
         N            0.826224914759    -0.262984977110    -0.036560817711    14.003074004430
         N            1.368671914759    -1.490335977110    -0.265639817711    14.003074004430
         N           -1.071657085241     1.023598022890    -0.452305817711    14.003074004430
         N           -1.258504085241    -1.207152977110     0.430546182289    14.003074004430
         C            1.769840914759     0.731148022890     0.135039182289    12.000000000000
         C            2.988739914759     0.089254022890     0.009423182289    12.000000000000
         C           -0.620903885241    -0.121934577110    -0.025042617711    12.000000000000
         C            1.464066914759     2.160744022890     0.439478182289    12.000000000000
         C            2.689515914759    -1.263241977110    -0.238498817711    12.000000000000
         C           -2.410960085241     1.128857022890    -0.430412817711    12.000000000000
         C           -2.593791085241    -1.081483977110     0.405053182289    12.000000000000
         C           -3.231337085241     0.082960022890    -0.019805817711    12.000000000000
         H            3.962986914759     0.550961022890     0.100742182289     1.007825032230
         H            1.023316914759     2.674744022890    -0.416645817711     1.007825032230
         H            0.764571914759     2.256365022890     1.274832182289     1.007825032230
         H            2.396555914759     2.660567022890     0.714842182289     1.007825032230
         H            3.366278914759    -2.091165977110    -0.408423817711     1.007825032230
         H           -2.820356085241     2.077558022890    -0.771882817711     1.007825032230
         H           -3.158311085241    -1.944077977110     0.753957182289     1.007825032230
         H           -4.312551085241     0.171892022890    -0.023363817711     1.007825032230

  Basis Set: AUG-CC-PVTZ
    Blend: AUG-CC-PVTZ
  Basis Set: (AUG-CC-PVTZ AUX)
    Blend: AUG-CC-PVTZ-JKFIT
	 Reference Energy          =    -525.5413540195132782 [Eh]
	 Singles Energy            =      -0.0000000000000000 [Eh]
	 Same-Spin Energy          =      -0.5774796516324914 [Eh]
	 Opposite-Spin Energy      =      -1.7384599160827012 [Eh]
	 Correlation Energy        =      -2.3159395677151924 [Eh]
	 Total Energy              =    -527.8572935872284688 [Eh]

	 ================> DF-SCS-MP2 Energies <==================
	-----------------------------------------------------------
	 SCS Same-Spin Scale       =       0.3333333333333333 [-]
	 SCS Opposite-Spin Scale   =       1.2000000000000000 [-]
	 SCS Same-Spin Energy      =      -0.1924932172108305 [Eh]
	 SCS Opposite-Spin Energy  =      -2.0861518992992414 [Eh]
	 SCS Correlation Energy    =      -2.2786451165100718 [Eh]
	 SCS Total Energy          =    -527.8199991360233980 [Eh]
	-----------------------------------------------------------

  Dipole Moment: [D]
     X:    -3.0282      Y:     2.5972      Z:     0.4311     Total:     4.0126

*** Psi4 exiting successfully. Buy a developer a beer!
