                               Psi4 1.3.2 release

  ==> Input File <==

--------------------------------------------------------------------------
#psi4
#
memory 32 gb

molecule  {
0 1
  N        0.8199329    -0.2073807    -0.0803588
  N        1.3585440    -1.5263750    -0.2734470
  N       -1.0817850     0.9875590    -0.4601130
  N       -1.2686320    -1.2431920     0.4227390
  C        1.7597130     0.6951090     0.1272320
  C        2.9786120     0.0532150     0.0016160
  C       -0.5903530    -0.1795160    -0.0248380
  C        1.4539390     2.1247050     0.4316710
  C        2.6793880    -1.2992810    -0.2463060
  C       -2.4210880     1.0928180    -0.4382200
  C       -2.6039190    -1.1175230     0.3972460
  C       -3.2414650     0.0469210    -0.0276130
  H        3.9528590     0.5149220     0.0929350
  H        1.0131890     2.6387050    -0.4244530
  H        0.7544440     2.2203260     1.2670250
  H        2.3864280     2.6245280     0.7070350
  H        3.3561510    -2.1272050    -0.4162310
  H       -2.8304840     2.0415190    -0.7796900
  H       -3.1684390    -1.9801170     0.7461500
  H       -4.3226790     0.1358530    -0.0311710
units angstrom
no_reorient  #important for SAPT in psi4, default
symmetry c1  #important for SAPT in psi4, default
}

set PROPERTIES_ORIGIN ["COM"]
properties('MP2/aug-cc-pvtz', properties = ['dipole'])
--------------------------------------------------------------------------

    Molecular point group: c1
  Charge       = 0
  Multiplicity = 1
  Basis Set: AUG-CC-PVTZ
    Blend: AUG-CC-PVTZ
  Basis Set: (AUG-CC-PVTZ AUX)
    Blend: AUG-CC-PVTZ-JKFIT

    Orbital Energies [Eh]
    ---------------------

    Doubly Occupied:

       1A    -15.637951     2A    -15.580679     3A    -15.580463
       4A    -15.579880     5A    -11.368948     6A    -11.310367
       7A    -11.310354     8A    -11.287463     9A    -11.259328
      10A    -11.252796    11A    -11.234077    12A    -11.212989
      13A     -1.377275    14A     -1.308720    15A     -1.206454
      16A     -1.133258    17A     -1.087956    18A     -1.041507
      19A     -0.958694    20A     -0.909244    21A     -0.899739
      22A     -0.799140    23A     -0.796000    24A     -0.714105
      25A     -0.704756    26A     -0.681549    27A     -0.639390
      28A     -0.631823    29A     -0.607335    30A     -0.593319
      31A     -0.584260    32A     -0.573917    33A     -0.555895
      34A     -0.547816    35A     -0.536773    36A     -0.493185
      37A     -0.452709    38A     -0.430332    39A     -0.419923
      40A     -0.410181    41A     -0.349715    42A     -0.324323

  @DF-RHF Final Energy:  -525.53458191746063

   => Energetics <=

    Nuclear Repulsion Energy =            658.3171104443889590
    One-Electron Energy =               -2018.9342123761109633
    Two-Electron Energy =                 835.0825200142614904
    Total Energy =                       -525.5345819174606277
  Basis Set: (AUG-CC-PVTZ AUX)
    Blend: AUG-CC-PVTZ-RI
    Molecular point group: c1

    Geometry (in Angstrom), charge = 0, multiplicity = 1:

       Center              X                  Y                   Z               Mass
    ------------   -----------------  -----------------  -----------------  -----------------
         N            0.826675774355    -0.177743549832    -0.070003808870    14.003074004430
         N            1.365286874355    -1.496737849832    -0.263092008870    14.003074004430
         N           -1.075042125645     1.017196150168    -0.449758008870    14.003074004430
         N           -1.261889125645    -1.213554849832     0.433093991130    14.003074004430
         C            1.766455874355     0.724746150168     0.137586991130    12.000000000000
         C            2.985354874355     0.082852150168     0.011970991130    12.000000000000
         C           -0.583610125645    -0.149878849832    -0.014483008870    12.000000000000
         C            1.460681874355     2.154342150168     0.442025991130    12.000000000000
         C            2.686130874355    -1.269643849832    -0.235951008870    12.000000000000
         C           -2.414345125645     1.122455150168    -0.427865008870    12.000000000000
         C           -2.597176125645    -1.087885849832     0.407600991130    12.000000000000
         C           -3.234722125645     0.076558150168    -0.017258008870    12.000000000000
         H            3.959601874355     0.544559150168     0.103289991130     1.007825032230
         H            1.019931874355     2.668342150168    -0.414098008870     1.007825032230
         H            0.761186874355     2.249963150168     1.277379991130     1.007825032230
         H            2.393170874355     2.654165150168     0.717389991130     1.007825032230
         H            3.362893874355    -2.097567849832    -0.405876008870     1.007825032230
         H           -2.823741125645     2.071156150168    -0.769335008870     1.007825032230
         H           -3.161696125645    -1.950479849832     0.756504991130     1.007825032230
         H           -4.315936125645     0.165490150168    -0.020816008870     1.007825032230

  Basis Set: AUG-CC-PVTZ
    Blend: AUG-CC-PVTZ
  Basis Set: (AUG-CC-PVTZ AUX)
    Blend: AUG-CC-PVTZ-JKFIT
	 Reference Energy          =    -525.5345819174606277 [Eh]
	 Singles Energy            =      -0.0000000000000000 [Eh]
	 Same-Spin Energy          =      -0.5774002066114319 [Eh]
	 Opposite-Spin Energy      =      -1.7394044940353988 [Eh]
	 Correlation Energy        =      -2.3168047006468306 [Eh]
	 Total Energy              =    -527.8513866181074263 [Eh]

	 ================> DF-SCS-MP2 Energies <==================
	-----------------------------------------------------------
	 SCS Same-Spin Scale       =       0.3333333333333333 [-]
	 SCS Opposite-Spin Scale   =       1.2000000000000000 [-]
	 SCS Same-Spin Energy      =      -0.1924667355371439 [Eh]
	 SCS Opposite-Spin Energy  =      -2.0872853928424786 [Eh]
	 SCS Correlation Energy    =      -2.2797521283796227 [Eh]
	 SCS Total Energy          =    -527.8143340458402690 [Eh]
	-----------------------------------------------------------

  Dipole Moment: [D]
     X:    -2.5851      Y:     2.4904      Z:     0.4498     Total:     3.6176

*** Psi4 exiting successfully. Buy a developer a beer!
