                               Psi4 1.3.2 release

  ==> Input File <==

--------------------------------------------------------------------------
#psi4
#
memory 32 gb

molecule  {
0 1
  N        0.8160970    -0.2990240    -0.0443680
  N        1.3585440    -1.5263750    -0.2734470
  N       -1.0817850     0.9875590    -0.4601130
  N       -1.2686320    -1.2431920     0.4227390
  C        1.7376288     0.6529809     0.1189345
  C        2.9786120     0.0532150     0.0016160
  C       -0.5903530    -0.1795160    -0.0248380
  C        1.4539390     2.1247050     0.4316710
  C        2.6793880    -1.2992810    -0.2463060
  C       -2.4210880     1.0928180    -0.4382200
  C       -2.6039190    -1.1175230     0.3972460
  C       -3.2414650     0.0469210    -0.0276130
  H        3.9528590     0.5149220     0.0929350
  H        1.0131890     2.6387050    -0.4244530
  H        0.7544440     2.2203260     1.2670250
  H        2.3864280     2.6245280     0.7070350
  H        3.3561510    -2.1272050    -0.4162310
  H       -2.8304840     2.0415190    -0.7796900
  H       -3.1684390    -1.9801170     0.7461500
  H       -4.3226790     0.1358530    -0.0311710
units angstrom
no_reorient  #important for SAPT in psi4, default
symmetry c1  #important for SAPT in psi4, default
}

set PROPERTIES_ORIGIN ["COM"]
properties('MP2/aug-cc-pvtz', properties = ['dipole'])
--------------------------------------------------------------------------

    Molecular point group: c1
  Charge       = 0
  Multiplicity = 1
  Basis Set: AUG-CC-PVTZ
    Blend: AUG-CC-PVTZ
  Basis Set: (AUG-CC-PVTZ AUX)
    Blend: AUG-CC-PVTZ-JKFIT

    Orbital Energies [Eh]
    ---------------------

    Doubly Occupied:

       1A    -15.643923     2A    -15.584439     3A    -15.580777
       4A    -15.576767     5A    -11.369726     6A    -11.312880
       7A    -11.310885     8A    -11.283769     9A    -11.254498
      10A    -11.253854    11A    -11.235561    12A    -11.213890
      13A     -1.394698    14A     -1.315561    15A     -1.207854
      16A     -1.132495    17A     -1.082980    18A     -1.046079
      19A     -0.953595    20A     -0.910658    21A     -0.901449
      22A     -0.802789    23A     -0.799896    24A     -0.714641
      25A     -0.706654    26A     -0.681677    27A     -0.642190
      28A     -0.634910    29A     -0.607836    30A     -0.592954
      31A     -0.586204    32A     -0.574543    33A     -0.563655
      34A     -0.553497    35A     -0.524696    36A     -0.493639
      37A     -0.454060    38A     -0.431747    39A     -0.421440
      40A     -0.408655    41A     -0.342382    42A     -0.330616

  @DF-RHF Final Energy:  -525.54321830252843

   => Energetics <=

    Nuclear Repulsion Energy =            659.0665673511184650
    One-Electron Energy =               -2020.3495329729653349
    Two-Electron Energy =                 835.7397473193184396
    Total Energy =                       -525.5432183025284303
  Basis Set: (AUG-CC-PVTZ AUX)
    Blend: AUG-CC-PVTZ-RI
    Molecular point group: c1

    Geometry (in Angstrom), charge = 0, multiplicity = 1:

       Center              X                  Y                   Z               Mass
    ------------   -----------------  -----------------  -----------------  -----------------
         N            0.824830972266    -0.258211923885    -0.036539400237    14.003074004430
         N            1.367277972266    -1.485562923885    -0.265618400237    14.003074004430
         N           -1.073051027734     1.028371076115    -0.452284400237    14.003074004430
         N           -1.259898027734    -1.202379923885     0.430567599763    14.003074004430
         C            1.746362772266     0.693792976115     0.126763099763    12.000000000000
         C            2.987345972266     0.094027076115     0.009444599763    12.000000000000
         C           -0.581619027734    -0.138703923885    -0.017009400237    12.000000000000
         C            1.462672972266     2.165517076115     0.439499599763    12.000000000000
         C            2.688121972266    -1.258468923885    -0.238477400237    12.000000000000
         C           -2.412354027734     1.133630076115    -0.430391400237    12.000000000000
         C           -2.595185027734    -1.076710923885     0.405074599763    12.000000000000
         C           -3.232731027734     0.087733076115    -0.019784400237    12.000000000000
         H            3.961592972266     0.555734076115     0.100763599763     1.007825032230
         H            1.021922972266     2.679517076115    -0.416624400237     1.007825032230
         H            0.763177972266     2.261138076115     1.274853599763     1.007825032230
         H            2.395161972266     2.665340076115     0.714863599763     1.007825032230
         H            3.364884972266    -2.086392923885    -0.408402400237     1.007825032230
         H           -2.821750027734     2.082331076115    -0.771861400237     1.007825032230
         H           -3.159705027734    -1.939304923885     0.753978599763     1.007825032230
         H           -4.313945027734     0.176665076115    -0.023342400237     1.007825032230

  Basis Set: AUG-CC-PVTZ
    Blend: AUG-CC-PVTZ
  Basis Set: (AUG-CC-PVTZ AUX)
    Blend: AUG-CC-PVTZ-JKFIT
	 Reference Energy          =    -525.5432183025284303 [Eh]
	 Singles Energy            =      -0.0000000000000000 [Eh]
	 Same-Spin Energy          =      -0.5769799377355286 [Eh]
	 Opposite-Spin Energy      =      -1.7374458405247011 [Eh]
	 Correlation Energy        =      -2.3144257782602295 [Eh]
	 Total Energy              =    -527.8576440807886456 [Eh]

	 ================> DF-SCS-MP2 Energies <==================
	-----------------------------------------------------------
	 SCS Same-Spin Scale       =       0.3333333333333333 [-]
	 SCS Opposite-Spin Scale   =       1.2000000000000000 [-]
	 SCS Same-Spin Energy      =      -0.1923266459118428 [Eh]
	 SCS Opposite-Spin Energy  =      -2.0849350086296412 [Eh]
	 SCS Correlation Energy    =      -2.2772616545414839 [Eh]
	 SCS Total Energy          =    -527.8204799570698924 [Eh]
	-----------------------------------------------------------

  Dipole Moment: [D]
     X:    -2.7330      Y:     2.5265      Z:     0.4330     Total:     3.7470

*** Psi4 exiting successfully. Buy a developer a beer!
