                               Psi4 1.3.2 release

  ==> Input File <==

--------------------------------------------------------------------------
#psi4
#
memory 32 gb

molecule  {
0 1
  N        0.8160970    -0.2990240    -0.0443680
  N        1.3585440    -1.5263750    -0.2734470
  N       -1.0817850     0.9875590    -0.4601130
  N       -1.2686320    -1.2431920     0.4227390
  C        1.7597130     0.6951090     0.1272320
  C        2.8332753     0.0760006     0.0089685
  C       -0.5903530    -0.1795160    -0.0248380
  C        1.4539390     2.1247050     0.4316710
  C        2.6793880    -1.2992810    -0.2463060
  C       -2.4210880     1.0928180    -0.4382200
  C       -2.6039190    -1.1175230     0.3972460
  C       -3.2414650     0.0469210    -0.0276130
  H        3.9528590     0.5149220     0.0929350
  H        1.0131890     2.6387050    -0.4244530
  H        0.7544440     2.2203260     1.2670250
  H        2.3864280     2.6245280     0.7070350
  H        3.3561510    -2.1272050    -0.4162310
  H       -2.8304840     2.0415190    -0.7796900
  H       -3.1684390    -1.9801170     0.7461500
  H       -4.3226790     0.1358530    -0.0311710
units angstrom
no_reorient  #important for SAPT in psi4, default
symmetry c1  #important for SAPT in psi4, default
}

set PROPERTIES_ORIGIN ["COM"]
properties('MP2/aug-cc-pvtz', properties = ['dipole'])
--------------------------------------------------------------------------

    Molecular point group: c1
  Charge       = 0
  Multiplicity = 1
  Basis Set: AUG-CC-PVTZ
    Blend: AUG-CC-PVTZ
  Basis Set: (AUG-CC-PVTZ AUX)
    Blend: AUG-CC-PVTZ-JKFIT

    Orbital Energies [Eh]
    ---------------------

    Doubly Occupied:

       1A    -15.633711     2A    -15.589124     3A    -15.579410
       4A    -15.575648     5A    -11.364268     6A    -11.309580
       7A    -11.307499     8A    -11.264111     9A    -11.254919
      10A    -11.250036    11A    -11.233633    12A    -11.212560
      13A     -1.391653    14A     -1.313384    15A     -1.203615
      16A     -1.129544    17A     -1.103477    18A     -1.044906
      19A     -0.962456    20A     -0.907553    21A     -0.892362
      22A     -0.808896    23A     -0.782823    24A     -0.718974
      25A     -0.707300    26A     -0.684280    27A     -0.641894
      28A     -0.630281    29A     -0.602087    30A     -0.588800
      31A     -0.583972    32A     -0.577593    33A     -0.556028
      34A     -0.553953    35A     -0.530616    36A     -0.489430
      37A     -0.452352    38A     -0.428618    39A     -0.418032
      40A     -0.408877    41A     -0.354325    42A     -0.334361

  @DF-RHF Final Energy:  -525.51257696696905

   => Energetics <=

    Nuclear Repulsion Energy =            661.7593083971175929
    One-Electron Energy =               -2025.7898895279167846
    Two-Electron Energy =                 838.5180041638301418
    Total Energy =                       -525.5125769669690499
  Basis Set: (AUG-CC-PVTZ AUX)
    Blend: AUG-CC-PVTZ-RI
    Molecular point group: c1

    Geometry (in Angstrom), charge = 0, multiplicity = 1:

       Center              X                  Y                   Z               Mass
    ------------   -----------------  -----------------  -----------------  -----------------
         N            0.834070584687    -0.263078173485    -0.037712601059    14.003074004430
         N            1.376517584687    -1.490429173485    -0.266791601059    14.003074004430
         N           -1.063811415313     1.023504826515    -0.453457601059    14.003074004430
         N           -1.250658415313    -1.207246173485     0.429394398941    14.003074004430
         C            1.777686584687     0.731054826515     0.133887398941    12.000000000000
         C            2.851248884687     0.111946426515     0.015623898941    12.000000000000
         C           -0.572379415313    -0.143570173485    -0.018182601059    12.000000000000
         C            1.471912584687     2.160650826515     0.438326398941    12.000000000000
         C            2.697361584687    -1.263335173485    -0.239650601059    12.000000000000
         C           -2.403114415313     1.128763826515    -0.431564601059    12.000000000000
         C           -2.585945415313    -1.081577173485     0.403901398941    12.000000000000
         C           -3.223491415313     0.082866826515    -0.020957601059    12.000000000000
         H            3.970832584687     0.550867826515     0.099590398941     1.007825032230
         H            1.031162584687     2.674650826515    -0.417797601059     1.007825032230
         H            0.772417584687     2.256271826515     1.273680398941     1.007825032230
         H            2.404401584687     2.660473826515     0.713690398941     1.007825032230
         H            3.374124584687    -2.091259173485    -0.409575601059     1.007825032230
         H           -2.812510415313     2.077464826515    -0.773034601059     1.007825032230
         H           -3.150465415313    -1.944171173485     0.752805398941     1.007825032230
         H           -4.304705415313     0.171798826515    -0.024515601059     1.007825032230

  Basis Set: AUG-CC-PVTZ
    Blend: AUG-CC-PVTZ
  Basis Set: (AUG-CC-PVTZ AUX)
    Blend: AUG-CC-PVTZ-JKFIT
	 Reference Energy          =    -525.5125769669690499 [Eh]
	 Singles Energy            =      -0.0000000000000000 [Eh]
	 Same-Spin Energy          =      -0.5768217883118962 [Eh]
	 Opposite-Spin Energy      =      -1.7378902173851372 [Eh]
	 Correlation Energy        =      -2.3147120056970332 [Eh]
	 Total Energy              =    -527.8272889726661106 [Eh]

	 ================> DF-SCS-MP2 Energies <==================
	-----------------------------------------------------------
	 SCS Same-Spin Scale       =       0.3333333333333333 [-]
	 SCS Opposite-Spin Scale   =       1.2000000000000000 [-]
	 SCS Same-Spin Energy      =      -0.1922739294372987 [Eh]
	 SCS Opposite-Spin Energy  =      -2.0854682608621644 [Eh]
	 SCS Correlation Energy    =      -2.2777421902994632 [Eh]
	 SCS Total Energy          =    -527.7903191572685273 [Eh]
	-----------------------------------------------------------

  Dipole Moment: [D]
     X:    -2.3364      Y:     2.4535      Z:     0.4170     Total:     3.4135

*** Psi4 exiting successfully. Buy a developer a beer!
