                               Psi4 1.3.2 release

  ==> Input File <==

--------------------------------------------------------------------------
#psi4
#
memory 32 gb

molecule  {
0 1
  N        0.8160970    -0.2990240    -0.0443680
  N        1.3585440    -1.5263750    -0.2734470
  N       -1.0817850     0.9875590    -0.4601130
  N       -1.2686320    -1.2431920     0.4227390
  C        1.7597130     0.6951090     0.1272320
  C        2.9786120     0.0532150     0.0016160
  C       -0.5903530    -0.1795160    -0.0248380
  C        1.4539390     2.1247050     0.4316710
  C        2.6368608    -1.4915045    -0.2815419
  C       -2.4210880     1.0928180    -0.4382200
  C       -2.6039190    -1.1175230     0.3972460
  C       -3.2414650     0.0469210    -0.0276130
  H        3.9528590     0.5149220     0.0929350
  H        1.0131890     2.6387050    -0.4244530
  H        0.7544440     2.2203260     1.2670250
  H        2.3864280     2.6245280     0.7070350
  H        3.3561510    -2.1272050    -0.4162310
  H       -2.8304840     2.0415190    -0.7796900
  H       -3.1684390    -1.9801170     0.7461500
  H       -4.3226790     0.1358530    -0.0311710
units angstrom
no_reorient  #important for SAPT in psi4, default
symmetry c1  #important for SAPT in psi4, default
}

set PROPERTIES_ORIGIN ["COM"]
properties('MP2/aug-cc-pvtz', properties = ['dipole'])
--------------------------------------------------------------------------

    Molecular point group: c1
  Charge       = 0
  Multiplicity = 1
  Basis Set: AUG-CC-PVTZ
    Blend: AUG-CC-PVTZ
  Basis Set: (AUG-CC-PVTZ AUX)
    Blend: AUG-CC-PVTZ-JKFIT

    Orbital Energies [Eh]
    ---------------------

    Doubly Occupied:

       1A    -15.637659     2A    -15.589392     3A    -15.580370
       4A    -15.576506     5A    -11.366768     6A    -11.310337
       7A    -11.308200     8A    -11.283396     9A    -11.263588
      10A    -11.250615    11A    -11.233104    12A    -11.225362
      13A     -1.385150    14A     -1.311598    15A     -1.204469
      16A     -1.141341    17A     -1.081229    18A     -1.036647
      19A     -0.947427    20A     -0.908988    21A     -0.895104
      22A     -0.819929    23A     -0.790320    24A     -0.720246
      25A     -0.706269    26A     -0.674568    27A     -0.652194
      28A     -0.633568    29A     -0.618659    30A     -0.596819
      31A     -0.583505    32A     -0.576695    33A     -0.554745
      34A     -0.551710    35A     -0.532918    36A     -0.489847
      37A     -0.433263    38A     -0.428174    39A     -0.411603
      40A     -0.406912    41A     -0.353771    42A     -0.318295

  @DF-RHF Final Energy:  -525.50869414018507

   => Energetics <=

    Nuclear Repulsion Energy =            656.3208606473814370
    One-Electron Energy =               -2014.8765867910306042
    Two-Electron Energy =                 833.0470320034642100
    Total Energy =                       -525.5086941401850709
  Basis Set: (AUG-CC-PVTZ AUX)
    Blend: AUG-CC-PVTZ-RI
    Molecular point group: c1

    Geometry (in Angstrom), charge = 0, multiplicity = 1:

       Center              X                  Y                   Z               Mass
    ------------   -----------------  -----------------  -----------------  -----------------
         N            0.826363479896    -0.246960035913    -0.034519965537    14.003074004430
         N            1.368810479896    -1.474311035913    -0.263598965537    14.003074004430
         N           -1.071518520104     1.039622964087    -0.450264965537    14.003074004430
         N           -1.258365520104    -1.191128035913     0.432587034463    14.003074004430
         C            1.769979479896     0.747172964087     0.137080034463    12.000000000000
         C            2.988878479896     0.105278964087     0.011464034463    12.000000000000
         C           -0.580086520104    -0.127452035913    -0.014989965537    12.000000000000
         C            1.464205479896     2.176768964087     0.441519034463    12.000000000000
         C            2.647127279896    -1.439440535913    -0.271693865537    12.000000000000
         C           -2.410821520104     1.144881964087    -0.428371965537    12.000000000000
         C           -2.593652520104    -1.065459035913     0.407094034463    12.000000000000
         C           -3.231198520104     0.098984964087    -0.017764965537    12.000000000000
         H            3.963125479896     0.566985964087     0.102783034463     1.007825032230
         H            1.023455479896     2.690768964087    -0.414604965537     1.007825032230
         H            0.764710479896     2.272389964087     1.276873034463     1.007825032230
         H            2.396694479896     2.676591964087     0.716883034463     1.007825032230
         H            3.366417479896    -2.075141035913    -0.406382965537     1.007825032230
         H           -2.820217520104     2.093582964087    -0.769841965537     1.007825032230
         H           -3.158172520104    -1.928053035913     0.755998034463     1.007825032230
         H           -4.312412520104     0.187916964087    -0.021322965537     1.007825032230

  Basis Set: AUG-CC-PVTZ
    Blend: AUG-CC-PVTZ
  Basis Set: (AUG-CC-PVTZ AUX)
    Blend: AUG-CC-PVTZ-JKFIT
	 Reference Energy          =    -525.5086941401850709 [Eh]
	 Singles Energy            =      -0.0000000000000000 [Eh]
	 Same-Spin Energy          =      -0.5743842376486807 [Eh]
	 Opposite-Spin Energy      =      -1.7365808285444539 [Eh]
	 Correlation Energy        =      -2.3109650661931349 [Eh]
	 Total Energy              =    -527.8196592063782191 [Eh]

	 ================> DF-SCS-MP2 Energies <==================
	-----------------------------------------------------------
	 SCS Same-Spin Scale       =       0.3333333333333333 [-]
	 SCS Opposite-Spin Scale   =       1.2000000000000000 [-]
	 SCS Same-Spin Energy      =      -0.1914614125495602 [Eh]
	 SCS Opposite-Spin Energy  =      -2.0838969942533447 [Eh]
	 SCS Correlation Energy    =      -2.2753584068029049 [Eh]
	 SCS Total Energy          =    -527.7840525469879367 [Eh]
	-----------------------------------------------------------

  Dipole Moment: [D]
     X:    -2.3524      Y:     2.1819      Z:     0.3676     Total:     3.2295

*** Psi4 exiting successfully. Buy a developer a beer!
