                               Psi4 1.3.2 release

  ==> Input File <==

--------------------------------------------------------------------------
#psi4
#
memory 32 gb

molecule  {
0 1
  N        0.8160970    -0.2990240    -0.0443680
  N        1.3585440    -1.5263750    -0.2734470
  N       -1.0817850     0.9875590    -0.4601130
  N       -1.2686320    -1.2431920     0.4227390
  C        1.7597130     0.6951090     0.1272320
  C        2.9786120     0.0532150     0.0016160
  C       -0.5903530    -0.1795160    -0.0248380
  C        1.4539390     2.1247050     0.4316710
  C        2.6793880    -1.2992810    -0.2463060
  C       -2.4607898     1.1192516    -0.4473393
  C       -2.6039190    -1.1175230     0.3972460
  C       -3.2414650     0.0469210    -0.0276130
  H        3.9528590     0.5149220     0.0929350
  H        1.0131890     2.6387050    -0.4244530
  H        0.7544440     2.2203260     1.2670250
  H        2.3864280     2.6245280     0.7070350
  H        3.3561510    -2.1272050    -0.4162310
  H       -2.8304840     2.0415190    -0.7796900
  H       -3.1684390    -1.9801170     0.7461500
  H       -4.3226790     0.1358530    -0.0311710
units angstrom
no_reorient  #important for SAPT in psi4, default
symmetry c1  #important for SAPT in psi4, default
}

set PROPERTIES_ORIGIN ["COM"]
properties('MP2/aug-cc-pvtz', properties = ['dipole'])
--------------------------------------------------------------------------

    Molecular point group: c1
  Charge       = 0
  Multiplicity = 1
  Basis Set: AUG-CC-PVTZ
    Blend: AUG-CC-PVTZ
  Basis Set: (AUG-CC-PVTZ AUX)
    Blend: AUG-CC-PVTZ-JKFIT

    Orbital Energies [Eh]
    ---------------------

    Doubly Occupied:

       1A    -15.641266     2A    -15.583319     3A    -15.580794
       4A    -15.579392     5A    -11.365943     6A    -11.313169
       7A    -11.311051     8A    -11.285906     9A    -11.254883
      10A    -11.253790    11A    -11.233783    12A    -11.216509
      13A     -1.384784    14A     -1.306633    15A     -1.198318
      16A     -1.128063    17A     -1.083548    18A     -1.045130
      19A     -0.957867    20A     -0.913839    21A     -0.893006
      22A     -0.801817    23A     -0.794154    24A     -0.712394
      25A     -0.705283    26A     -0.681721    27A     -0.637606
      28A     -0.635630    29A     -0.611805    30A     -0.591049
      31A     -0.587282    32A     -0.573036    33A     -0.562720
      34A     -0.550778    35A     -0.534765    36A     -0.487346
      37A     -0.454360    38A     -0.425065    39A     -0.420401
      40A     -0.408238    41A     -0.338240    42A     -0.331628

  @DF-RHF Final Energy:  -525.53864853409095

   => Energetics <=

    Nuclear Repulsion Energy =            657.2220100729267642
    One-Electron Energy =               -2016.7686998286633298
    Two-Electron Energy =                 834.0080412216457262
    Total Energy =                       -525.5386485340909530
  Basis Set: (AUG-CC-PVTZ AUX)
    Blend: AUG-CC-PVTZ-RI
    Molecular point group: c1

    Geometry (in Angstrom), charge = 0, multiplicity = 1:

       Center              X                  Y                   Z               Mass
    ------------   -----------------  -----------------  -----------------  -----------------
         N            0.826151674043    -0.263351645472    -0.036477794074    14.003074004430
         N            1.368598674043    -1.490702645472    -0.265556794074    14.003074004430
         N           -1.071730325957     1.023231354528    -0.452222794074    14.003074004430
         N           -1.258577325957    -1.207519645472     0.430629205926    14.003074004430
         C            1.769767674043     0.730781354528     0.135122205926    12.000000000000
         C            2.988666674043     0.088887354528     0.009506205926    12.000000000000
         C           -0.580298325957    -0.143843645472    -0.016947794074    12.000000000000
         C            1.463993674043     2.160377354528     0.439561205926    12.000000000000
         C            2.689442674043    -1.263608645472    -0.238415794074    12.000000000000
         C           -2.450735125957     1.154923954528    -0.439449094074    12.000000000000
         C           -2.593864325957    -1.081850645472     0.405136205926    12.000000000000
         C           -3.231410325957     0.082593354528    -0.019722794074    12.000000000000
         H            3.962913674043     0.550594354528     0.100825205926     1.007825032230
         H            1.023243674043     2.674377354528    -0.416562794074     1.007825032230
         H            0.764498674043     2.255998354528     1.274915205926     1.007825032230
         H            2.396482674043     2.660200354528     0.714925205926     1.007825032230
         H            3.366205674043    -2.091532645472    -0.408340794074     1.007825032230
         H           -2.820429325957     2.077191354528    -0.771799794074     1.007825032230
         H           -3.158384325957    -1.944444645472     0.754040205926     1.007825032230
         H           -4.312624325957     0.171525354528    -0.023280794074     1.007825032230

  Basis Set: AUG-CC-PVTZ
    Blend: AUG-CC-PVTZ
  Basis Set: (AUG-CC-PVTZ AUX)
    Blend: AUG-CC-PVTZ-JKFIT
	 Reference Energy          =    -525.5386485340909530 [Eh]
	 Singles Energy            =      -0.0000000000000000 [Eh]
	 Same-Spin Energy          =      -0.5779400131333956 [Eh]
	 Opposite-Spin Energy      =      -1.7398666671725891 [Eh]
	 Correlation Energy        =      -2.3178066803059849 [Eh]
	 Total Energy              =    -527.8564552143969877 [Eh]

	 ================> DF-SCS-MP2 Energies <==================
	-----------------------------------------------------------
	 SCS Same-Spin Scale       =       0.3333333333333333 [-]
	 SCS Opposite-Spin Scale   =       1.2000000000000000 [-]
	 SCS Same-Spin Energy      =      -0.1926466710444652 [Eh]
	 SCS Opposite-Spin Energy  =      -2.0878400006071067 [Eh]
	 SCS Correlation Energy    =      -2.2804866716515719 [Eh]
	 SCS Total Energy          =    -527.8191352057425547 [Eh]
	-----------------------------------------------------------

  Dipole Moment: [D]
     X:    -2.6677      Y:     2.5877      Z:     0.4305     Total:     3.7414

*** Psi4 exiting successfully. Buy a developer a beer!
