                               Psi4 1.3.2 release

  ==> Input File <==

--------------------------------------------------------------------------
#psi4
#
memory 32 gb

molecule  {
0 1
  N        0.8160970    -0.2990240    -0.0443680
  N        1.3585440    -1.5263750    -0.2734470
  N       -1.0817850     0.9875590    -0.4601130
  N       -1.2686320    -1.2431920     0.4227390
  C        1.7597130     0.6951090     0.1272320
  C        2.9786120     0.0532150     0.0016160
  C       -0.5903530    -0.1795160    -0.0248380
  C        1.4539390     2.1247050     0.4316710
  C        2.6793880    -1.2992810    -0.2463060
  C       -2.4210880     1.0928180    -0.4382200
  C       -2.6039190    -1.1175230     0.3972460
  C       -3.2609402     0.0606776    -0.0322009
  H        3.9528590     0.5149220     0.0929350
  H        1.0131890     2.6387050    -0.4244530
  H        0.7544440     2.2203260     1.2670250
  H        2.3864280     2.6245280     0.7070350
  H        3.3561510    -2.1272050    -0.4162310
  H       -2.8304840     2.0415190    -0.7796900
  H       -3.1684390    -1.9801170     0.7461500
  H       -4.3226790     0.1358530    -0.0311710
units angstrom
no_reorient  #important for SAPT in psi4, default
symmetry c1  #important for SAPT in psi4, default
}

set PROPERTIES_ORIGIN ["COM"]
properties('MP2/aug-cc-pvtz', properties = ['dipole'])
--------------------------------------------------------------------------

    Molecular point group: c1
  Charge       = 0
  Multiplicity = 1
  Basis Set: AUG-CC-PVTZ
    Blend: AUG-CC-PVTZ
  Basis Set: (AUG-CC-PVTZ AUX)
    Blend: AUG-CC-PVTZ-JKFIT

    Orbital Energies [Eh]
    ---------------------

    Doubly Occupied:

       1A    -15.642436     2A    -15.581979     3A    -15.581702
       4A    -15.579449     5A    -11.368078     6A    -11.312727
       7A    -11.310722     8A    -11.286971     9A    -11.254812
      10A    -11.253174    11A    -11.234730    12A    -11.217532
      13A     -1.386532    14A     -1.311871    15A     -1.205801
      16A     -1.128799    17A     -1.083968    18A     -1.044498
      19A     -0.958895    20A     -0.907436    21A     -0.897312
      22A     -0.800003    23A     -0.795308    24A     -0.712014
      25A     -0.707462    26A     -0.684899    27A     -0.639091
      28A     -0.636071    29A     -0.604434    30A     -0.589816
      31A     -0.585609    32A     -0.574638    33A     -0.564186
      34A     -0.552433    35A     -0.536187    36A     -0.493563
      37A     -0.455271    38A     -0.430475    39A     -0.419602
      40A     -0.406628    41A     -0.337827    42A     -0.332590

  @DF-RHF Final Energy:  -525.54280867380692

   => Energetics <=

    Nuclear Repulsion Energy =            657.8275735068122003
    One-Electron Energy =               -2017.9257025452027392
    Two-Electron Energy =                 834.5553203645837357
    Total Energy =                       -525.5428086738069169
  Basis Set: (AUG-CC-PVTZ AUX)
    Blend: AUG-CC-PVTZ-RI
    Molecular point group: c1

    Geometry (in Angstrom), charge = 0, multiplicity = 1:

       Center              X                  Y                   Z               Mass
    ------------   -----------------  -----------------  -----------------  -----------------
         N            0.824635388819    -0.262401315324    -0.036817490062    14.003074004430
         N            1.367082388819    -1.489752315324    -0.265896490062    14.003074004430
         N           -1.073246611181     1.024181684676    -0.452562490062    14.003074004430
         N           -1.260093611181    -1.206569315324     0.430289509938    14.003074004430
         C            1.768251388819     0.731731684676     0.134782509938    12.000000000000
         C            2.987150388819     0.089837684676     0.009166509938    12.000000000000
         C           -0.581814611181    -0.142893315324    -0.017287490062    12.000000000000
         C            1.462477388819     2.161327684676     0.439221509938    12.000000000000
         C            2.687926388819    -1.262658315324    -0.238755490062    12.000000000000
         C           -2.412549611181     1.129440684676    -0.430669490062    12.000000000000
         C           -2.595380611181    -1.080900315324     0.404796509938    12.000000000000
         C           -3.252401811181     0.097300284676    -0.024650390062    12.000000000000
         H            3.961397388819     0.551544684676     0.100485509938     1.007825032230
         H            1.021727388819     2.675327684676    -0.416902490062     1.007825032230
         H            0.762982388819     2.256948684676     1.274575509938     1.007825032230
         H            2.394966388819     2.661150684676     0.714585509938     1.007825032230
         H            3.364689388819    -2.090582315324    -0.408680490062     1.007825032230
         H           -2.821945611181     2.078141684676    -0.772139490062     1.007825032230
         H           -3.159900611181    -1.943494315324     0.753700509938     1.007825032230
         H           -4.314140611181     0.172475684676    -0.023620490062     1.007825032230

  Basis Set: AUG-CC-PVTZ
    Blend: AUG-CC-PVTZ
  Basis Set: (AUG-CC-PVTZ AUX)
    Blend: AUG-CC-PVTZ-JKFIT
	 Reference Energy          =    -525.5428086738069169 [Eh]
	 Singles Energy            =      -0.0000000000000000 [Eh]
	 Same-Spin Energy          =      -0.5774393803788619 [Eh]
	 Opposite-Spin Energy      =      -1.7386325624178340 [Eh]
	 Correlation Energy        =      -2.3160719427966958 [Eh]
	 Total Energy              =    -527.8588806166036420 [Eh]

	 ================> DF-SCS-MP2 Energies <==================
	-----------------------------------------------------------
	 SCS Same-Spin Scale       =       0.3333333333333333 [-]
	 SCS Opposite-Spin Scale   =       1.2000000000000000 [-]
	 SCS Same-Spin Energy      =      -0.1924797934596206 [Eh]
	 SCS Opposite-Spin Energy  =      -2.0863590749014009 [Eh]
	 SCS Correlation Energy    =      -2.2788388683610217 [Eh]
	 SCS Total Energy          =    -527.8216475421679661 [Eh]
	-----------------------------------------------------------

  Dipole Moment: [D]
     X:    -2.5706      Y:     2.5324      Z:     0.4488     Total:     3.6363

*** Psi4 exiting successfully. Buy a developer a beer!
