                               Psi4 1.3.2 release

  ==> Input File <==

--------------------------------------------------------------------------
#psi4
#
memory 32 gb

molecule  {
0 1
  N        0.8160970    -0.2990240    -0.0443680
  N        1.3585440    -1.5263750    -0.2734470
  N       -1.0817850     0.9875590    -0.4601130
  N       -1.2686320    -1.2431920     0.4227390
  C        1.7597130     0.6951090     0.1272320
  C        2.9786120     0.0532150     0.0016160
  C       -0.5903530    -0.1795160    -0.0248380
  C        1.4539390     2.1247050     0.4316710
  C        2.6793880    -1.2992810    -0.2463060
  C       -2.4210880     1.0928180    -0.4382200
  C       -2.6039190    -1.1175230     0.3972460
  C       -3.2414650     0.0469210    -0.0276130
  H        4.1329458     0.6002672     0.1098151
  H        1.0131890     2.6387050    -0.4244530
  H        0.7544440     2.2203260     1.2670250
  H        2.3864280     2.6245280     0.7070350
  H        3.3561510    -2.1272050    -0.4162310
  H       -2.8304840     2.0415190    -0.7796900
  H       -3.1684390    -1.9801170     0.7461500
  H       -4.3226790     0.1358530    -0.0311710
units angstrom
no_reorient  #important for SAPT in psi4, default
symmetry c1  #important for SAPT in psi4, default
}

set PROPERTIES_ORIGIN ["COM"]
properties('MP2/aug-cc-pvtz', properties = ['dipole'])
--------------------------------------------------------------------------

    Molecular point group: c1
  Charge       = 0
  Multiplicity = 1
  Basis Set: AUG-CC-PVTZ
    Blend: AUG-CC-PVTZ
  Basis Set: (AUG-CC-PVTZ AUX)
    Blend: AUG-CC-PVTZ-JKFIT

    Orbital Energies [Eh]
    ---------------------

    Doubly Occupied:

       1A    -15.643572     2A    -15.583107     3A    -15.582959
       4A    -15.579285     5A    -11.368150     6A    -11.311980
       7A    -11.309982     8A    -11.288707     9A    -11.256761
      10A    -11.253175    11A    -11.238318    12A    -11.234616
      13A     -1.387708    14A     -1.313362    15A     -1.206586
      16A     -1.130418    17A     -1.083978    18A     -1.044298
      19A     -0.957584    20A     -0.909400    21A     -0.895777
      22A     -0.800943    23A     -0.784793    24A     -0.713311
      25A     -0.707738    26A     -0.680364    27A     -0.639089
      28A     -0.629232    29A     -0.603065    30A     -0.588359
      31A     -0.580399    32A     -0.572795    33A     -0.553986
      34A     -0.545177    35A     -0.533623    36A     -0.491953
      37A     -0.454665    38A     -0.430993    39A     -0.420662
      40A     -0.408625    41A     -0.339067    42A     -0.333762

  @DF-RHF Final Energy:  -525.52073741742890

   => Energetics <=

    Nuclear Repulsion Energy =            657.3083977707375425
    One-Electron Energy =               -2016.8736260329042125
    Two-Electron Energy =                 834.0444908447378793
    Total Energy =                       -525.5207374174289043
  Basis Set: (AUG-CC-PVTZ AUX)
    Blend: AUG-CC-PVTZ-RI
    Molecular point group: c1

    Geometry (in Angstrom), charge = 0, multiplicity = 1:

       Center              X                  Y                   Z               Mass
    ------------   -----------------  -----------------  -----------------  -----------------
         N            0.822041613063    -0.261907382965    -0.037267697990    14.003074004430
         N            1.364488613063    -1.489258382965    -0.266346697990    14.003074004430
         N           -1.075840386937     1.024675617035    -0.453012697990    14.003074004430
         N           -1.262687386937    -1.206075382965     0.429839302010    14.003074004430
         C            1.765657613063     0.732225617035     0.134332302010    12.000000000000
         C            2.984556613063     0.090331617035     0.008716302010    12.000000000000
         C           -0.584408386937    -0.142399382965    -0.017737697990    12.000000000000
         C            1.459883613063     2.161821617035     0.438771302010    12.000000000000
         C            2.685332613063    -1.262164382965    -0.239205697990    12.000000000000
         C           -2.415143386937     1.129934617035    -0.431119697990    12.000000000000
         C           -2.597974386937    -1.080406382965     0.404346302010    12.000000000000
         C           -3.235520386937     0.084037617035    -0.020512697990    12.000000000000
         H            4.138890413063     0.637383817035     0.116915402010     1.007825032230
         H            1.019133613063     2.675821617035    -0.417352697990     1.007825032230
         H            0.760388613063     2.257442617035     1.274125302010     1.007825032230
         H            2.392372613063     2.661644617035     0.714135302010     1.007825032230
         H            3.362095613063    -2.090088382965    -0.409130697990     1.007825032230
         H           -2.824539386937     2.078635617035    -0.772589697990     1.007825032230
         H           -3.162494386937    -1.943000382965     0.753250302010     1.007825032230
         H           -4.316734386937     0.172969617035    -0.024070697990     1.007825032230

  Basis Set: AUG-CC-PVTZ
    Blend: AUG-CC-PVTZ
  Basis Set: (AUG-CC-PVTZ AUX)
    Blend: AUG-CC-PVTZ-JKFIT
	 Reference Energy          =    -525.5207374174289043 [Eh]
	 Singles Energy            =      -0.0000000000000000 [Eh]
	 Same-Spin Energy          =      -0.5780084986692124 [Eh]
	 Opposite-Spin Energy      =      -1.7407066327889344 [Eh]
	 Correlation Energy        =      -2.3187151314581467 [Eh]
	 Total Energy              =    -527.8394525488870386 [Eh]

	 ================> DF-SCS-MP2 Energies <==================
	-----------------------------------------------------------
	 SCS Same-Spin Scale       =       0.3333333333333333 [-]
	 SCS Opposite-Spin Scale   =       1.2000000000000000 [-]
	 SCS Same-Spin Energy      =      -0.1926694995564041 [Eh]
	 SCS Opposite-Spin Energy  =      -2.0888479593467211 [Eh]
	 SCS Correlation Energy    =      -2.2815174589031253 [Eh]
	 SCS Total Energy          =    -527.8022548763320856 [Eh]
	-----------------------------------------------------------

  Dipole Moment: [D]
     X:    -2.6348      Y:     2.5279      Z:     0.4342     Total:     3.6771

*** Psi4 exiting successfully. Buy a developer a beer!
