                               Psi4 1.3.2 release

  ==> Input File <==

--------------------------------------------------------------------------
#psi4
#
memory 32 gb

molecule  {
0 1
  N        0.8160970    -0.2990240    -0.0443680
  N        1.3585440    -1.5263750    -0.2734470
  N       -1.0817850     0.9875590    -0.4601130
  N       -1.2686320    -1.2431920     0.4227390
  C        1.7597130     0.6951090     0.1272320
  C        2.9786120     0.0532150     0.0016160
  C       -0.5903530    -0.1795160    -0.0248380
  C        1.4539390     2.1247050     0.4316710
  C        2.6793880    -1.2992810    -0.2463060
  C       -2.6204467     1.1084861    -0.4349612
  C       -2.6039190    -1.1175230     0.3972460
  C       -3.2414650     0.0469210    -0.0276130
  H        3.9528590     0.5149220     0.0929350
  H        1.0131890     2.6387050    -0.4244530
  H        0.7544440     2.2203260     1.2670250
  H        2.3864280     2.6245280     0.7070350
  H        3.3561510    -2.1272050    -0.4162310
  H       -2.8304840     2.0415190    -0.7796900
  H       -3.1684390    -1.9801170     0.7461500
  H       -4.3226790     0.1358530    -0.0311710
units angstrom
no_reorient  #important for SAPT in psi4, default
symmetry c1  #important for SAPT in psi4, default
}

set PROPERTIES_ORIGIN ["COM"]
properties('MP2/aug-cc-pvtz', properties = ['dipole'])
--------------------------------------------------------------------------

    Molecular point group: c1
  Charge       = 0
  Multiplicity = 1
  Basis Set: AUG-CC-PVTZ
    Blend: AUG-CC-PVTZ
  Basis Set: (AUG-CC-PVTZ AUX)
    Blend: AUG-CC-PVTZ-JKFIT

    Orbital Energies [Eh]
    ---------------------

    Doubly Occupied:

       1A    -15.638471     2A    -15.584101     3A    -15.581735
       4A    -15.578875     5A    -11.360393     6A    -11.320702
       7A    -11.308235     8A    -11.283487     9A    -11.252896
      10A    -11.251711    11A    -11.230826    12A    -11.214218
      13A     -1.381331    14A     -1.297726    15A     -1.174527
      16A     -1.132174    17A     -1.083809    18A     -1.053625
      19A     -0.955005    20A     -0.926998    21A     -0.882184
      22A     -0.801903    23A     -0.792788    24A     -0.715288
      25A     -0.706533    26A     -0.682283    27A     -0.638432
      28A     -0.625290    29A     -0.618705    30A     -0.588415
      31A     -0.584779    32A     -0.569162    33A     -0.558302
      34A     -0.547430    35A     -0.531068    36A     -0.472594
      37A     -0.451438    38A     -0.424336    39A     -0.420897
      40A     -0.407550    41A     -0.341705    42A     -0.329495

  @DF-RHF Final Energy:  -525.49820333391585

   => Energetics <=

    Nuclear Repulsion Energy =            655.3334580203400037
    One-Electron Energy =               -2013.0604848319248958
    Two-Electron Energy =                 832.2288234776690388
    Total Energy =                       -525.4982033339158534
  Basis Set: (AUG-CC-PVTZ AUX)
    Blend: AUG-CC-PVTZ-RI
    Molecular point group: c1

    Geometry (in Angstrom), charge = 0, multiplicity = 1:

       Center              X                  Y                   Z               Mass
    ------------   -----------------  -----------------  -----------------  -----------------
         N            0.838120338990    -0.262544610747    -0.037405717212    14.003074004430
         N            1.380567338990    -1.489895610747    -0.266484717212    14.003074004430
         N           -1.059761661010     1.024038389253    -0.453150717212    14.003074004430
         N           -1.246608661010    -1.206712610747     0.429701282788    14.003074004430
         C            1.781736338990     0.731588389253     0.134194282788    12.000000000000
         C            3.000635338990     0.089694389253     0.008578282788    12.000000000000
         C           -0.568329661010    -0.143036610747    -0.017875717212    12.000000000000
         C            1.475962338990     2.161184389253     0.438633282788    12.000000000000
         C            2.701411338990    -1.262801610747    -0.239343717212    12.000000000000
         C           -2.598423361010     1.144965489253    -0.427998917212    12.000000000000
         C           -2.581895661010    -1.081043610747     0.404208282788    12.000000000000
         C           -3.219441661010     0.083400389253    -0.020650717212    12.000000000000
         H            3.974882338990     0.551401389253     0.099897282788     1.007825032230
         H            1.035212338990     2.675184389253    -0.417490717212     1.007825032230
         H            0.776467338990     2.256805389253     1.273987282788     1.007825032230
         H            2.408451338990     2.661007389253     0.713997282788     1.007825032230
         H            3.378174338990    -2.090725610747    -0.409268717212     1.007825032230
         H           -2.808460661010     2.077998389253    -0.772727717212     1.007825032230
         H           -3.146415661010    -1.943637610747     0.753112282788     1.007825032230
         H           -4.300655661010     0.172332389253    -0.024208717212     1.007825032230

  Basis Set: AUG-CC-PVTZ
    Blend: AUG-CC-PVTZ
  Basis Set: (AUG-CC-PVTZ AUX)
    Blend: AUG-CC-PVTZ-JKFIT
	 Reference Energy          =    -525.4982033339158534 [Eh]
	 Singles Energy            =      -0.0000000000000000 [Eh]
	 Same-Spin Energy          =      -0.5787487646112848 [Eh]
	 Opposite-Spin Energy      =      -1.7449305260191923 [Eh]
	 Correlation Energy        =      -2.3236792906304773 [Eh]
	 Total Energy              =    -527.8218826245463333 [Eh]

	 ================> DF-SCS-MP2 Energies <==================
	-----------------------------------------------------------
	 SCS Same-Spin Scale       =       0.3333333333333333 [-]
	 SCS Opposite-Spin Scale   =       1.2000000000000000 [-]
	 SCS Same-Spin Energy      =      -0.1929162548704282 [Eh]
	 SCS Opposite-Spin Energy  =      -2.0939166312230308 [Eh]
	 SCS Correlation Energy    =      -2.2868328860934590 [Eh]
	 SCS Total Energy          =    -527.7850362200092604 [Eh]
	-----------------------------------------------------------

  Dipole Moment: [D]
     X:    -2.8930      Y:     2.5182      Z:     0.4694     Total:     3.8641

*** Psi4 exiting successfully. Buy a developer a beer!
