                               Psi4 1.4a3.dev225

  ==> Input File <==

--------------------------------------------------------------------------
#psi4
#
memory 32 gb

molecule  {
0 1
  N        0.8160970    -0.2990240    -0.0443680
  N        1.3585440    -1.5263750    -0.2734470
  N       -1.0817850     0.9875590    -0.4601130
  N       -1.2686320    -1.2431920     0.4227390
  C        1.7597130     0.6951090     0.1272320
  C        2.9786120     0.0532150     0.0016160
  C       -0.5903530    -0.1795160    -0.0248380
  C        1.4539390     2.1247050     0.4316710
  C        2.6793880    -1.2992810    -0.2463060
  C       -2.4210880     1.0928180    -0.4382200
  C       -2.6039190    -1.1175230     0.3972460
  C       -3.2414650     0.0469210    -0.0276130
  H        3.9528590     0.5149220     0.0929350
  H        1.0131890     2.6387050    -0.4244530
  H        0.7544440     2.2203260     1.2670250
  H        2.3864280     2.6245280     0.7070350
  H        3.3561510    -2.1272050    -0.4162310
  H       -2.8304840     2.0415190    -0.7796900
  H       -3.1684390    -1.9801170     0.7461500
  H       -4.2728475     0.1317543    -0.0310070
units angstrom
no_reorient  #important for SAPT in psi4, default
symmetry c1  #important for SAPT in psi4, default
}

set PROPERTIES_ORIGIN ["COM"]
properties('MP2/aug-cc-pvtz', properties = ['dipole'])
--------------------------------------------------------------------------

    Molecular point group: c1
  Charge       = 0
  Multiplicity = 1
  Basis Set: AUG-CC-PVTZ
    Blend: AUG-CC-PVTZ
  Basis Set: (AUG-CC-PVTZ AUX)
    Blend: AUG-CC-PVTZ-JKFIT

    Orbital Energies [Eh]
    ---------------------

    Doubly Occupied:

       1A    -15.642016     2A    -15.582113     3A    -15.581375
       4A    -15.578337     5A    -11.367226     6A    -11.311182
       7A    -11.309130     8A    -11.286655     9A    -11.254451
      10A    -11.246978    11A    -11.234626    12A    -11.217234
      13A     -1.386199    14A     -1.312319    15A     -1.205759
      16A     -1.129627    17A     -1.084408    18A     -1.046602
      19A     -0.958729    20A     -0.908853    21A     -0.898291
      22A     -0.800143    23A     -0.795193    24A     -0.714214
      25A     -0.708763    26A     -0.687582    27A     -0.639294
      28A     -0.637018    29A     -0.606943    30A     -0.589676
      31A     -0.586529    32A     -0.574977    33A     -0.564016
      34A     -0.552580    35A     -0.535944    36A     -0.492664
      37A     -0.454987    38A     -0.430260    39A     -0.420008
      40A     -0.407580    41A     -0.337946    42A     -0.332290

  @DF-RHF Final Energy:  -525.54282213144052

   => Energetics <=

    Nuclear Repulsion Energy =            658.5494147820659236
    One-Electron Energy =               -2019.3630363967884023
    Two-Electron Energy =                 835.2707994832819622
    Total Energy =                       -525.5428221314405164
  Basis Set: (AUG-CC-PVTZ AUX)
    Blend: AUG-CC-PVTZ-RI
    Molecular point group: c1

    Geometry (in Angstrom), charge = 0, multiplicity = 1:

       Center              X                  Y                   Z               Mass
    ------------   -----------------  -----------------  -----------------  -----------------
         N            0.822861695131    -0.261344247811    -0.037162454105    14.003074004430
         N            1.365308695131    -1.488695247811    -0.266241454105    14.003074004430
         N           -1.075020304869     1.025238752189    -0.452907454105    14.003074004430
         N           -1.261867304869    -1.205512247811     0.429944545895    14.003074004430
         C            1.766477695131     0.732788752189     0.134437545895    12.000000000000
         C            2.985376695131     0.090894752189     0.008821545895    12.000000000000
         C           -0.583588304869    -0.141836247811    -0.017632454105    12.000000000000
         C            1.460703695131     2.162384752189     0.438876545895    12.000000000000
         C            2.686152695131    -1.261601247811    -0.239100454105    12.000000000000
         C           -2.414323304869     1.130497752189    -0.431014454105    12.000000000000
         C           -2.597154304869    -1.079843247811     0.404451545895    12.000000000000
         C           -3.234700304869     0.084600752189    -0.020407454105    12.000000000000
         H            3.959623695131     0.552601752189     0.100140545895     1.007825032230
         H            1.019953695131     2.676384752189    -0.417247454105     1.007825032230
         H            0.761208695131     2.258005752189     1.274230545895     1.007825032230
         H            2.393192695131     2.662207752189     0.714240545895     1.007825032230
         H            3.362915695131    -2.089525247811    -0.409025454105     1.007825032230
         H           -2.823719304869     2.079198752189    -0.772484454105     1.007825032230
         H           -3.161674304869    -1.942437247811     0.753355545895     1.007825032230
         H           -4.266082804869     0.169434052189    -0.023801454105     1.007825032230

  Basis Set: AUG-CC-PVTZ
    Blend: AUG-CC-PVTZ
  Basis Set: (AUG-CC-PVTZ AUX)
    Blend: AUG-CC-PVTZ-JKFIT
	 Reference Energy          =    -525.5428221314405164 [Eh]
	 Singles Energy            =      -0.0000000000000000 [Eh]
	 Same-Spin Energy          =      -0.5774726078761713 [Eh]
	 Opposite-Spin Energy      =      -1.7383596931659022 [Eh]
	 Correlation Energy        =      -2.3158323010420734 [Eh]
	 Total Energy              =    -527.8586544324825809 [Eh]

	 ================> DF-SCS-MP2 Energies <==================
	-----------------------------------------------------------
	 SCS Same-Spin Scale       =       0.3333333333333333 [-]
	 SCS Opposite-Spin Scale   =       1.2000000000000000 [-]
	 SCS Same-Spin Energy      =      -0.1924908692920571 [Eh]
	 SCS Opposite-Spin Energy  =      -2.0860316317990826 [Eh]
	 SCS Correlation Energy    =      -2.2785225010911399 [Eh]
	 SCS Total Energy          =    -527.8213446325316909 [Eh]
	-----------------------------------------------------------

  Dipole Moment: [D]
     X:    -2.5864      Y:     2.5554      Z:     0.4397     Total:     3.6624

*** Psi4 exiting successfully. Buy a developer a beer!
