                               Psi4 1.4a3.dev225

  ==> Input File <==

--------------------------------------------------------------------------
#psi4
#
memory 32 gb

molecule  {
0 1
  N        0.8160970    -0.2990240    -0.0443680
  N        1.3585440    -1.5263750    -0.2734470
  N       -1.0817850     0.9875590    -0.4601130
  N       -1.2686320    -1.2431920     0.4227390
  C        1.7597130     0.6951090     0.1272320
  C        2.9786120     0.0532150     0.0016160
  C       -0.6401687    -0.1752831    -0.0241463
  C        1.4539390     2.1247050     0.4316710
  C        2.6793880    -1.2992810    -0.2463060
  C       -2.4210880     1.0928180    -0.4382200
  C       -2.6039190    -1.1175230     0.3972460
  C       -3.2414650     0.0469210    -0.0276130
  H        3.9528590     0.5149220     0.0929350
  H        1.0131890     2.6387050    -0.4244530
  H        0.7544440     2.2203260     1.2670250
  H        2.3864280     2.6245280     0.7070350
  H        3.3561510    -2.1272050    -0.4162310
  H       -2.8304840     2.0415190    -0.7796900
  H       -3.1684390    -1.9801170     0.7461500
  H       -4.3226790     0.1358530    -0.0311710
units angstrom
no_reorient  #important for SAPT in psi4, default
symmetry c1  #important for SAPT in psi4, default
}

set PROPERTIES_ORIGIN ["COM"]
properties('MP2/aug-cc-pvtz', properties = ['dipole'])
--------------------------------------------------------------------------

    Molecular point group: c1
  Charge       = 0
  Multiplicity = 1
  Basis Set: AUG-CC-PVTZ
    Blend: AUG-CC-PVTZ
  Basis Set: (AUG-CC-PVTZ AUX)
    Blend: AUG-CC-PVTZ-JKFIT

    Orbital Energies [Eh]
    ---------------------

    Doubly Occupied:

       1A    -15.636735     2A    -15.586193     3A    -15.582534
       4A    -15.576844     5A    -11.367651     6A    -11.315895
       7A    -11.314021     8A    -11.281235     9A    -11.257043
      10A    -11.248908    11A    -11.232427    12A    -11.212307
      13A     -1.379482    14A     -1.321670    15A     -1.218954
      16A     -1.121291    17A     -1.080889    18A     -1.043094
      19A     -0.955132    20A     -0.916530    21A     -0.895038
      22A     -0.794751    23A     -0.789422    24A     -0.717511
      25A     -0.708962    26A     -0.679530    27A     -0.635904
      28A     -0.634030    29A     -0.609615    30A     -0.587441
      31A     -0.583152    32A     -0.577115    33A     -0.560425
      34A     -0.550973    35A     -0.532550    36A     -0.493234
      37A     -0.452755    38A     -0.436854    39A     -0.428911
      40A     -0.406735    41A     -0.338751    42A     -0.327702

  @DF-RHF Final Energy:  -525.54107928559097

   => Energetics <=

    Nuclear Repulsion Energy =            658.2219878661751409
    One-Electron Energy =               -2018.7457446144287587
    Two-Electron Energy =                 834.9826774626626502
    Total Energy =                       -525.5410792855909676
  Basis Set: (AUG-CC-PVTZ AUX)
    Blend: AUG-CC-PVTZ-RI
    Molecular point group: c1

    Geometry (in Angstrom), charge = 0, multiplicity = 1:

       Center              X                  Y                   Z               Mass
    ------------   -----------------  -----------------  -----------------  -----------------
         N            0.826909861634    -0.261687372022    -0.037213274795    14.003074004430
         N            1.369356861634    -1.489038372022    -0.266292274795    14.003074004430
         N           -1.070972138366     1.024895627978    -0.452958274795    14.003074004430
         N           -1.257819138366    -1.205855372022     0.429893725205    14.003074004430
         C            1.770525861634     0.732445627978     0.134386725205    12.000000000000
         C            2.989424861634     0.090551627978     0.008770725205    12.000000000000
         C           -0.629355838366    -0.137946472022    -0.016991574795    12.000000000000
         C            1.464751861634     2.162041627978     0.438825725205    12.000000000000
         C            2.690200861634    -1.261944372022    -0.239151274795    12.000000000000
         C           -2.410275138366     1.130154627978    -0.431065274795    12.000000000000
         C           -2.593106138366    -1.080186372022     0.404400725205    12.000000000000
         C           -3.230652138366     0.084257627978    -0.020458274795    12.000000000000
         H            3.963671861634     0.552258627978     0.100089725205     1.007825032230
         H            1.024001861634     2.676041627978    -0.417298274795     1.007825032230
         H            0.765256861634     2.257662627978     1.274179725205     1.007825032230
         H            2.397240861634     2.661864627978     0.714189725205     1.007825032230
         H            3.366963861634    -2.089868372022    -0.409076274795     1.007825032230
         H           -2.819671138366     2.078855627978    -0.772535274795     1.007825032230
         H           -3.157626138366    -1.942780372022     0.753304725205     1.007825032230
         H           -4.311866138366     0.173189627978    -0.024016274795     1.007825032230

  Basis Set: AUG-CC-PVTZ
    Blend: AUG-CC-PVTZ
  Basis Set: (AUG-CC-PVTZ AUX)
    Blend: AUG-CC-PVTZ-JKFIT
	 Reference Energy          =    -525.5410792855909676 [Eh]
	 Singles Energy            =      -0.0000000000000000 [Eh]
	 Same-Spin Energy          =      -0.5775160960257655 [Eh]
	 Opposite-Spin Energy      =      -1.7384413393704612 [Eh]
	 Correlation Energy        =      -2.3159574353962267 [Eh]
	 Total Energy              =    -527.8570367209871392 [Eh]

	 ================> DF-SCS-MP2 Energies <==================
	-----------------------------------------------------------
	 SCS Same-Spin Scale       =       0.3333333333333333 [-]
	 SCS Opposite-Spin Scale   =       1.2000000000000000 [-]
	 SCS Same-Spin Energy      =      -0.1925053653419218 [Eh]
	 SCS Opposite-Spin Energy  =      -2.0861296072445534 [Eh]
	 SCS Correlation Energy    =      -2.2786349725864752 [Eh]
	 SCS Total Energy          =    -527.8197142581774415 [Eh]
	-----------------------------------------------------------

  Dipole Moment: [D]
     X:    -3.1168      Y:     2.5812      Z:     0.4458     Total:     4.0713

*** Psi4 exiting successfully. Buy a developer a beer!
