                               Psi4 1.3.2 release

  ==> Input File <==

--------------------------------------------------------------------------
#psi4
#
memory 32 gb

molecule  {
0 1
  N        0.8160970    -0.2990240    -0.0443680
  N        1.3585440    -1.5263750    -0.2734470
  N       -1.0817850     0.9875590    -0.4601130
  N       -1.2686320    -1.2431920     0.4227390
  C        1.7597130     0.6951090     0.1272320
  C        2.9786120     0.0532150     0.0016160
  C       -0.5903530    -0.1795160    -0.0248380
  C        1.4539390     2.1247050     0.4316710
  C        2.7275567    -1.3087968    -0.2476649
  C       -2.4210880     1.0928180    -0.4382200
  C       -2.6039190    -1.1175230     0.3972460
  C       -3.2414650     0.0469210    -0.0276130
  H        3.9528590     0.5149220     0.0929350
  H        1.0131890     2.6387050    -0.4244530
  H        0.7544440     2.2203260     1.2670250
  H        2.3864280     2.6245280     0.7070350
  H        3.3561510    -2.1272050    -0.4162310
  H       -2.8304840     2.0415190    -0.7796900
  H       -3.1684390    -1.9801170     0.7461500
  H       -4.3226790     0.1358530    -0.0311710
units angstrom
no_reorient  #important for SAPT in psi4, default
symmetry c1  #important for SAPT in psi4, default
}

set PROPERTIES_ORIGIN ["COM"]
properties('MP2/aug-cc-pvtz', properties = ['dipole'])
--------------------------------------------------------------------------

    Molecular point group: c1
  Charge       = 0
  Multiplicity = 1
  Basis Set: AUG-CC-PVTZ
    Blend: AUG-CC-PVTZ
  Basis Set: (AUG-CC-PVTZ AUX)
    Blend: AUG-CC-PVTZ-JKFIT

    Orbital Energies [Eh]
    ---------------------

    Doubly Occupied:

       1A    -15.645117     2A    -15.584286     3A    -15.583320
       4A    -15.579408     5A    -11.368212     6A    -11.312007
       7A    -11.309900     8A    -11.285773     9A    -11.256251
      10A    -11.253433    11A    -11.234588    12A    -11.219173
      13A     -1.382493    14A     -1.310605    15A     -1.206640
      16A     -1.123430    17A     -1.081544    18A     -1.045167
      19A     -0.956431    20A     -0.909336    21A     -0.898876
      22A     -0.805935    23A     -0.793887    24A     -0.713434
      25A     -0.706254    26A     -0.682116    27A     -0.637874
      28A     -0.633893    29A     -0.608082    30A     -0.591695
      31A     -0.587327    32A     -0.576836    33A     -0.560934
      34A     -0.550292    35A     -0.540250    36A     -0.492209
      37A     -0.451654    38A     -0.430823    39A     -0.420184
      40A     -0.406139    41A     -0.338379    42A     -0.326709

  @DF-RHF Final Energy:  -525.53641215929633

   => Energetics <=

    Nuclear Repulsion Energy =            657.1686601807516581
    One-Electron Energy =               -2016.6083556568753465
    Two-Electron Energy =                 833.9032833168273555
    Total Energy =                       -525.5364121592963329
  Basis Set: (AUG-CC-PVTZ AUX)
    Blend: AUG-CC-PVTZ-RI
    Molecular point group: c1

    Geometry (in Angstrom), charge = 0, multiplicity = 1:

       Center              X                  Y                   Z               Mass
    ------------   -----------------  -----------------  -----------------  -----------------
         N            0.819564470024    -0.260656701980    -0.037059551753    14.003074004430
         N            1.362011470024    -1.488007701980    -0.266138551753    14.003074004430
         N           -1.078317529976     1.025926298020    -0.452804551753    14.003074004430
         N           -1.265164529976    -1.204824701980     0.430047448247    14.003074004430
         C            1.763180470024     0.733476298020     0.134540448247    12.000000000000
         C            2.982079470024     0.091582298020     0.008924448247    12.000000000000
         C           -0.586885529976    -0.141148701980    -0.017529551753    12.000000000000
         C            1.457406470024     2.163072298020     0.438979448247    12.000000000000
         C            2.731024170024    -1.270429501980    -0.240356451753    12.000000000000
         C           -2.417620529976     1.131185298020    -0.430911551753    12.000000000000
         C           -2.600451529976    -1.079155701980     0.404554448247    12.000000000000
         C           -3.237997529976     0.085288298020    -0.020304551753    12.000000000000
         H            3.956326470024     0.553289298020     0.100243448247     1.007825032230
         H            1.016656470024     2.677072298020    -0.417144551753     1.007825032230
         H            0.757911470024     2.258693298020     1.274333448247     1.007825032230
         H            2.389895470024     2.662895298020     0.714343448247     1.007825032230
         H            3.359618470024    -2.088837701980    -0.408922551753     1.007825032230
         H           -2.827016529976     2.079886298020    -0.772381551753     1.007825032230
         H           -3.164971529976    -1.941749701980     0.753458448247     1.007825032230
         H           -4.319211529976     0.174220298020    -0.023862551753     1.007825032230

  Basis Set: AUG-CC-PVTZ
    Blend: AUG-CC-PVTZ
  Basis Set: (AUG-CC-PVTZ AUX)
    Blend: AUG-CC-PVTZ-JKFIT
	 Reference Energy          =    -525.5364121592963329 [Eh]
	 Singles Energy            =      -0.0000000000000000 [Eh]
	 Same-Spin Energy          =      -0.5788766188955613 [Eh]
	 Opposite-Spin Energy      =      -1.7412331885108379 [Eh]
	 Correlation Energy        =      -2.3201098074063990 [Eh]
	 Total Energy              =    -527.8565219667027577 [Eh]

	 ================> DF-SCS-MP2 Energies <==================
	-----------------------------------------------------------
	 SCS Same-Spin Scale       =       0.3333333333333333 [-]
	 SCS Opposite-Spin Scale   =       1.2000000000000000 [-]
	 SCS Same-Spin Energy      =      -0.1929588729651871 [Eh]
	 SCS Opposite-Spin Energy  =      -2.0894798262130054 [Eh]
	 SCS Correlation Energy    =      -2.2824386991781926 [Eh]
	 SCS Total Energy          =    -527.8188508584745477 [Eh]
	-----------------------------------------------------------

  Dipole Moment: [D]
     X:    -2.6497      Y:     2.5572      Z:     0.4412     Total:     3.7088

*** Psi4 exiting successfully. Buy a developer a beer!
