                               Psi4 1.3.2 release

  ==> Input File <==

--------------------------------------------------------------------------
#psi4
#
memory 32 gb

molecule  {
0 1
  N        0.8054170    -0.3900193    -0.0081142
  N        1.3585440    -1.5263750    -0.2734470
  N       -1.0817850     0.9875590    -0.4601130
  N       -1.2686320    -1.2431920     0.4227390
  C        1.7597130     0.6951090     0.1272320
  C        2.9786120     0.0532150     0.0016160
  C       -0.5903530    -0.1795160    -0.0248380
  C        1.4539390     2.1247050     0.4316710
  C        2.6793880    -1.2992810    -0.2463060
  C       -2.4210880     1.0928180    -0.4382200
  C       -2.6039190    -1.1175230     0.3972460
  C       -3.2414650     0.0469210    -0.0276130
  H        3.9528590     0.5149220     0.0929350
  H        1.0131890     2.6387050    -0.4244530
  H        0.7544440     2.2203260     1.2670250
  H        2.3864280     2.6245280     0.7070350
  H        3.3561510    -2.1272050    -0.4162310
  H       -2.8304840     2.0415190    -0.7796900
  H       -3.1684390    -1.9801170     0.7461500
  H       -4.3226790     0.1358530    -0.0311710
units angstrom
no_reorient  #important for SAPT in psi4, default
symmetry c1  #important for SAPT in psi4, default
}

set PROPERTIES_ORIGIN ["COM"]
properties('MP2/aug-cc-pvtz', properties = ['dipole'])
--------------------------------------------------------------------------

    Molecular point group: c1
  Charge       = 0
  Multiplicity = 1
  Basis Set: AUG-CC-PVTZ
    Blend: AUG-CC-PVTZ
  Basis Set: (AUG-CC-PVTZ AUX)
    Blend: AUG-CC-PVTZ-JKFIT

    Orbital Energies [Eh]
    ---------------------

    Doubly Occupied:

       1A    -15.645783     2A    -15.584904     3A    -15.583617
       4A    -15.577211     5A    -11.367082     6A    -11.312936
       7A    -11.308869     8A    -11.284803     9A    -11.253114
      10A    -11.249358    11A    -11.234459    12A    -11.221448
      13A     -1.401788    14A     -1.317058    15A     -1.206312
      16A     -1.126785    17A     -1.080966    18A     -1.046336
      19A     -0.958764    20A     -0.909741    21A     -0.894286
      22A     -0.803666    23A     -0.792056    24A     -0.712413
      25A     -0.710298    26A     -0.683075    27A     -0.640172
      28A     -0.634331    29A     -0.607366    30A     -0.595891
      31A     -0.584304    32A     -0.575858    33A     -0.563428
      34A     -0.557615    35A     -0.534366    36A     -0.491086
      37A     -0.451983    38A     -0.431054    39A     -0.420460
      40A     -0.406617    41A     -0.344452    42A     -0.320983

  @DF-RHF Final Energy:  -525.53388612100491

   => Energetics <=

    Nuclear Repulsion Energy =            658.2179223060703634
    One-Electron Energy =               -2018.6494304235752679
    Two-Electron Energy =                 834.8976219965001064
    Total Energy =                       -525.5338861210049117
  Basis Set: (AUG-CC-PVTZ AUX)
    Blend: AUG-CC-PVTZ-RI
    Molecular point group: c1

    Geometry (in Angstrom), charge = 0, multiplicity = 1:

       Center              X                  Y                   Z               Mass
    ------------   -----------------  -----------------  -----------------  -----------------
         N            0.813429700084    -0.344405242201    -0.004079041047    14.003074004430
         N            1.366556700084    -1.480760942201    -0.269411841047    14.003074004430
         N           -1.073772299916     1.033173057799    -0.456077841047    14.003074004430
         N           -1.260619299916    -1.197577942201     0.426774158953    14.003074004430
         C            1.767725700084     0.740723057799     0.131267158953    12.000000000000
         C            2.986624700084     0.098829057799     0.005651158953    12.000000000000
         C           -0.582340299916    -0.133901942201    -0.020802841047    12.000000000000
         C            1.461951700084     2.170319057799     0.435706158953    12.000000000000
         C            2.687400700084    -1.253666942201    -0.242270841047    12.000000000000
         C           -2.413075299916     1.138432057799    -0.434184841047    12.000000000000
         C           -2.595906299916    -1.071908942201     0.401281158953    12.000000000000
         C           -3.233452299916     0.092535057799    -0.023577841047    12.000000000000
         H            3.960871700084     0.560536057799     0.096970158953     1.007825032230
         H            1.021201700084     2.684319057799    -0.420417841047     1.007825032230
         H            0.762456700084     2.265940057799     1.271060158953     1.007825032230
         H            2.394440700084     2.670142057799     0.711070158953     1.007825032230
         H            3.364163700084    -2.081590942201    -0.412195841047     1.007825032230
         H           -2.822471299916     2.087133057799    -0.775654841047     1.007825032230
         H           -3.160426299916    -1.934502942201     0.750185158953     1.007825032230
         H           -4.314666299916     0.181467057799    -0.027135841047     1.007825032230

  Basis Set: AUG-CC-PVTZ
    Blend: AUG-CC-PVTZ
  Basis Set: (AUG-CC-PVTZ AUX)
    Blend: AUG-CC-PVTZ-JKFIT
	 Reference Energy          =    -525.5338861210049117 [Eh]
	 Singles Energy            =      -0.0000000000000000 [Eh]
	 Same-Spin Energy          =      -0.5784096790364546 [Eh]
	 Opposite-Spin Energy      =      -1.7393160611552114 [Eh]
	 Correlation Energy        =      -2.3177257401916660 [Eh]
	 Total Energy              =    -527.8516118611966021 [Eh]

	 ================> DF-SCS-MP2 Energies <==================
	-----------------------------------------------------------
	 SCS Same-Spin Scale       =       0.3333333333333333 [-]
	 SCS Opposite-Spin Scale   =       1.2000000000000000 [-]
	 SCS Same-Spin Energy      =      -0.1928032263454849 [Eh]
	 SCS Opposite-Spin Energy  =      -2.0871792733862535 [Eh]
	 SCS Correlation Energy    =      -2.2799824997317382 [Eh]
	 SCS Total Energy          =    -527.8138686207366845 [Eh]
	-----------------------------------------------------------

  Dipole Moment: [D]
     X:    -2.5934      Y:     2.5972      Z:     0.4332     Total:     3.6958

*** Psi4 exiting successfully. Buy a developer a beer!
