                               Psi4 1.3.2 release

  ==> Input File <==

--------------------------------------------------------------------------
#psi4
#
memory 32 gb

molecule  {
0 1
  N        0.8160970    -0.2990240    -0.0443680
  N        1.3585440    -1.5263750    -0.2734470
  N       -1.0817850     0.9875590    -0.4601130
  N       -1.2686320    -1.2431920     0.4227390
  C        1.7411381     0.7023423     0.0790711
  C        2.9786120     0.0532150     0.0016160
  C       -0.5903530    -0.1795160    -0.0248380
  C        1.4539390     2.1247050     0.4316710
  C        2.6793880    -1.2992810    -0.2463060
  C       -2.4210880     1.0928180    -0.4382200
  C       -2.6039190    -1.1175230     0.3972460
  C       -3.2414650     0.0469210    -0.0276130
  H        3.9528590     0.5149220     0.0929350
  H        1.0131890     2.6387050    -0.4244530
  H        0.7544440     2.2203260     1.2670250
  H        2.3864280     2.6245280     0.7070350
  H        3.3561510    -2.1272050    -0.4162310
  H       -2.8304840     2.0415190    -0.7796900
  H       -3.1684390    -1.9801170     0.7461500
  H       -4.3226790     0.1358530    -0.0311710
units angstrom
no_reorient  #important for SAPT in psi4, default
symmetry c1  #important for SAPT in psi4, default
}

set PROPERTIES_ORIGIN ["COM"]
properties('MP2/aug-cc-pvtz', properties = ['dipole'])
--------------------------------------------------------------------------

    Molecular point group: c1
  Charge       = 0
  Multiplicity = 1
  Basis Set: AUG-CC-PVTZ
    Blend: AUG-CC-PVTZ
  Basis Set: (AUG-CC-PVTZ AUX)
    Blend: AUG-CC-PVTZ-JKFIT

    Orbital Energies [Eh]
    ---------------------

    Doubly Occupied:

       1A    -15.644043     2A    -15.583006     3A    -15.580117
       4A    -15.579143     5A    -11.367909     6A    -11.312016
       7A    -11.309925     8A    -11.287658     9A    -11.254438
      10A    -11.253093    11A    -11.234916    12A    -11.217803
      13A     -1.388401    14A     -1.313147    15A     -1.206613
      16A     -1.130700    17A     -1.083555    18A     -1.044627
      19A     -0.958216    20A     -0.909502    21A     -0.897750
      22A     -0.799865    23A     -0.796709    24A     -0.712993
      25A     -0.707054    26A     -0.682113    27A     -0.640150
      28A     -0.633277    29A     -0.607375    30A     -0.589374
      31A     -0.586621    32A     -0.575882    33A     -0.567437
      34A     -0.552559    35A     -0.531655    36A     -0.492095
      37A     -0.454903    38A     -0.430982    39A     -0.420650
      40A     -0.408033    41A     -0.339153    42A     -0.329383

  @DF-RHF Final Energy:  -525.54235988289145

   => Energetics <=

    Nuclear Repulsion Energy =            658.4360045310083933
    One-Electron Energy =               -2019.1270537421128211
    Two-Electron Energy =                 835.1486893282129813
    Total Energy =                       -525.5423598828914464
  Basis Set: (AUG-CC-PVTZ AUX)
    Blend: AUG-CC-PVTZ-RI
    Molecular point group: c1

    Geometry (in Angstrom), charge = 0, multiplicity = 1:

       Center              X                  Y                   Z               Mass
    ------------   -----------------  -----------------  -----------------  -----------------
         N            0.824567897911    -0.261912296734    -0.033551044091    14.003074004430
         N            1.367014897911    -1.489263296734    -0.262630044091    14.003074004430
         N           -1.073314102089     1.024670703266    -0.449296044091    14.003074004430
         N           -1.260161102089    -1.206080296734     0.433555955909    14.003074004430
         C            1.749608997911     0.739454003266     0.089888055909    12.000000000000
         C            2.987082897911     0.090326703266     0.012432955909    12.000000000000
         C           -0.581882102089    -0.142404296734    -0.014021044091    12.000000000000
         C            1.462409897911     2.161816703266     0.442487955909    12.000000000000
         C            2.687858897911    -1.262169296734    -0.235489044091    12.000000000000
         C           -2.412617102089     1.129929703266    -0.427403044091    12.000000000000
         C           -2.595448102089    -1.080411296734     0.408062955909    12.000000000000
         C           -3.232994102089     0.084032703266    -0.016796044091    12.000000000000
         H            3.961329897911     0.552033703266     0.103751955909     1.007825032230
         H            1.021659897911     2.675816703266    -0.413636044091     1.007825032230
         H            0.762914897911     2.257437703266     1.277841955909     1.007825032230
         H            2.394898897911     2.661639703266     0.717851955909     1.007825032230
         H            3.364621897911    -2.090093296734    -0.405414044091     1.007825032230
         H           -2.822013102089     2.078630703266    -0.768873044091     1.007825032230
         H           -3.159968102089    -1.943005296734     0.756966955909     1.007825032230
         H           -4.314208102089     0.172964703266    -0.020354044091     1.007825032230

  Basis Set: AUG-CC-PVTZ
    Blend: AUG-CC-PVTZ
  Basis Set: (AUG-CC-PVTZ AUX)
    Blend: AUG-CC-PVTZ-JKFIT
	 Reference Energy          =    -525.5423598828914464 [Eh]
	 Singles Energy            =      -0.0000000000000000 [Eh]
	 Same-Spin Energy          =      -0.5777427574252640 [Eh]
	 Opposite-Spin Energy      =      -1.7388162396149354 [Eh]
	 Correlation Energy        =      -2.3165589970401994 [Eh]
	 Total Energy              =    -527.8589188799315934 [Eh]

	 ================> DF-SCS-MP2 Energies <==================
	-----------------------------------------------------------
	 SCS Same-Spin Scale       =       0.3333333333333333 [-]
	 SCS Opposite-Spin Scale   =       1.2000000000000000 [-]
	 SCS Same-Spin Energy      =      -0.1925809191417547 [Eh]
	 SCS Opposite-Spin Energy  =      -2.0865794875379224 [Eh]
	 SCS Correlation Energy    =      -2.2791604066796771 [Eh]
	 SCS Total Energy          =    -527.8215202895711400 [Eh]
	-----------------------------------------------------------

  Dipole Moment: [D]
     X:    -2.6213      Y:     2.5418      Z:     0.4581     Total:     3.6799

*** Psi4 exiting successfully. Buy a developer a beer!
