                               Psi4 1.3.2 release

  ==> Input File <==

--------------------------------------------------------------------------
#psi4
#
memory 32 gb

molecule  {
0 1
  N        0.9495686    -0.2497123    -0.0368297
  N        1.3585440    -1.5263750    -0.2734470
  N       -1.0817850     0.9875590    -0.4601130
  N       -1.2686320    -1.2431920     0.4227390
  C        1.7597130     0.6951090     0.1272320
  C        2.9786120     0.0532150     0.0016160
  C       -0.5903530    -0.1795160    -0.0248380
  C        1.4539390     2.1247050     0.4316710
  C        2.6793880    -1.2992810    -0.2463060
  C       -2.4210880     1.0928180    -0.4382200
  C       -2.6039190    -1.1175230     0.3972460
  C       -3.2414650     0.0469210    -0.0276130
  H        3.9528590     0.5149220     0.0929350
  H        1.0131890     2.6387050    -0.4244530
  H        0.7544440     2.2203260     1.2670250
  H        2.3864280     2.6245280     0.7070350
  H        3.3561510    -2.1272050    -0.4162310
  H       -2.8304840     2.0415190    -0.7796900
  H       -3.1684390    -1.9801170     0.7461500
  H       -4.3226790     0.1358530    -0.0311710
units angstrom
no_reorient  #important for SAPT in psi4, default
symmetry c1  #important for SAPT in psi4, default
}

set PROPERTIES_ORIGIN ["COM"]
properties('MP2/aug-cc-pvtz', properties = ['dipole'])
--------------------------------------------------------------------------

    Molecular point group: c1
  Charge       = 0
  Multiplicity = 1
  Basis Set: AUG-CC-PVTZ
    Blend: AUG-CC-PVTZ
  Basis Set: (AUG-CC-PVTZ AUX)
    Blend: AUG-CC-PVTZ-JKFIT

    Orbital Energies [Eh]
    ---------------------

    Doubly Occupied:

       1A    -15.644290     2A    -15.590109     3A    -15.588734
       4A    -15.572340     5A    -11.378243     6A    -11.316213
       7A    -11.315472     8A    -11.271155     9A    -11.260009
      10A    -11.246315    11A    -11.236147    12A    -11.202162
      13A     -1.398047    14A     -1.322477    15A     -1.211724
      16A     -1.129850    17A     -1.093907    18A     -1.035903
      19A     -0.965744    20A     -0.912091    21A     -0.894138
      22A     -0.804967    23A     -0.784341    24A     -0.716601
      25A     -0.708716    26A     -0.684967    27A     -0.645444
      28A     -0.634108    29A     -0.608926    30A     -0.591109
      31A     -0.580672    32A     -0.569506    33A     -0.557853
      34A     -0.554217    35A     -0.533340    36A     -0.487891
      37A     -0.463920    38A     -0.435069    39A     -0.426657
      40A     -0.401332    41A     -0.353093    42A     -0.322462

  @DF-RHF Final Energy:  -525.51298819038425

   => Energetics <=

    Nuclear Repulsion Energy =            658.4955767593363589
    One-Electron Energy =               -2019.1166082143477070
    Two-Electron Energy =                 835.1080432646269855
    Total Energy =                       -525.5129881903842488
  Basis Set: (AUG-CC-PVTZ AUX)
    Blend: AUG-CC-PVTZ-RI
    Molecular point group: c1

    Geometry (in Angstrom), charge = 0, multiplicity = 1:

       Center              X                  Y                   Z               Mass
    ------------   -----------------  -----------------  -----------------  -----------------
         N            0.944971168392    -0.216372054960    -0.030282558963    14.003074004430
         N            1.353946568392    -1.493034754960    -0.266899858963    14.003074004430
         N           -1.086382431608     1.020899245040    -0.453565858963    14.003074004430
         N           -1.273229431608    -1.209851754960     0.429286141037    14.003074004430
         C            1.755115568392     0.728449245040     0.133779141037    12.000000000000
         C            2.974014568392     0.086555245040     0.008163141037    12.000000000000
         C           -0.594950431608    -0.146175754960    -0.018290858963    12.000000000000
         C            1.449341568392     2.158045245040     0.438218141037    12.000000000000
         C            2.674790568392    -1.265940754960    -0.239758858963    12.000000000000
         C           -2.425685431608     1.126158245040    -0.431672858963    12.000000000000
         C           -2.608516431608    -1.084182754960     0.403793141037    12.000000000000
         C           -3.246062431608     0.080261245040    -0.021065858963    12.000000000000
         H            3.948261568392     0.548262245040     0.099482141037     1.007825032230
         H            1.008591568392     2.672045245040    -0.417905858963     1.007825032230
         H            0.749846568392     2.253666245040     1.273572141037     1.007825032230
         H            2.381830568392     2.657868245040     0.713582141037     1.007825032230
         H            3.351553568392    -2.093864754960    -0.409683858963     1.007825032230
         H           -2.835081431608     2.074859245040    -0.773142858963     1.007825032230
         H           -3.173036431608    -1.946776754960     0.752697141037     1.007825032230
         H           -4.327276431608     0.169193245040    -0.024623858963     1.007825032230

  Basis Set: AUG-CC-PVTZ
    Blend: AUG-CC-PVTZ
  Basis Set: (AUG-CC-PVTZ AUX)
    Blend: AUG-CC-PVTZ-JKFIT
	 Reference Energy          =    -525.5129881903842488 [Eh]
	 Singles Energy            =      -0.0000000000000000 [Eh]
	 Same-Spin Energy          =      -0.5785129836282930 [Eh]
	 Opposite-Spin Energy      =      -1.7395317910227868 [Eh]
	 Correlation Energy        =      -2.3180447746510797 [Eh]
	 Total Energy              =    -527.8310329650353196 [Eh]

	 ================> DF-SCS-MP2 Energies <==================
	-----------------------------------------------------------
	 SCS Same-Spin Scale       =       0.3333333333333333 [-]
	 SCS Opposite-Spin Scale   =       1.2000000000000000 [-]
	 SCS Same-Spin Energy      =      -0.1928376612094310 [Eh]
	 SCS Opposite-Spin Energy  =      -2.0874381492273439 [Eh]
	 SCS Correlation Energy    =      -2.2802758104367751 [Eh]
	 SCS Total Energy          =    -527.7932640008210683 [Eh]
	-----------------------------------------------------------

  Dipole Moment: [D]
     X:    -3.4007      Y:     2.6507      Z:     0.4714     Total:     4.3375

*** Psi4 exiting successfully. Buy a developer a beer!
