                               Psi4 1.3.2 release

  ==> Input File <==

--------------------------------------------------------------------------
#psi4
#
memory 32 gb

molecule  {
0 1
  N        0.8160970    -0.2990240    -0.0443680
  N        1.2701335    -1.5607684    -0.2788212
  N       -1.0817850     0.9875590    -0.4601130
  N       -1.2686320    -1.2431920     0.4227390
  C        1.7597130     0.6951090     0.1272320
  C        2.9786120     0.0532150     0.0016160
  C       -0.5903530    -0.1795160    -0.0248380
  C        1.4539390     2.1247050     0.4316710
  C        2.6793880    -1.2992810    -0.2463060
  C       -2.4210880     1.0928180    -0.4382200
  C       -2.6039190    -1.1175230     0.3972460
  C       -3.2414650     0.0469210    -0.0276130
  H        3.9528590     0.5149220     0.0929350
  H        1.0131890     2.6387050    -0.4244530
  H        0.7544440     2.2203260     1.2670250
  H        2.3864280     2.6245280     0.7070350
  H        3.3561510    -2.1272050    -0.4162310
  H       -2.8304840     2.0415190    -0.7796900
  H       -3.1684390    -1.9801170     0.7461500
  H       -4.3226790     0.1358530    -0.0311710
units angstrom
no_reorient  #important for SAPT in psi4, default
symmetry c1  #important for SAPT in psi4, default
}

set PROPERTIES_ORIGIN ["COM"]
properties('MP2/aug-cc-pvtz', properties = ['dipole'])
--------------------------------------------------------------------------

    Molecular point group: c1
  Charge       = 0
  Multiplicity = 1
  Basis Set: AUG-CC-PVTZ
    Blend: AUG-CC-PVTZ
  Basis Set: (AUG-CC-PVTZ AUX)
    Blend: AUG-CC-PVTZ-JKFIT

    Orbital Energies [Eh]
    ---------------------

    Doubly Occupied:

       1A    -15.646647     2A    -15.591081     3A    -15.581933
       4A    -15.578030     5A    -11.365382     6A    -11.310843
       7A    -11.308910     8A    -11.289487     9A    -11.264536
      10A    -11.252427    11A    -11.236643    12A    -11.223009
      13A     -1.382666    14A     -1.307994    15A     -1.205602
      16A     -1.114545    17A     -1.087261    18A     -1.041494
      19A     -0.960785    20A     -0.908075    21A     -0.894603
      22A     -0.800093    23A     -0.794177    24A     -0.712843
      25A     -0.704005    26A     -0.680268    27A     -0.636587
      28A     -0.631543    29A     -0.607056    30A     -0.589125
      31A     -0.583557    32A     -0.572843    33A     -0.562055
      34A     -0.549672    35A     -0.534121    36A     -0.491319
      37A     -0.464339    38A     -0.429822    39A     -0.419676
      40A     -0.403054    41A     -0.340066    42A     -0.323065

  @DF-RHF Final Energy:  -525.52459284984377

   => Energetics <=

    Nuclear Repulsion Energy =            657.2846720840559556
    One-Electron Energy =               -2016.8560486722199130
    Two-Electron Energy =                 834.0467837383201868
    Total Energy =                       -525.5245928498437706
  Basis Set: (AUG-CC-PVTZ AUX)
    Blend: AUG-CC-PVTZ-RI
    Molecular point group: c1

    Geometry (in Angstrom), charge = 0, multiplicity = 1:

       Center              X                  Y                   Z               Mass
    ------------   -----------------  -----------------  -----------------  -----------------
         N            0.830909429269    -0.258361378141    -0.036691295882    14.003074004430
         N            1.284945929269    -1.520105778141    -0.271144495882    14.003074004430
         N           -1.066972570731     1.028221621859    -0.452436295882    14.003074004430
         N           -1.253819570731    -1.202529378141     0.430415704118    14.003074004430
         C            1.774525429269     0.735771621859     0.134908704118    12.000000000000
         C            2.993424429269     0.093877621859     0.009292704118    12.000000000000
         C           -0.575540570731    -0.138853378141    -0.017161295882    12.000000000000
         C            1.468751429269     2.165367621859     0.439347704118    12.000000000000
         C            2.694200429269    -1.258618378141    -0.238629295882    12.000000000000
         C           -2.406275570731     1.133480621859    -0.430543295882    12.000000000000
         C           -2.589106570731    -1.076860378141     0.404922704118    12.000000000000
         C           -3.226652570731     0.087583621859    -0.019936295882    12.000000000000
         H            3.967671429269     0.555584621859     0.100611704118     1.007825032230
         H            1.028001429269     2.679367621859    -0.416776295882     1.007825032230
         H            0.769256429269     2.260988621859     1.274701704118     1.007825032230
         H            2.401240429269     2.665190621859     0.714711704118     1.007825032230
         H            3.370963429269    -2.086542378141    -0.408554295882     1.007825032230
         H           -2.815671570731     2.082181621859    -0.772013295882     1.007825032230
         H           -3.153626570731    -1.939454378141     0.753826704118     1.007825032230
         H           -4.307866570731     0.176515621859    -0.023494295882     1.007825032230

  Basis Set: AUG-CC-PVTZ
    Blend: AUG-CC-PVTZ
  Basis Set: (AUG-CC-PVTZ AUX)
    Blend: AUG-CC-PVTZ-JKFIT
	 Reference Energy          =    -525.5245928498437706 [Eh]
	 Singles Energy            =      -0.0000000000000000 [Eh]
	 Same-Spin Energy          =      -0.5809297901014370 [Eh]
	 Opposite-Spin Energy      =      -1.7452587313233163 [Eh]
	 Correlation Energy        =      -2.3261885214247533 [Eh]
	 Total Energy              =    -527.8507813712685675 [Eh]

	 ================> DF-SCS-MP2 Energies <==================
	-----------------------------------------------------------
	 SCS Same-Spin Scale       =       0.3333333333333333 [-]
	 SCS Opposite-Spin Scale   =       1.2000000000000000 [-]
	 SCS Same-Spin Energy      =      -0.1936432633671457 [Eh]
	 SCS Opposite-Spin Energy  =      -2.0943104775879795 [Eh]
	 SCS Correlation Energy    =      -2.2879537409551252 [Eh]
	 SCS Total Energy          =    -527.8125465907988882 [Eh]
	-----------------------------------------------------------

  Dipole Moment: [D]
     X:    -2.5534      Y:     2.6749      Z:     0.4724     Total:     3.7280

*** Psi4 exiting successfully. Buy a developer a beer!
