                               Psi4 1.3.2 release

  ==> Input File <==

--------------------------------------------------------------------------
#psi4
#
memory 32 gb

molecule  {
0 1
  N        0.8160970    -0.2990240    -0.0443680
  N        1.3585440    -1.5263750    -0.2734470
  N       -1.0817850     0.9875590    -0.4601130
  N       -1.2686320    -1.2431920     0.4227390
  C        1.7957230     0.6858743     0.2246074
  C        2.9786120     0.0532150     0.0016160
  C       -0.5903530    -0.1795160    -0.0248380
  C        1.4539390     2.1247050     0.4316710
  C        2.6793880    -1.2992810    -0.2463060
  C       -2.4210880     1.0928180    -0.4382200
  C       -2.6039190    -1.1175230     0.3972460
  C       -3.2414650     0.0469210    -0.0276130
  H        3.9528590     0.5149220     0.0929350
  H        1.0131890     2.6387050    -0.4244530
  H        0.7544440     2.2203260     1.2670250
  H        2.3864280     2.6245280     0.7070350
  H        3.3561510    -2.1272050    -0.4162310
  H       -2.8304840     2.0415190    -0.7796900
  H       -3.1684390    -1.9801170     0.7461500
  H       -4.3226790     0.1358530    -0.0311710
units angstrom
no_reorient  #important for SAPT in psi4, default
symmetry c1  #important for SAPT in psi4, default
}

set PROPERTIES_ORIGIN ["COM"]
properties('MP2/aug-cc-pvtz', properties = ['dipole'])
--------------------------------------------------------------------------

    Molecular point group: c1
  Charge       = 0
  Multiplicity = 1
  Basis Set: AUG-CC-PVTZ
    Blend: AUG-CC-PVTZ
  Basis Set: (AUG-CC-PVTZ AUX)
    Blend: AUG-CC-PVTZ-JKFIT

    Orbital Energies [Eh]
    ---------------------

    Doubly Occupied:

       1A    -15.638488     2A    -15.585380     3A    -15.581127
       4A    -15.577510     5A    -11.365865     6A    -11.310427
       7A    -11.308447     8A    -11.286167     9A    -11.254908
      10A    -11.251790    11A    -11.234240    12A    -11.218446
      13A     -1.381441    14A     -1.310985    15A     -1.204721
      16A     -1.126837    17A     -1.085183    18A     -1.044934
      19A     -0.959635    20A     -0.908002    21A     -0.893520
      22A     -0.800100    23A     -0.790998    24A     -0.713360
      25A     -0.707796    26A     -0.683008    27A     -0.633822
      28A     -0.633355    29A     -0.606655    30A     -0.589998
      31A     -0.586173    32A     -0.574651    33A     -0.558201
      34A     -0.552847    35A     -0.539649    36A     -0.490063
      37A     -0.455605    38A     -0.429431    39A     -0.419269
      40A     -0.406788    41A     -0.339687    42A     -0.333700

  @DF-RHF Final Energy:  -525.53823346587615

   => Energetics <=

    Nuclear Repulsion Energy =            657.7003851030622172
    One-Electron Energy =               -2017.7308246876559679
    Two-Electron Energy =                 834.4922061187176041
    Total Energy =                       -525.5382334658761465
  Basis Set: (AUG-CC-PVTZ AUX)
    Blend: AUG-CC-PVTZ-RI
    Molecular point group: c1

    Geometry (in Angstrom), charge = 0, multiplicity = 1:

       Center              X                  Y                   Z               Mass
    ------------   -----------------  -----------------  -----------------  -----------------
         N            0.820475945861    -0.260677774616    -0.044461159547    14.003074004430
         N            1.362922945861    -1.488028774616    -0.273540159547    14.003074004430
         N           -1.077406054139     1.025905225384    -0.460206159547    14.003074004430
         N           -1.264253054139    -1.204845774616     0.422645840453    14.003074004430
         C            1.800101945861     0.724220525384     0.224514240453    12.000000000000
         C            2.982990945861     0.091561225384     0.001522840453    12.000000000000
         C           -0.585974054139    -0.141169774616    -0.024931159547    12.000000000000
         C            1.458317945861     2.163051225384     0.431577840453    12.000000000000
         C            2.683766945861    -1.260934774616    -0.246399159547    12.000000000000
         C           -2.416709054139     1.131164225384    -0.438313159547    12.000000000000
         C           -2.599540054139    -1.079176774616     0.397152840453    12.000000000000
         C           -3.237086054139     0.085267225384    -0.027706159547    12.000000000000
         H            3.957237945861     0.553268225384     0.092841840453     1.007825032230
         H            1.017567945861     2.677051225384    -0.424546159547     1.007825032230
         H            0.758822945861     2.258672225384     1.266931840453     1.007825032230
         H            2.390806945861     2.662874225384     0.706941840453     1.007825032230
         H            3.360529945861    -2.088858774616    -0.416324159547     1.007825032230
         H           -2.826105054139     2.079865225384    -0.779783159547     1.007825032230
         H           -3.164060054139    -1.941770774616     0.746056840453     1.007825032230
         H           -4.318300054139     0.174199225384    -0.031264159547     1.007825032230

  Basis Set: AUG-CC-PVTZ
    Blend: AUG-CC-PVTZ
  Basis Set: (AUG-CC-PVTZ AUX)
    Blend: AUG-CC-PVTZ-JKFIT
	 Reference Energy          =    -525.5382334658761465 [Eh]
	 Singles Energy            =      -0.0000000000000000 [Eh]
	 Same-Spin Energy          =      -0.5776843607987330 [Eh]
	 Opposite-Spin Energy      =      -1.7393401834934683 [Eh]
	 Correlation Energy        =      -2.3170245442922015 [Eh]
	 Total Energy              =    -527.8552580101683134 [Eh]

	 ================> DF-SCS-MP2 Energies <==================
	-----------------------------------------------------------
	 SCS Same-Spin Scale       =       0.3333333333333333 [-]
	 SCS Opposite-Spin Scale   =       1.2000000000000000 [-]
	 SCS Same-Spin Energy      =      -0.1925614535995777 [Eh]
	 SCS Opposite-Spin Energy  =      -2.0872082201921618 [Eh]
	 SCS Correlation Energy    =      -2.2797696737917397 [Eh]
	 SCS Total Energy          =    -527.8180031396678942 [Eh]
	-----------------------------------------------------------

  Dipole Moment: [D]
     X:    -2.4749      Y:     2.5482      Z:     0.3998     Total:     3.5746

*** Psi4 exiting successfully. Buy a developer a beer!
