                               Psi4 1.3.2 release

  ==> Input File <==

--------------------------------------------------------------------------
#psi4
#
memory 32 gb

molecule  {
0 1
  N        0.8160970    -0.2990240    -0.0443680
  N        1.3585440    -1.5263750    -0.2734470
  N       -1.0817850     0.9875590    -0.4601130
  N       -1.2686320    -1.2431920     0.4227390
  C        1.7597130     0.6951090     0.1272320
  C        2.9786120     0.0532150     0.0016160
  C       -0.5903530    -0.1795160    -0.0248380
  C        1.4539390     2.1247050     0.4316710
  C        2.6793880    -1.2992810    -0.2463060
  C       -2.4210880     1.0928180    -0.4382200
  C       -2.6039190    -1.1175230     0.3972460
  C       -3.2414650     0.0469210    -0.0276130
  H        3.9528590     0.5149220     0.0929350
  H        1.0131890     2.6387050    -0.4244530
  H        0.7544440     2.2203260     1.2670250
  H        2.3864280     2.6245280     0.7070350
  H        3.3561510    -2.1272050    -0.4162310
  H       -2.8304840     2.0415190    -0.7796900
  H       -3.2203088    -2.0593747     0.7782083
  H       -4.3226790     0.1358530    -0.0311710
units angstrom
no_reorient  #important for SAPT in psi4, default
symmetry c1  #important for SAPT in psi4, default
}

set PROPERTIES_ORIGIN ["COM"]
properties('MP2/aug-cc-pvtz', properties = ['dipole'])
--------------------------------------------------------------------------

    Molecular point group: c1
  Charge       = 0
  Multiplicity = 1
  Basis Set: AUG-CC-PVTZ
    Blend: AUG-CC-PVTZ
  Basis Set: (AUG-CC-PVTZ AUX)
    Blend: AUG-CC-PVTZ-JKFIT

    Orbital Energies [Eh]
    ---------------------

    Doubly Occupied:

       1A    -15.642469     2A    -15.582724     3A    -15.581703
       4A    -15.579689     5A    -11.368252     6A    -11.320166
       7A    -11.312149     8A    -11.287011     9A    -11.254781
      10A    -11.253621    11A    -11.234894    12A    -11.217547
      13A     -1.386696    14A     -1.313007    15A     -1.206076
      16A     -1.129474    17A     -1.084173    18A     -1.045018
      19A     -0.959009    20A     -0.904440    21A     -0.895723
      22A     -0.799804    23A     -0.790830    24A     -0.713440
      25A     -0.704666    26A     -0.682275    27A     -0.638175
      28A     -0.630925    29A     -0.602842    30A     -0.588208
      31A     -0.578400    32A     -0.575358    33A     -0.564084
      34A     -0.552982    35A     -0.536133    36A     -0.492192
      37A     -0.455234    38A     -0.431003    39A     -0.419358
      40A     -0.408137    41A     -0.338427    42A     -0.332613

  @DF-RHF Final Energy:  -525.53619014841047

   => Energetics <=

    Nuclear Repulsion Energy =            657.7623055741457847
    One-Electron Energy =               -2017.8095702189516487
    Two-Electron Energy =                 834.5110744963953948
    Total Energy =                       -525.5361901484104692
  Basis Set: (AUG-CC-PVTZ AUX)
    Blend: AUG-CC-PVTZ-RI
    Molecular point group: c1

    Geometry (in Angstrom), charge = 0, multiplicity = 1:

       Center              X                  Y                   Z               Mass
    ------------   -----------------  -----------------  -----------------  -----------------
         N            0.823502002377    -0.260871049806    -0.037363259319    14.003074004430
         N            1.365949002377    -1.488222049806    -0.266442259319    14.003074004430
         N           -1.074379997623     1.025711950194    -0.453108259319    14.003074004430
         N           -1.261226997623    -1.205039049806     0.429743740681    14.003074004430
         C            1.767118002377     0.733261950194     0.134236740681    12.000000000000
         C            2.986017002377     0.091367950194     0.008620740681    12.000000000000
         C           -0.582947997623    -0.141363049806    -0.017833259319    12.000000000000
         C            1.461344002377     2.162857950194     0.438675740681    12.000000000000
         C            2.686793002377    -1.261128049806    -0.239301259319    12.000000000000
         C           -2.413682997623     1.130970950194    -0.431215259319    12.000000000000
         C           -2.596513997623    -1.079370049806     0.404250740681    12.000000000000
         C           -3.234059997623     0.085073950194    -0.020608259319    12.000000000000
         H            3.960264002377     0.553074950194     0.099939740681     1.007825032230
         H            1.020594002377     2.676857950194    -0.417448259319     1.007825032230
         H            0.761849002377     2.258478950194     1.274029740681     1.007825032230
         H            2.393833002377     2.662680950194     0.714039740681     1.007825032230
         H            3.363556002377    -2.089052049806    -0.409226259319     1.007825032230
         H           -2.823078997623     2.079671950194    -0.772685259319     1.007825032230
         H           -3.212903797623    -2.021221749806     0.785213040681     1.007825032230
         H           -4.315273997623     0.174005950194    -0.024166259319     1.007825032230

  Basis Set: AUG-CC-PVTZ
    Blend: AUG-CC-PVTZ
  Basis Set: (AUG-CC-PVTZ AUX)
    Blend: AUG-CC-PVTZ-JKFIT
	 Reference Energy          =    -525.5361901484104692 [Eh]
	 Singles Energy            =      -0.0000000000000000 [Eh]
	 Same-Spin Energy          =      -0.5778377984322348 [Eh]
	 Opposite-Spin Energy      =      -1.7396021970897295 [Eh]
	 Correlation Energy        =      -2.3174399955219642 [Eh]
	 Total Energy              =    -527.8536301439323779 [Eh]

	 ================> DF-SCS-MP2 Energies <==================
	-----------------------------------------------------------
	 SCS Same-Spin Scale       =       0.3333333333333333 [-]
	 SCS Opposite-Spin Scale   =       1.2000000000000000 [-]
	 SCS Same-Spin Energy      =      -0.1926125994774116 [Eh]
	 SCS Opposite-Spin Energy  =      -2.0875226365076753 [Eh]
	 SCS Correlation Energy    =      -2.2801352359850870 [Eh]
	 SCS Total Energy          =    -527.8163253843955545 [Eh]
	-----------------------------------------------------------

  Dipole Moment: [D]
     X:    -2.5362      Y:     2.5754      Z:     0.4314     Total:     3.6402

*** Psi4 exiting successfully. Buy a developer a beer!
