                               Psi4 1.3.2 release

  ==> Input File <==

--------------------------------------------------------------------------
#psi4
#
memory 32 gb

molecule  {
0 1
  N        0.8160970    -0.2990240    -0.0443680
  N        1.3419247    -1.3894294    -0.2478090
  N       -1.0817850     0.9875590    -0.4601130
  N       -1.2686320    -1.2431920     0.4227390
  C        1.7597130     0.6951090     0.1272320
  C        2.9786120     0.0532150     0.0016160
  C       -0.5903530    -0.1795160    -0.0248380
  C        1.4539390     2.1247050     0.4316710
  C        2.6793880    -1.2992810    -0.2463060
  C       -2.4210880     1.0928180    -0.4382200
  C       -2.6039190    -1.1175230     0.3972460
  C       -3.2414650     0.0469210    -0.0276130
  H        3.9528590     0.5149220     0.0929350
  H        1.0131890     2.6387050    -0.4244530
  H        0.7544440     2.2203260     1.2670250
  H        2.3864280     2.6245280     0.7070350
  H        3.3561510    -2.1272050    -0.4162310
  H       -2.8304840     2.0415190    -0.7796900
  H       -3.1684390    -1.9801170     0.7461500
  H       -4.3226790     0.1358530    -0.0311710
units angstrom
no_reorient  #important for SAPT in psi4, default
symmetry c1  #important for SAPT in psi4, default
}

set PROPERTIES_ORIGIN ["COM"]
properties('MP2/aug-cc-pvtz', properties = ['dipole'])
--------------------------------------------------------------------------

    Molecular point group: c1
  Charge       = 0
  Multiplicity = 1
  Basis Set: AUG-CC-PVTZ
    Blend: AUG-CC-PVTZ
  Basis Set: (AUG-CC-PVTZ AUX)
    Blend: AUG-CC-PVTZ-JKFIT

    Orbital Energies [Eh]
    ---------------------

    Doubly Occupied:

       1A    -15.650947     2A    -15.587393     3A    -15.584123
       4A    -15.568664     5A    -11.371247     6A    -11.314794
       7A    -11.313061     8A    -11.268256     9A    -11.257185
      10A    -11.243551    11A    -11.227268    12A    -11.215394
      13A     -1.441051    14A     -1.324306    15A     -1.210327
      16A     -1.130529    17A     -1.083129    18A     -1.053026
      19A     -0.950294    20A     -0.912670    21A     -0.906159
      22A     -0.815783    23A     -0.803670    24A     -0.716662
      25A     -0.710176    26A     -0.683440    27A     -0.656326
      28A     -0.639687    29A     -0.611067    30A     -0.603219
      31A     -0.588042    32A     -0.577945    33A     -0.561506
      34A     -0.557433    35A     -0.529904    36A     -0.495750
      37A     -0.440303    38A     -0.433148    39A     -0.418244
      40A     -0.406519    41A     -0.344883    42A     -0.317135

  @DF-RHF Final Energy:  -525.52985401789351

   => Energetics <=

    Nuclear Repulsion Energy =            662.5525230765513243
    One-Electron Energy =               -2027.1163157946155025
    Two-Electron Energy =                 839.0339387001706655
    Total Energy =                       -525.5298540178935127
  Basis Set: (AUG-CC-PVTZ AUX)
    Blend: AUG-CC-PVTZ-RI
    Molecular point group: c1

    Geometry (in Angstrom), charge = 0, multiplicity = 1:

       Center              X                  Y                   Z               Mass
    ------------   -----------------  -----------------  -----------------  -----------------
         N            0.824629259736    -0.273349816382    -0.039404189295    14.003074004430
         N            1.350456959736    -1.363755216382    -0.242845189295    14.003074004430
         N           -1.073252740264     1.013233183618    -0.455149189295    14.003074004430
         N           -1.260099740264    -1.217517816382     0.427702810705    14.003074004430
         C            1.768245259736     0.720783183618     0.132195810705    12.000000000000
         C            2.987144259736     0.078889183618     0.006579810705    12.000000000000
         C           -0.581820740264    -0.153841816382    -0.019874189295    12.000000000000
         C            1.462471259736     2.150379183618     0.436634810705    12.000000000000
         C            2.687920259736    -1.273606816382    -0.241342189295    12.000000000000
         C           -2.412555740264     1.118492183618    -0.433256189295    12.000000000000
         C           -2.595386740264    -1.091848816382     0.402209810705    12.000000000000
         C           -3.232932740264     0.072595183618    -0.022649189295    12.000000000000
         H            3.961391259736     0.540596183618     0.097898810705     1.007825032230
         H            1.021721259736     2.664379183618    -0.419489189295     1.007825032230
         H            0.762976259736     2.246000183618     1.271988810705     1.007825032230
         H            2.394960259736     2.650202183618     0.711998810705     1.007825032230
         H            3.364683259736    -2.101530816382    -0.411267189295     1.007825032230
         H           -2.821951740264     2.067193183618    -0.774726189295     1.007825032230
         H           -3.159906740264    -1.954442816382     0.751113810705     1.007825032230
         H           -4.314146740264     0.161527183618    -0.026207189295     1.007825032230

  Basis Set: AUG-CC-PVTZ
    Blend: AUG-CC-PVTZ
  Basis Set: (AUG-CC-PVTZ AUX)
    Blend: AUG-CC-PVTZ-JKFIT
	 Reference Energy          =    -525.5298540178935127 [Eh]
	 Singles Energy            =      -0.0000000000000000 [Eh]
	 Same-Spin Energy          =      -0.5781543791571443 [Eh]
	 Opposite-Spin Energy      =      -1.7361045851363059 [Eh]
	 Correlation Energy        =      -2.3142589642934501 [Eh]
	 Total Energy              =    -527.8441129821869708 [Eh]

	 ================> DF-SCS-MP2 Energies <==================
	-----------------------------------------------------------
	 SCS Same-Spin Scale       =       0.3333333333333333 [-]
	 SCS Opposite-Spin Scale   =       1.2000000000000000 [-]
	 SCS Same-Spin Energy      =      -0.1927181263857148 [Eh]
	 SCS Opposite-Spin Energy  =      -2.0833255021635670 [Eh]
	 SCS Correlation Energy    =      -2.2760436285492820 [Eh]
	 SCS Total Energy          =    -527.8058976464427587 [Eh]
	-----------------------------------------------------------

  Dipole Moment: [D]
     X:    -2.9328      Y:     2.3159      Z:     0.3874     Total:     3.7570

*** Psi4 exiting successfully. Buy a developer a beer!
