                               Psi4 1.3.2 release

  ==> Input File <==

--------------------------------------------------------------------------
#psi4
#
memory 32 gb

molecule  {
0 1
  N        0.8160970    -0.2990240    -0.0443680
  N        1.3585440    -1.5263750    -0.2734470
  N       -1.0817850     0.9875590    -0.4601130
  N       -1.2686320    -1.2431920     0.4227390
  C        1.7597130     0.6951090     0.1272320
  C        2.9786120     0.0532150     0.0016160
  C       -0.6899844    -0.1710502    -0.0234545
  C        1.4539390     2.1247050     0.4316710
  C        2.6793880    -1.2992810    -0.2463060
  C       -2.4210880     1.0928180    -0.4382200
  C       -2.6039190    -1.1175230     0.3972460
  C       -3.2414650     0.0469210    -0.0276130
  H        3.9528590     0.5149220     0.0929350
  H        1.0131890     2.6387050    -0.4244530
  H        0.7544440     2.2203260     1.2670250
  H        2.3864280     2.6245280     0.7070350
  H        3.3561510    -2.1272050    -0.4162310
  H       -2.8304840     2.0415190    -0.7796900
  H       -3.1684390    -1.9801170     0.7461500
  H       -4.3226790     0.1358530    -0.0311710
units angstrom
no_reorient  #important for SAPT in psi4, default
symmetry c1  #important for SAPT in psi4, default
}

set PROPERTIES_ORIGIN ["COM"]
properties('MP2/aug-cc-pvtz', properties = ['dipole'])
--------------------------------------------------------------------------

    Molecular point group: c1
  Charge       = 0
  Multiplicity = 1
  Basis Set: AUG-CC-PVTZ
    Blend: AUG-CC-PVTZ
  Basis Set: (AUG-CC-PVTZ AUX)
    Blend: AUG-CC-PVTZ-JKFIT

    Orbital Energies [Eh]
    ---------------------

    Doubly Occupied:

       1A    -15.630570     2A    -15.590145     3A    -15.586629
       4A    -15.572219     5A    -11.368751     6A    -11.320412
       7A    -11.318719     8A    -11.275721     9A    -11.261198
      10A    -11.243469    11A    -11.230177    12A    -11.207445
      13A     -1.376789    14A     -1.327806    15A     -1.232592
      16A     -1.115528    17A     -1.078004    18A     -1.039296
      19A     -0.951559    20A     -0.923752    21A     -0.894608
      22A     -0.789445    23A     -0.783786    24A     -0.722651
      25A     -0.710027    26A     -0.675993    27A     -0.636811
      28A     -0.633796    29A     -0.612960    30A     -0.589052
      31A     -0.578958    32A     -0.575539    33A     -0.556630
      34A     -0.548161    35A     -0.529090    36A     -0.492305
      37A     -0.453994    38A     -0.443765    39A     -0.433488
      40A     -0.407435    41A     -0.337581    42A     -0.323083

  @DF-RHF Final Energy:  -525.53249436073679

   => Energetics <=

    Nuclear Repulsion Energy =            658.2093253889348716
    One-Electron Energy =               -2018.7237608697719224
    Two-Electron Energy =                 834.9819411201003732
    Total Energy =                       -525.5324943607367914
  Basis Set: (AUG-CC-PVTZ AUX)
    Blend: AUG-CC-PVTZ-RI
    Molecular point group: c1

    Geometry (in Angstrom), charge = 0, multiplicity = 1:

       Center              X                  Y                   Z               Mass
    ------------   -----------------  -----------------  -----------------  -----------------
         N            0.830644291041    -0.262004690984    -0.037265135519    14.003074004430
         N            1.373091291041    -1.489355690984    -0.266344135519    14.003074004430
         N           -1.067237708959     1.024578309016    -0.453010135519    14.003074004430
         N           -1.254084708959    -1.206172690984     0.429841864481    14.003074004430
         C            1.774260291041     0.732128309016     0.134334864481    12.000000000000
         C            2.993159291041     0.090234309016     0.008718864481    12.000000000000
         C           -0.675437108959    -0.134030890984    -0.016351635519    12.000000000000
         C            1.468486291041     2.161724309016     0.438773864481    12.000000000000
         C            2.693935291041    -1.262261690984    -0.239203135519    12.000000000000
         C           -2.406540708959     1.129837309016    -0.431117135519    12.000000000000
         C           -2.589371708959    -1.080503690984     0.404348864481    12.000000000000
         C           -3.226917708959     0.083940309016    -0.020510135519    12.000000000000
         H            3.967406291041     0.551941309016     0.100037864481     1.007825032230
         H            1.027736291041     2.675724309016    -0.417350135519     1.007825032230
         H            0.768991291041     2.257345309016     1.274127864481     1.007825032230
         H            2.400975291041     2.661547309016     0.714137864481     1.007825032230
         H            3.370698291041    -2.090185690984    -0.409128135519     1.007825032230
         H           -2.815936708959     2.078538309016    -0.772587135519     1.007825032230
         H           -3.153891708959    -1.943097690984     0.753252864481     1.007825032230
         H           -4.308131708959     0.172872309016    -0.024068135519     1.007825032230

  Basis Set: AUG-CC-PVTZ
    Blend: AUG-CC-PVTZ
  Basis Set: (AUG-CC-PVTZ AUX)
    Blend: AUG-CC-PVTZ-JKFIT
	 Reference Energy          =    -525.5324943607367914 [Eh]
	 Singles Energy            =      -0.0000000000000000 [Eh]
	 Same-Spin Energy          =      -0.5777314118505094 [Eh]
	 Opposite-Spin Energy      =      -1.7387211848515625 [Eh]
	 Correlation Energy        =      -2.3164525967020717 [Eh]
	 Total Energy              =    -527.8489469574388977 [Eh]

	 ================> DF-SCS-MP2 Energies <==================
	-----------------------------------------------------------
	 SCS Same-Spin Scale       =       0.3333333333333333 [-]
	 SCS Opposite-Spin Scale   =       1.2000000000000000 [-]
	 SCS Same-Spin Energy      =      -0.1925771372835031 [Eh]
	 SCS Opposite-Spin Energy  =      -2.0864654218218748 [Eh]
	 SCS Correlation Energy    =      -2.2790425591053780 [Eh]
	 SCS Total Energy          =    -527.8115369198421831 [Eh]
	-----------------------------------------------------------

  Dipole Moment: [D]
     X:    -3.6500      Y:     2.6062      Z:     0.4518     Total:     4.5077

*** Psi4 exiting successfully. Buy a developer a beer!
