                               Psi4 1.3.2 release

  ==> Input File <==

--------------------------------------------------------------------------
#psi4
#
memory 32 gb

molecule  {
0 1
  N        0.8160970    -0.2990240    -0.0443680
  N        1.3585440    -1.5263750    -0.2734470
  N       -1.0817850     0.9875590    -0.4601130
  N       -1.2686320    -1.2431920     0.4227390
  C        1.7597130     0.6951090     0.1272320
  C        2.9786120     0.0532150     0.0016160
  C       -0.5903530    -0.1795160    -0.0248380
  C        1.4744155     2.0289706     0.4112839
  C        2.6793880    -1.2992810    -0.2463060
  C       -2.4210880     1.0928180    -0.4382200
  C       -2.6039190    -1.1175230     0.3972460
  C       -3.2414650     0.0469210    -0.0276130
  H        3.9528590     0.5149220     0.0929350
  H        1.0131890     2.6387050    -0.4244530
  H        0.7544440     2.2203260     1.2670250
  H        2.3864280     2.6245280     0.7070350
  H        3.3561510    -2.1272050    -0.4162310
  H       -2.8304840     2.0415190    -0.7796900
  H       -3.1684390    -1.9801170     0.7461500
  H       -4.3226790     0.1358530    -0.0311710
units angstrom
no_reorient  #important for SAPT in psi4, default
symmetry c1  #important for SAPT in psi4, default
}

set PROPERTIES_ORIGIN ["COM"]
properties('MP2/aug-cc-pvtz', properties = ['dipole'])
--------------------------------------------------------------------------

    Molecular point group: c1
  Charge       = 0
  Multiplicity = 1
  Basis Set: AUG-CC-PVTZ
    Blend: AUG-CC-PVTZ
  Basis Set: (AUG-CC-PVTZ AUX)
    Blend: AUG-CC-PVTZ-JKFIT

    Orbital Energies [Eh]
    ---------------------

    Doubly Occupied:

       1A    -15.642083     2A    -15.582226     3A    -15.582204
       4A    -15.578691     5A    -11.367374     6A    -11.311377
       7A    -11.309397     8A    -11.282323     9A    -11.254884
      10A    -11.252687    11A    -11.237019    12A    -11.217883
      13A     -1.387299    14A     -1.312721    15A     -1.206064
      16A     -1.131198    17A     -1.096197    18A     -1.045847
      19A     -0.958902    20A     -0.909140    21A     -0.896190
      22A     -0.801600    23A     -0.795947    24A     -0.714937
      25A     -0.710349    26A     -0.687241    27A     -0.639804
      28A     -0.634581    29A     -0.607242    30A     -0.591360
      31A     -0.585634    32A     -0.575517    33A     -0.572135
      34A     -0.540786    35A     -0.530768    36A     -0.487797
      37A     -0.454598    38A     -0.430179    39A     -0.419627
      40A     -0.407943    41A     -0.338262    42A     -0.329336

  @DF-RHF Final Energy:  -525.53072743852704

   => Energetics <=

    Nuclear Repulsion Energy =            660.1239965711799869
    One-Electron Energy =               -2022.4747474479570428
    Two-Electron Energy =                 836.8200234382500184
    Total Energy =                       -525.5307274385270375
  Basis Set: (AUG-CC-PVTZ AUX)
    Blend: AUG-CC-PVTZ-RI
    Molecular point group: c1

    Geometry (in Angstrom), charge = 0, multiplicity = 1:

       Center              X                  Y                   Z               Mass
    ------------   -----------------  -----------------  -----------------  -----------------
         N            0.821640413272    -0.254193332494    -0.035633104475    14.003074004430
         N            1.364087413272    -1.481544332494    -0.264712104475    14.003074004430
         N           -1.076241586728     1.032389667506    -0.451378104475    14.003074004430
         N           -1.263088586728    -1.198361332494     0.431473895525    14.003074004430
         C            1.765256413272     0.739939667506     0.135966895525    12.000000000000
         C            2.984155413272     0.098045667506     0.010350895525    12.000000000000
         C           -0.584809586728    -0.134685332494    -0.016103104475    12.000000000000
         C            1.479958913272     2.073801267506     0.420018795525    12.000000000000
         C            2.684931413272    -1.254450332494    -0.237571104475    12.000000000000
         C           -2.415544586728     1.137648667506    -0.429485104475    12.000000000000
         C           -2.598375586728    -1.072692332494     0.405980895525    12.000000000000
         C           -3.235921586728     0.091751667506    -0.018878104475    12.000000000000
         H            3.958402413272     0.559752667506     0.101669895525     1.007825032230
         H            1.018732413272     2.683535667506    -0.415718104475     1.007825032230
         H            0.759987413272     2.265156667506     1.275759895525     1.007825032230
         H            2.391971413272     2.669358667506     0.715769895525     1.007825032230
         H            3.361694413272    -2.082374332494    -0.407496104475     1.007825032230
         H           -2.824940586728     2.086349667506    -0.770955104475     1.007825032230
         H           -3.162895586728    -1.935286332494     0.754884895525     1.007825032230
         H           -4.317135586728     0.180683667506    -0.022436104475     1.007825032230

  Basis Set: AUG-CC-PVTZ
    Blend: AUG-CC-PVTZ
  Basis Set: (AUG-CC-PVTZ AUX)
    Blend: AUG-CC-PVTZ-JKFIT
	 Reference Energy          =    -525.5307274385270375 [Eh]
	 Singles Energy            =      -0.0000000000000000 [Eh]
	 Same-Spin Energy          =      -0.5790538421489161 [Eh]
	 Opposite-Spin Energy      =      -1.7402660071070521 [Eh]
	 Correlation Energy        =      -2.3193198492559683 [Eh]
	 Total Energy              =    -527.8500472877830134 [Eh]

	 ================> DF-SCS-MP2 Energies <==================
	-----------------------------------------------------------
	 SCS Same-Spin Scale       =       0.3333333333333333 [-]
	 SCS Opposite-Spin Scale   =       1.2000000000000000 [-]
	 SCS Same-Spin Energy      =      -0.1930179473829720 [Eh]
	 SCS Opposite-Spin Energy  =      -2.0883192085284623 [Eh]
	 SCS Correlation Energy    =      -2.2813371559114342 [Eh]
	 SCS Total Energy          =    -527.8120645944384250 [Eh]
	-----------------------------------------------------------

  Dipole Moment: [D]
     X:    -2.5736      Y:     2.5541      Z:     0.4350     Total:     3.6519

*** Psi4 exiting successfully. Buy a developer a beer!
