                               Psi4 1.3.2 release

  ==> Input File <==

--------------------------------------------------------------------------
#psi4
#
memory 32 gb

molecule  {
0 1
  N        0.8160970    -0.2990240    -0.0443680
  N        1.3585440    -1.5263750    -0.2734470
  N       -1.0817850     0.9875590    -0.4601130
  N       -1.2686320    -1.2431920     0.4227390
  C        1.7597130     0.6951090     0.1272320
  C        2.9786120     0.0532150     0.0016160
  C       -0.5903530    -0.1795160    -0.0248380
  C        1.4539390     2.1247050     0.4316710
  C        2.6793880    -1.2992810    -0.2463060
  C       -2.4210880     1.0928180    -0.4382200
  C       -2.4779014    -1.0500346     0.3680624
  C       -3.2414650     0.0469210    -0.0276130
  H        3.9528590     0.5149220     0.0929350
  H        1.0131890     2.6387050    -0.4244530
  H        0.7544440     2.2203260     1.2670250
  H        2.3864280     2.6245280     0.7070350
  H        3.3561510    -2.1272050    -0.4162310
  H       -2.8304840     2.0415190    -0.7796900
  H       -3.1684390    -1.9801170     0.7461500
  H       -4.3226790     0.1358530    -0.0311710
units angstrom
no_reorient  #important for SAPT in psi4, default
symmetry c1  #important for SAPT in psi4, default
}

set PROPERTIES_ORIGIN ["COM"]
properties('MP2/aug-cc-pvtz', properties = ['dipole'])
--------------------------------------------------------------------------

    Molecular point group: c1
  Charge       = 0
  Multiplicity = 1
  Basis Set: AUG-CC-PVTZ
    Blend: AUG-CC-PVTZ
  Basis Set: (AUG-CC-PVTZ AUX)
    Blend: AUG-CC-PVTZ-JKFIT

    Orbital Energies [Eh]
    ---------------------

    Doubly Occupied:

       1A    -15.645488     2A    -15.584568     3A    -15.582148
       4A    -15.575805     5A    -11.374085     6A    -11.308213
       7A    -11.305497     8A    -11.289548     9A    -11.257867
      10A    -11.250125    11A    -11.236471    12A    -11.220112
      13A     -1.394644    14A     -1.337437    15A     -1.231521
      16A     -1.132598    17A     -1.086468    18A     -1.046945
      19A     -0.961088    20A     -0.909474    21A     -0.897890
      22A     -0.805335    23A     -0.792409    24A     -0.723817
      25A     -0.706483    26A     -0.685748    27A     -0.644541
      28A     -0.633708    29A     -0.604139    30A     -0.592567
      31A     -0.584062    32A     -0.568424    33A     -0.560303
      34A     -0.557005    35A     -0.538022    36A     -0.500552
      37A     -0.458935    38A     -0.449856    39A     -0.412614
      40A     -0.407617    41A     -0.338746    42A     -0.335330

  @DF-RHF Final Energy:  -525.51884393356204

   => Energetics <=

    Nuclear Repulsion Energy =            661.6633298640861085
    One-Electron Energy =               -2025.3079396967536923
    Two-Electron Energy =                 838.1257658991055450
    Total Energy =                       -525.5188439335620387
  Basis Set: (AUG-CC-PVTZ AUX)
    Blend: AUG-CC-PVTZ-RI
    Molecular point group: c1

    Geometry (in Angstrom), charge = 0, multiplicity = 1:

       Center              X                  Y                   Z               Mass
    ------------   -----------------  -----------------  -----------------  -----------------
         N            0.813728534336    -0.266429314810    -0.034973675655    14.003074004430
         N            1.356175534336    -1.493780314810    -0.264052675655    14.003074004430
         N           -1.084153465664     1.020153685190    -0.450718675655    14.003074004430
         N           -1.271000465664    -1.210597314810     0.432133324345    14.003074004430
         C            1.757344534336     0.727703685190     0.136626324345    12.000000000000
         C            2.976243534336     0.085809685190     0.011010324345    12.000000000000
         C           -0.592721465664    -0.146921314810    -0.015443675655    12.000000000000
         C            1.451570534336     2.157299685190     0.441065324345    12.000000000000
         C            2.677019534336    -1.266686314810    -0.236911675655    12.000000000000
         C           -2.423456465664     1.125412685190    -0.428825675655    12.000000000000
         C           -2.480269865664    -1.017439914810     0.377456724345    12.000000000000
         C           -3.243833465664     0.079515685190    -0.018218675655    12.000000000000
         H            3.950490534336     0.547516685190     0.102329324345     1.007825032230
         H            1.010820534336     2.671299685190    -0.415058675655     1.007825032230
         H            0.752075534336     2.252920685190     1.276419324345     1.007825032230
         H            2.384059534336     2.657122685190     0.716429324345     1.007825032230
         H            3.353782534336    -2.094610314810    -0.406836675655     1.007825032230
         H           -2.832852465664     2.074113685190    -0.770295675655     1.007825032230
         H           -3.170807465664    -1.947522314810     0.755544324345     1.007825032230
         H           -4.325047465664     0.168447685190    -0.021776675655     1.007825032230

  Basis Set: AUG-CC-PVTZ
    Blend: AUG-CC-PVTZ
  Basis Set: (AUG-CC-PVTZ AUX)
    Blend: AUG-CC-PVTZ-JKFIT
	 Reference Energy          =    -525.5188439335620387 [Eh]
	 Singles Energy            =      -0.0000000000000000 [Eh]
	 Same-Spin Energy          =      -0.5768269217977571 [Eh]
	 Opposite-Spin Energy      =      -1.7371513131133880 [Eh]
	 Correlation Energy        =      -2.3139782349111453 [Eh]
	 Total Energy              =    -527.8328221684731716 [Eh]

	 ================> DF-SCS-MP2 Energies <==================
	-----------------------------------------------------------
	 SCS Same-Spin Scale       =       0.3333333333333333 [-]
	 SCS Opposite-Spin Scale   =       1.2000000000000000 [-]
	 SCS Same-Spin Energy      =      -0.1922756405992523 [Eh]
	 SCS Opposite-Spin Energy  =      -2.0845815757360655 [Eh]
	 SCS Correlation Energy    =      -2.2768572163353178 [Eh]
	 SCS Total Energy          =    -527.7957011498973543 [Eh]
	-----------------------------------------------------------

  Dipole Moment: [D]
     X:    -2.1879      Y:     2.7412      Z:     0.3660     Total:     3.5264

*** Psi4 exiting successfully. Buy a developer a beer!
