                               Psi4 1.3.2 release

  ==> Input File <==

--------------------------------------------------------------------------
#psi4
#
memory 32 gb

molecule  {
0 1
  N        0.8188694    -0.2532802    -0.0624703
  N        1.3585440    -1.5263750    -0.2734470
  N       -1.0817850     0.9875590    -0.4601130
  N       -1.2686320    -1.2431920     0.4227390
  C        1.7597130     0.6951090     0.1272320
  C        2.9786120     0.0532150     0.0016160
  C       -0.5903530    -0.1795160    -0.0248380
  C        1.4539390     2.1247050     0.4316710
  C        2.6793880    -1.2992810    -0.2463060
  C       -2.4210880     1.0928180    -0.4382200
  C       -2.6039190    -1.1175230     0.3972460
  C       -3.2414650     0.0469210    -0.0276130
  H        3.9528590     0.5149220     0.0929350
  H        1.0131890     2.6387050    -0.4244530
  H        0.7544440     2.2203260     1.2670250
  H        2.3864280     2.6245280     0.7070350
  H        3.3561510    -2.1272050    -0.4162310
  H       -2.8304840     2.0415190    -0.7796900
  H       -3.1684390    -1.9801170     0.7461500
  H       -4.3226790     0.1358530    -0.0311710
units angstrom
no_reorient  #important for SAPT in psi4, default
symmetry c1  #important for SAPT in psi4, default
}

set PROPERTIES_ORIGIN ["COM"]
properties('MP2/aug-cc-pvtz', properties = ['dipole'])
--------------------------------------------------------------------------

    Molecular point group: c1
  Charge       = 0
  Multiplicity = 1
  Basis Set: AUG-CC-PVTZ
    Blend: AUG-CC-PVTZ
  Basis Set: (AUG-CC-PVTZ AUX)
    Blend: AUG-CC-PVTZ-JKFIT

    Orbital Energies [Eh]
    ---------------------

    Doubly Occupied:

       1A    -15.640111     2A    -15.581383     3A    -15.580586
       4A    -15.579607     5A    -11.368024     6A    -11.310916
       7A    -11.309895     8A    -11.287228     9A    -11.256978
      10A    -11.252685    11A    -11.234498    12A    -11.215141
      13A     -1.381042    14A     -1.310484    15A     -1.206172
      16A     -1.131205    17A     -1.086087    18A     -1.043471
      19A     -0.958778    20A     -0.909019    21A     -0.898082
      22A     -0.798955    23A     -0.796262    24A     -0.713598
      25A     -0.706026    26A     -0.682095    27A     -0.638557
      28A     -0.632594    29A     -0.607198    30A     -0.590973
      31A     -0.585312    32A     -0.574298    33A     -0.561220
      34A     -0.550220    35A     -0.536432    36A     -0.492347
      37A     -0.454516    38A     -0.430381    39A     -0.420080
      40A     -0.408761    41A     -0.343547    42A     -0.328874

  @DF-RHF Final Energy:  -525.54139005040258

   => Energetics <=

    Nuclear Repulsion Energy =            658.2981151486025055
    One-Electron Energy =               -2018.8917344833380412
    Two-Electron Energy =                 835.0522292843330661
    Total Energy =                       -525.5413900504025833
  Basis Set: (AUG-CC-PVTZ AUX)
    Blend: AUG-CC-PVTZ-RI
    Molecular point group: c1

    Geometry (in Angstrom), charge = 0, multiplicity = 1:

       Center              X                  Y                   Z               Mass
    ------------   -----------------  -----------------  -----------------  -----------------
         N            0.825705307488    -0.219627841263    -0.053680163792    14.003074004430
         N            1.365379907488    -1.492722641263    -0.264656863792    14.003074004430
         N           -1.074949092512     1.021211358737    -0.451322863792    14.003074004430
         N           -1.261796092512    -1.209539641263     0.431529136208    14.003074004430
         C            1.766548907488     0.728761358737     0.136022136208    12.000000000000
         C            2.985447907488     0.086867358737     0.010406136208    12.000000000000
         C           -0.583517092512    -0.145863641263    -0.016047863792    12.000000000000
         C            1.460774907488     2.158357358737     0.440461136208    12.000000000000
         C            2.686223907488    -1.265628641263    -0.237515863792    12.000000000000
         C           -2.414252092512     1.126470358737    -0.429429863792    12.000000000000
         C           -2.597083092512    -1.083870641263     0.406036136208    12.000000000000
         C           -3.234629092512     0.080573358737    -0.018822863792    12.000000000000
         H            3.959694907488     0.548574358737     0.101725136208     1.007825032230
         H            1.020024907488     2.672357358737    -0.415662863792     1.007825032230
         H            0.761279907488     2.253978358737     1.275815136208     1.007825032230
         H            2.393263907488     2.658180358737     0.715825136208     1.007825032230
         H            3.362986907488    -2.093552641263    -0.407440863792     1.007825032230
         H           -2.823648092512     2.075171358737    -0.770899863792     1.007825032230
         H           -3.161603092512    -1.946464641263     0.754940136208     1.007825032230
         H           -4.315843092512     0.169505358737    -0.022380863792     1.007825032230

  Basis Set: AUG-CC-PVTZ
    Blend: AUG-CC-PVTZ
  Basis Set: (AUG-CC-PVTZ AUX)
    Blend: AUG-CC-PVTZ-JKFIT
	 Reference Energy          =    -525.5413900504025833 [Eh]
	 Singles Energy            =      -0.0000000000000000 [Eh]
	 Same-Spin Energy          =      -0.5773888743332196 [Eh]
	 Opposite-Spin Energy      =      -1.7388320548029521 [Eh]
	 Correlation Energy        =      -2.3162209291361719 [Eh]
	 Total Energy              =    -527.8576109795387765 [Eh]

	 ================> DF-SCS-MP2 Energies <==================
	-----------------------------------------------------------
	 SCS Same-Spin Scale       =       0.3333333333333333 [-]
	 SCS Opposite-Spin Scale   =       1.2000000000000000 [-]
	 SCS Same-Spin Energy      =      -0.1924629581110732 [Eh]
	 SCS Opposite-Spin Energy  =      -2.0865984657635424 [Eh]
	 SCS Correlation Energy    =      -2.2790614238746154 [Eh]
	 SCS Total Energy          =    -527.8204514742772062 [Eh]
	-----------------------------------------------------------

  Dipole Moment: [D]
     X:    -2.5796      Y:     2.5244      Z:     0.4444     Total:     3.6365

*** Psi4 exiting successfully. Buy a developer a beer!
