                               Psi4 1.4a3.dev225

  ==> Input File <==

--------------------------------------------------------------------------
#psi4
#
memory 32 gb

molecule  {
0 1
  N        0.8160970    -0.2990240    -0.0443680
  N        1.3585440    -1.5263750    -0.2734470
  N       -1.0817850     0.9875590    -0.4601130
  N       -1.2686320    -1.2431920     0.4227390
  C        1.7597130     0.6951090     0.1272320
  C        2.9786120     0.0532150     0.0016160
  C       -0.5903530    -0.1795160    -0.0248380
  C        1.4539390     2.1247050     0.4316710
  C        2.6793880    -1.2992810    -0.2463060
  C       -2.4210880     1.0928180    -0.4382200
  C       -2.6039190    -1.1175230     0.3972460
  C       -3.2119811     0.0845100    -0.0423700
  H        3.9528590     0.5149220     0.0929350
  H        1.0131890     2.6387050    -0.4244530
  H        0.7544440     2.2203260     1.2670250
  H        2.3864280     2.6245280     0.7070350
  H        3.3561510    -2.1272050    -0.4162310
  H       -2.8304840     2.0415190    -0.7796900
  H       -3.1684390    -1.9801170     0.7461500
  H       -4.3226790     0.1358530    -0.0311710
units angstrom
no_reorient  #important for SAPT in psi4, default
symmetry c1  #important for SAPT in psi4, default
}

set PROPERTIES_ORIGIN ["COM"]
properties('MP2/aug-cc-pvtz', properties = ['dipole'])
--------------------------------------------------------------------------

    Molecular point group: c1
  Charge       = 0
  Multiplicity = 1
  Basis Set: AUG-CC-PVTZ
    Blend: AUG-CC-PVTZ
  Basis Set: (AUG-CC-PVTZ AUX)
    Blend: AUG-CC-PVTZ-JKFIT

    Orbital Energies [Eh]
    ---------------------

    Doubly Occupied:

       1A    -15.641785     2A    -15.581272     3A    -15.580468
       4A    -15.579868     5A    -11.366866     6A    -11.314800
       7A    -11.302361     8A    -11.286421     9A    -11.254314
      10A    -11.251893    11A    -11.234192    12A    -11.217015
      13A     -1.386181    14A     -1.313465    15A     -1.206405
      16A     -1.130723    17A     -1.084037    18A     -1.046387
      19A     -0.958333    20A     -0.912025    21A     -0.894461
      22A     -0.799699    23A     -0.795791    24A     -0.713827
      25A     -0.708542    26A     -0.680112    27A     -0.638870
      28A     -0.628565    29A     -0.608215    30A     -0.590070
      31A     -0.587755    32A     -0.575689    33A     -0.563290
      34A     -0.552798    35A     -0.535338    36A     -0.488341
      37A     -0.455116    38A     -0.430998    39A     -0.420599
      40A     -0.409407    41A     -0.338604    42A     -0.332136

  @DF-RHF Final Energy:  -525.54047955400540

   => Energetics <=

    Nuclear Repulsion Energy =            658.8902657317831881
    One-Electron Energy =               -2020.0674197137623196
    Two-Electron Energy =                 835.6366744279738441
    Total Energy =                       -525.5404795540054010
  Basis Set: (AUG-CC-PVTZ AUX)
    Blend: AUG-CC-PVTZ-RI
    Molecular point group: c1

    Geometry (in Angstrom), charge = 0, multiplicity = 1:

       Center              X                  Y                   Z               Mass
    ------------   -----------------  -----------------  -----------------  -----------------
         N            0.820965174352    -0.264187909016    -0.036055164408    14.003074004430
         N            1.363412174352    -1.491538909016    -0.265134164408    14.003074004430
         N           -1.076916825648     1.022395090984    -0.451800164408    14.003074004430
         N           -1.263763825648    -1.208355909016     0.431051835592    14.003074004430
         C            1.764581174352     0.729945090984     0.135544835592    12.000000000000
         C            2.983480174352     0.088051090984     0.009928835592    12.000000000000
         C           -0.585484825648    -0.144679909016    -0.016525164408    12.000000000000
         C            1.458807174352     2.159541090984     0.439983835592    12.000000000000
         C            2.684256174352    -1.264444909016    -0.237993164408    12.000000000000
         C           -2.416219825648     1.127654090984    -0.429907164408    12.000000000000
         C           -2.599050825648    -1.082686909016     0.405558835592    12.000000000000
         C           -3.207112925648     0.119346090984    -0.034057164408    12.000000000000
         H            3.957727174352     0.549758090984     0.101247835592     1.007825032230
         H            1.018057174352     2.673541090984    -0.416140164408     1.007825032230
         H            0.759312174352     2.255162090984     1.275337835592     1.007825032230
         H            2.391296174352     2.659364090984     0.715347835592     1.007825032230
         H            3.361019174352    -2.092368909016    -0.407918164408     1.007825032230
         H           -2.825615825648     2.076355090984    -0.771377164408     1.007825032230
         H           -3.163570825648    -1.945280909016     0.754462835592     1.007825032230
         H           -4.317810825648     0.170689090984    -0.022858164408     1.007825032230

  Basis Set: AUG-CC-PVTZ
    Blend: AUG-CC-PVTZ
  Basis Set: (AUG-CC-PVTZ AUX)
    Blend: AUG-CC-PVTZ-JKFIT
	 Reference Energy          =    -525.5404795540054010 [Eh]
	 Singles Energy            =      -0.0000000000000000 [Eh]
	 Same-Spin Energy          =      -0.5775974040377405 [Eh]
	 Opposite-Spin Energy      =      -1.7386809607041405 [Eh]
	 Correlation Energy        =      -2.3162783647418808 [Eh]
	 Total Energy              =    -527.8567579187472347 [Eh]

	 ================> DF-SCS-MP2 Energies <==================
	-----------------------------------------------------------
	 SCS Same-Spin Scale       =       0.3333333333333333 [-]
	 SCS Opposite-Spin Scale   =       1.2000000000000000 [-]
	 SCS Same-Spin Energy      =      -0.1925324680125802 [Eh]
	 SCS Opposite-Spin Energy  =      -2.0864171528449686 [Eh]
	 SCS Correlation Energy    =      -2.2789496208575488 [Eh]
	 SCS Total Energy          =    -527.8194291748629894 [Eh]
	-----------------------------------------------------------

  Dipole Moment: [D]
     X:    -2.5900      Y:     2.4814      Z:     0.4687     Total:     3.6174

*** Psi4 exiting successfully. Buy a developer a beer!
