                               Psi4 1.3.2 release

  ==> Input File <==

--------------------------------------------------------------------------
#psi4
#
memory 32 gb

molecule  {
0 1
  N        0.8160970    -0.2990240    -0.0443680
  N        1.3585440    -1.5263750    -0.2734470
  N       -1.0817850     0.9875590    -0.4601130
  N       -1.2686320    -1.2431920     0.4227390
  C        1.7597130     0.6951090     0.1272320
  C        2.9786120     0.0532150     0.0016160
  C       -0.4890099    -0.0205899    -0.0917114
  C        1.4539390     2.1247050     0.4316710
  C        2.6793880    -1.2992810    -0.2463060
  C       -2.4210880     1.0928180    -0.4382200
  C       -2.6039190    -1.1175230     0.3972460
  C       -3.2414650     0.0469210    -0.0276130
  H        3.9528590     0.5149220     0.0929350
  H        1.0131890     2.6387050    -0.4244530
  H        0.7544440     2.2203260     1.2670250
  H        2.3864280     2.6245280     0.7070350
  H        3.3561510    -2.1272050    -0.4162310
  H       -2.8304840     2.0415190    -0.7796900
  H       -3.1684390    -1.9801170     0.7461500
  H       -4.3226790     0.1358530    -0.0311710
units angstrom
no_reorient  #important for SAPT in psi4, default
symmetry c1  #important for SAPT in psi4, default
}

set PROPERTIES_ORIGIN ["COM"]
properties('MP2/aug-cc-pvtz', properties = ['dipole'])
--------------------------------------------------------------------------

    Molecular point group: c1
  Charge       = 0
  Multiplicity = 1
  Basis Set: AUG-CC-PVTZ
    Blend: AUG-CC-PVTZ
  Basis Set: (AUG-CC-PVTZ AUX)
    Blend: AUG-CC-PVTZ-JKFIT

    Orbital Energies [Eh]
    ---------------------

    Doubly Occupied:

       1A    -15.649377     2A    -15.591313     3A    -15.574895
       4A    -15.570226     5A    -11.363695     6A    -11.306241
       7A    -11.294068     8A    -11.292807     9A    -11.264963
      10A    -11.248332    11A    -11.240992    12A    -11.224617
      13A     -1.402274    14A     -1.314866    15A     -1.180168
      16A     -1.149262    17A     -1.089140    18A     -1.045988
      19A     -0.966920    20A     -0.914386    21A     -0.886715
      22A     -0.814853    23A     -0.794789    24A     -0.717101
      25A     -0.705742    26A     -0.675051    27A     -0.647034
      28A     -0.634197    29A     -0.612456    30A     -0.592482
      31A     -0.584425    32A     -0.575258    33A     -0.569282
      34A     -0.555476    35A     -0.542245    36A     -0.486256
      37A     -0.460660    38A     -0.435483    39A     -0.401311
      40A     -0.390054    41A     -0.340174    42A     -0.333054

  @DF-RHF Final Energy:  -525.50037209903826

   => Energetics <=

    Nuclear Repulsion Energy =            658.8716388683641298
    One-Electron Energy =               -2019.8667672710416809
    Two-Electron Energy =                 835.4947563036391784
    Total Energy =                       -525.5003720990382590
  Basis Set: (AUG-CC-PVTZ AUX)
    Blend: AUG-CC-PVTZ-RI
    Molecular point group: c1

    Geometry (in Angstrom), charge = 0, multiplicity = 1:

       Center              X                  Y                   Z               Mass
    ------------   -----------------  -----------------  -----------------  -----------------
         N            0.815578255978    -0.273283933651    -0.032148263235    14.003074004430
         N            1.358025255978    -1.500634933651    -0.261227263235    14.003074004430
         N           -1.082303744022     1.013299066349    -0.447893263235    14.003074004430
         N           -1.269150744022    -1.217451933651     0.434958736765    14.003074004430
         C            1.759194255978     0.720849066349     0.139451736765    12.000000000000
         C            2.978093255978     0.078955066349     0.013835736765    12.000000000000
         C           -0.489528644022     0.005150166349    -0.079491663235    12.000000000000
         C            1.453420255978     2.150445066349     0.443890736765    12.000000000000
         C            2.678869255978    -1.273540933651    -0.234086263235    12.000000000000
         C           -2.421606744022     1.118558066349    -0.426000263235    12.000000000000
         C           -2.604437744022    -1.091782933651     0.409465736765    12.000000000000
         C           -3.241983744022     0.072661066349    -0.015393263235    12.000000000000
         H            3.952340255978     0.540662066349     0.105154736765     1.007825032230
         H            1.012670255978     2.664445066349    -0.412233263235     1.007825032230
         H            0.753925255978     2.246066066349     1.279244736765     1.007825032230
         H            2.385909255978     2.650268066349     0.719254736765     1.007825032230
         H            3.355632255978    -2.101464933651    -0.404011263235     1.007825032230
         H           -2.831002744022     2.067259066349    -0.767470263235     1.007825032230
         H           -3.168957744022    -1.954376933651     0.758369736765     1.007825032230
         H           -4.323197744022     0.161593066349    -0.018951263235     1.007825032230

  Basis Set: AUG-CC-PVTZ
    Blend: AUG-CC-PVTZ
  Basis Set: (AUG-CC-PVTZ AUX)
    Blend: AUG-CC-PVTZ-JKFIT
	 Reference Energy          =    -525.5003720990382590 [Eh]
	 Singles Energy            =      -0.0000000000000000 [Eh]
	 Same-Spin Energy          =      -0.5778607091801636 [Eh]
	 Opposite-Spin Energy      =      -1.7424628359318601 [Eh]
	 Correlation Energy        =      -2.3203235451120237 [Eh]
	 Total Energy              =    -527.8206956441503053 [Eh]

	 ================> DF-SCS-MP2 Energies <==================
	-----------------------------------------------------------
	 SCS Same-Spin Scale       =       0.3333333333333333 [-]
	 SCS Opposite-Spin Scale   =       1.2000000000000000 [-]
	 SCS Same-Spin Energy      =      -0.1926202363933879 [Eh]
	 SCS Opposite-Spin Energy  =      -2.0909554031182322 [Eh]
	 SCS Correlation Energy    =      -2.2835756395116200 [Eh]
	 SCS Total Energy          =    -527.7839477385498412 [Eh]
	-----------------------------------------------------------

  Dipole Moment: [D]
     X:    -1.5577      Y:     2.7342      Z:     0.3048     Total:     3.1615

*** Psi4 exiting successfully. Buy a developer a beer!
