                               Psi4 1.3.2 release

  ==> Input File <==

--------------------------------------------------------------------------
#psi4
#
memory 32 gb

molecule  {
0 1
  N        0.8160970    -0.2990240    -0.0443680
  N        1.3585440    -1.5263750    -0.2734470
  N       -1.0817850     0.9875590    -0.4601130
  N       -1.2686320    -1.2431920     0.4227390
  C        1.7597130     0.6951090     0.1272320
  C        2.9786120     0.0532150     0.0016160
  C       -0.5047580    -0.1461303    -0.0419954
  C        1.4539390     2.1247050     0.4316710
  C        2.6793880    -1.2992810    -0.2463060
  C       -2.4210880     1.0928180    -0.4382200
  C       -2.6039190    -1.1175230     0.3972460
  C       -3.2414650     0.0469210    -0.0276130
  H        3.9528590     0.5149220     0.0929350
  H        1.0131890     2.6387050    -0.4244530
  H        0.7544440     2.2203260     1.2670250
  H        2.3864280     2.6245280     0.7070350
  H        3.3561510    -2.1272050    -0.4162310
  H       -2.8304840     2.0415190    -0.7796900
  H       -3.1684390    -1.9801170     0.7461500
  H       -4.3226790     0.1358530    -0.0311710
units angstrom
no_reorient  #important for SAPT in psi4, default
symmetry c1  #important for SAPT in psi4, default
}

set PROPERTIES_ORIGIN ["COM"]
properties('MP2/aug-cc-pvtz', properties = ['dipole'])
--------------------------------------------------------------------------

    Molecular point group: c1
  Charge       = 0
  Multiplicity = 1
  Basis Set: AUG-CC-PVTZ
    Blend: AUG-CC-PVTZ
  Basis Set: (AUG-CC-PVTZ AUX)
    Blend: AUG-CC-PVTZ-JKFIT

    Orbital Energies [Eh]
    ---------------------

    Doubly Occupied:

       1A    -15.649779     2A    -15.589858     3A    -15.574779
       4A    -15.573635     5A    -11.367727     6A    -11.305067
       7A    -11.300526     8A    -11.295375     9A    -11.264778
      10A    -11.245082    11A    -11.239126    12A    -11.225873
      13A     -1.403387    14A     -1.296699    15A     -1.185446
      16A     -1.148081    17A     -1.091122    18A     -1.043708
      19A     -0.965618    20A     -0.903516    21A     -0.895283
      22A     -0.810293    23A     -0.801592    24A     -0.713059
      25A     -0.701724    26A     -0.683540    27A     -0.645373
      28A     -0.634110    29A     -0.606446    30A     -0.598059
      31A     -0.585058    32A     -0.572745    33A     -0.569974
      34A     -0.551221    35A     -0.541817    36A     -0.485426
      37A     -0.460987    38A     -0.423120    39A     -0.411061
      40A     -0.401776    41A     -0.340645    42A     -0.332487

  @DF-RHF Final Energy:  -525.53086395901187

   => Energetics <=

    Nuclear Repulsion Energy =            658.5403827385478053
    One-Electron Energy =               -2019.2725351284329918
    Two-Electron Energy =                 835.2012884308733192
    Total Energy =                       -525.5308639590118673
  Basis Set: (AUG-CC-PVTZ AUX)
    Blend: AUG-CC-PVTZ-RI
    Molecular point group: c1

    Geometry (in Angstrom), charge = 0, multiplicity = 1:

       Center              X                  Y                   Z               Mass
    ------------   -----------------  -----------------  -----------------  -----------------
         N            0.816758810858    -0.263872809015    -0.035875218641    14.003074004430
         N            1.359205810858    -1.491223809015    -0.264954218641    14.003074004430
         N           -1.081123189142     1.022710190985    -0.451620218641    14.003074004430
         N           -1.267970189142    -1.208040809015     0.431231781359    14.003074004430
         C            1.760374810858     0.730260190985     0.135724781359    12.000000000000
         C            2.979273810858     0.088366190985     0.010108781359    12.000000000000
         C           -0.504096189142    -0.110979109015    -0.033502618641    12.000000000000
         C            1.454600810858     2.159856190985     0.440163781359    12.000000000000
         C            2.680049810858    -1.264129809015    -0.237813218641    12.000000000000
         C           -2.420426189142     1.127969190985    -0.429727218641    12.000000000000
         C           -2.603257189142    -1.082371809015     0.405738781359    12.000000000000
         C           -3.240803189142     0.082072190985    -0.019120218641    12.000000000000
         H            3.953520810858     0.550073190985     0.101427781359     1.007825032230
         H            1.013850810858     2.673856190985    -0.415960218641     1.007825032230
         H            0.755105810858     2.255477190985     1.275517781359     1.007825032230
         H            2.387089810858     2.659679190985     0.715527781359     1.007825032230
         H            3.356812810858    -2.092053809015    -0.407738218641     1.007825032230
         H           -2.829822189142     2.076670190985    -0.771197218641     1.007825032230
         H           -3.167777189142    -1.944965809015     0.754642781359     1.007825032230
         H           -4.322017189142     0.171004190985    -0.022678218641     1.007825032230

  Basis Set: AUG-CC-PVTZ
    Blend: AUG-CC-PVTZ
  Basis Set: (AUG-CC-PVTZ AUX)
    Blend: AUG-CC-PVTZ-JKFIT
	 Reference Energy          =    -525.5308639590118673 [Eh]
	 Singles Energy            =      -0.0000000000000000 [Eh]
	 Same-Spin Energy          =      -0.5780856510609462 [Eh]
	 Opposite-Spin Energy      =      -1.7400681929626349 [Eh]
	 Correlation Energy        =      -2.3181538440235814 [Eh]
	 Total Energy              =    -527.8490178030353945 [Eh]

	 ================> DF-SCS-MP2 Energies <==================
	-----------------------------------------------------------
	 SCS Same-Spin Scale       =       0.3333333333333333 [-]
	 SCS Opposite-Spin Scale   =       1.2000000000000000 [-]
	 SCS Same-Spin Energy      =      -0.1926952170203154 [Eh]
	 SCS Opposite-Spin Energy  =      -2.0880818315551619 [Eh]
	 SCS Correlation Energy    =      -2.2807770485754775 [Eh]
	 SCS Total Energy          =    -527.8116410075873546 [Eh]
	-----------------------------------------------------------

  Dipole Moment: [D]
     X:    -1.6592      Y:     2.5475      Z:     0.4058     Total:     3.0672

*** Psi4 exiting successfully. Buy a developer a beer!
