                               Psi4 1.3.2 release

  ==> Input File <==

--------------------------------------------------------------------------
#psi4
#
memory 32 gb

molecule  {
0 1
  N        0.8160970    -0.2990240    -0.0443680
  N        1.3585440    -1.5263750    -0.2734470
  N       -1.0817850     0.9875590    -0.4601130
  N       -1.2686320    -1.2431920     0.4227390
  C        1.7597130     0.6951090     0.1272320
  C        2.9786120     0.0532150     0.0016160
  C       -0.5505006    -0.2023543    -0.0162809
  C        1.4539390     2.1247050     0.4316710
  C        2.6793880    -1.2992810    -0.2463060
  C       -2.4210880     1.0928180    -0.4382200
  C       -2.6039190    -1.1175230     0.3972460
  C       -3.2414650     0.0469210    -0.0276130
  H        3.9528590     0.5149220     0.0929350
  H        1.0131890     2.6387050    -0.4244530
  H        0.7544440     2.2203260     1.2670250
  H        2.3864280     2.6245280     0.7070350
  H        3.3561510    -2.1272050    -0.4162310
  H       -2.8304840     2.0415190    -0.7796900
  H       -3.1684390    -1.9801170     0.7461500
  H       -4.3226790     0.1358530    -0.0311710
units angstrom
no_reorient  #important for SAPT in psi4, default
symmetry c1  #important for SAPT in psi4, default
}

set PROPERTIES_ORIGIN ["COM"]
properties('MP2/aug-cc-pvtz', properties = ['dipole'])
--------------------------------------------------------------------------

    Molecular point group: c1
  Charge       = 0
  Multiplicity = 1
  Basis Set: AUG-CC-PVTZ
    Blend: AUG-CC-PVTZ
  Basis Set: (AUG-CC-PVTZ AUX)
    Blend: AUG-CC-PVTZ-JKFIT

    Orbital Energies [Eh]
    ---------------------

    Doubly Occupied:

       1A    -15.646039     2A    -15.585062     3A    -15.579905
       4A    -15.574567     5A    -11.367520     6A    -11.307543
       7A    -11.306456     8A    -11.291688     9A    -11.259273
      10A    -11.248792    11A    -11.236387    12A    -11.221727
      13A     -1.394362    14A     -1.303817    15A     -1.195969
      16A     -1.137325    17A     -1.087761    18A     -1.044975
      19A     -0.961728    20A     -0.903642    21A     -0.898014
      22A     -0.803547    23A     -0.800772    24A     -0.710810
      25A     -0.705740    26A     -0.684050    27A     -0.641573
      28A     -0.633112    29A     -0.605948    30A     -0.594131
      31A     -0.586126    32A     -0.572959    33A     -0.566799
      34A     -0.552350    35A     -0.538657    36A     -0.488983
      37A     -0.457890    38A     -0.425861    39A     -0.411897
      40A     -0.409468    41A     -0.336907    42A     -0.335445

  @DF-RHF Final Energy:  -525.54010781533600

   => Energetics <=

    Nuclear Repulsion Energy =            658.3314689751126707
    One-Electron Energy =               -2018.9119989259133945
    Two-Electron Energy =                 835.0404221354646097
    Total Energy =                       -525.5401078153360004
  Basis Set: (AUG-CC-PVTZ AUX)
    Blend: AUG-CC-PVTZ-RI
    Molecular point group: c1

    Geometry (in Angstrom), charge = 0, multiplicity = 1:

       Center              X                  Y                   Z               Mass
    ------------   -----------------  -----------------  -----------------  -----------------
         N            0.820187900695    -0.259657981983    -0.037802903788    14.003074004430
         N            1.362634900695    -1.487008981983    -0.266881903788    14.003074004430
         N           -1.077694099305     1.026925018017    -0.453547903788    14.003074004430
         N           -1.264541099305    -1.203825981983     0.429304096212    14.003074004430
         C            1.763803900695     0.734475018017     0.133797096212    12.000000000000
         C            2.982702900695     0.092581018017     0.008181096212    12.000000000000
         C           -0.546409699305    -0.162988281983    -0.009715803788    12.000000000000
         C            1.458029900695     2.164071018017     0.438236096212    12.000000000000
         C            2.683478900695    -1.259914981983    -0.239740903788    12.000000000000
         C           -2.416997099305     1.132184018017    -0.431654903788    12.000000000000
         C           -2.599828099305    -1.078156981983     0.403811096212    12.000000000000
         C           -3.237374099305     0.086287018017    -0.021047903788    12.000000000000
         H            3.956949900695     0.554288018017     0.099500096212     1.007825032230
         H            1.017279900695     2.678071018017    -0.417887903788     1.007825032230
         H            0.758534900695     2.259692018017     1.273590096212     1.007825032230
         H            2.390518900695     2.663894018017     0.713600096212     1.007825032230
         H            3.360241900695    -2.087838981983    -0.409665903788     1.007825032230
         H           -2.826393099305     2.080885018017    -0.773124903788     1.007825032230
         H           -3.164348099305    -1.940750981983     0.752715096212     1.007825032230
         H           -4.318588099305     0.175219018017    -0.024605903788     1.007825032230

  Basis Set: AUG-CC-PVTZ
    Blend: AUG-CC-PVTZ
  Basis Set: (AUG-CC-PVTZ AUX)
    Blend: AUG-CC-PVTZ-JKFIT
	 Reference Energy          =    -525.5401078153360004 [Eh]
	 Singles Energy            =      -0.0000000000000000 [Eh]
	 Same-Spin Energy          =      -0.5777876790820959 [Eh]
	 Opposite-Spin Energy      =      -1.7391927510580820 [Eh]
	 Correlation Energy        =      -2.3169804301401777 [Eh]
	 Total Energy              =    -527.8570882454762341 [Eh]

	 ================> DF-SCS-MP2 Energies <==================
	-----------------------------------------------------------
	 SCS Same-Spin Scale       =       0.3333333333333333 [-]
	 SCS Opposite-Spin Scale   =       1.2000000000000000 [-]
	 SCS Same-Spin Energy      =      -0.1925958930273653 [Eh]
	 SCS Opposite-Spin Energy  =      -2.0870313012696982 [Eh]
	 SCS Correlation Energy    =      -2.2796271942970634 [Eh]
	 SCS Total Energy          =    -527.8197350096330638 [Eh]
	-----------------------------------------------------------

  Dipole Moment: [D]
     X:    -2.1307      Y:     2.5126      Z:     0.4488     Total:     3.3248

*** Psi4 exiting successfully. Buy a developer a beer!
