                               Psi4 1.3.2 release

  ==> Input File <==

--------------------------------------------------------------------------
#psi4
#
memory 32 gb

molecule  {
0 1
  N        0.8160970    -0.2990240    -0.0443680
  N        1.3585440    -1.5263750    -0.2734470
  N       -1.0817850     0.9875590    -0.4601130
  N       -1.2686320    -1.2431920     0.4227390
  C        1.7239304     0.7269632     0.1326827
  C        2.9786120     0.0532150     0.0016160
  C       -0.5903530    -0.1795160    -0.0248380
  C        1.4539390     2.1247050     0.4316710
  C        2.6793880    -1.2992810    -0.2463060
  C       -2.4210880     1.0928180    -0.4382200
  C       -2.6039190    -1.1175230     0.3972460
  C       -3.2414650     0.0469210    -0.0276130
  H        3.9528590     0.5149220     0.0929350
  H        1.0131890     2.6387050    -0.4244530
  H        0.7544440     2.2203260     1.2670250
  H        2.3864280     2.6245280     0.7070350
  H        3.3561510    -2.1272050    -0.4162310
  H       -2.8304840     2.0415190    -0.7796900
  H       -3.1684390    -1.9801170     0.7461500
  H       -4.3226790     0.1358530    -0.0311710
units angstrom
no_reorient  #important for SAPT in psi4, default
symmetry c1  #important for SAPT in psi4, default
}

set PROPERTIES_ORIGIN ["COM"]
properties('MP2/aug-cc-pvtz', properties = ['dipole'])
--------------------------------------------------------------------------

    Molecular point group: c1
  Charge       = 0
  Multiplicity = 1
  Basis Set: AUG-CC-PVTZ
    Blend: AUG-CC-PVTZ
  Basis Set: (AUG-CC-PVTZ AUX)
    Blend: AUG-CC-PVTZ-JKFIT

    Orbital Energies [Eh]
    ---------------------

    Doubly Occupied:

       1A    -15.645253     2A    -15.583135     3A    -15.580366
       4A    -15.578885     5A    -11.366935     6A    -11.312044
       7A    -11.309770     8A    -11.291354     9A    -11.254216
      10A    -11.253162    11A    -11.234306    12A    -11.220218
      13A     -1.385692    14A     -1.312054    15A     -1.206547
      16A     -1.130865    17A     -1.085248    18A     -1.043372
      19A     -0.961985    20A     -0.909265    21A     -0.896337
      22A     -0.798156    23A     -0.795068    24A     -0.712453
      25A     -0.707571    26A     -0.682620    27A     -0.638995
      28A     -0.632469    29A     -0.607902    30A     -0.588539
      31A     -0.587637    32A     -0.577212    33A     -0.574156
      34A     -0.553239    35A     -0.530978    36A     -0.490891
      37A     -0.454885    38A     -0.430947    39A     -0.420640
      40A     -0.407011    41A     -0.338962    42A     -0.324263

  @DF-RHF Final Energy:  -525.53799631236222

   => Energetics <=

    Nuclear Repulsion Energy =            658.1980183693946174
    One-Electron Energy =               -2018.6408193339489117
    Two-Electron Energy =                 834.9048046521921833
    Total Energy =                       -525.5379963123622247
  Basis Set: (AUG-CC-PVTZ AUX)
    Blend: AUG-CC-PVTZ-RI
    Molecular point group: c1

    Geometry (in Angstrom), charge = 0, multiplicity = 1:

       Center              X                  Y                   Z               Mass
    ------------   -----------------  -----------------  -----------------  -----------------
         N            0.825857871572    -0.263758000257    -0.037570032796    14.003074004430
         N            1.368304871572    -1.491109000257    -0.266649032796    14.003074004430
         N           -1.072024128428     1.022824999743    -0.453315032796    14.003074004430
         N           -1.258871128428    -1.207926000257     0.429536967204    14.003074004430
         C            1.733691271572     0.762229199743     0.139480667204    12.000000000000
         C            2.988372871572     0.088480999743     0.008413967204    12.000000000000
         C           -0.580592128428    -0.144250000257    -0.018040032796    12.000000000000
         C            1.463699871572     2.159970999743     0.438468967204    12.000000000000
         C            2.689148871572    -1.264015000257    -0.239508032796    12.000000000000
         C           -2.411327128428     1.128083999743    -0.431422032796    12.000000000000
         C           -2.594158128428    -1.082257000257     0.404043967204    12.000000000000
         C           -3.231704128428     0.082186999743    -0.020815032796    12.000000000000
         H            3.962619871572     0.550187999743     0.099732967204     1.007825032230
         H            1.022949871572     2.673970999743    -0.417655032796     1.007825032230
         H            0.764204871572     2.255591999743     1.273822967204     1.007825032230
         H            2.396188871572     2.659793999743     0.713832967204     1.007825032230
         H            3.365911871572    -2.091939000257    -0.409433032796     1.007825032230
         H           -2.820723128428     2.076784999743    -0.772892032796     1.007825032230
         H           -3.158678128428    -1.944851000257     0.752947967204     1.007825032230
         H           -4.312918128428     0.171118999743    -0.024373032796     1.007825032230

  Basis Set: AUG-CC-PVTZ
    Blend: AUG-CC-PVTZ
  Basis Set: (AUG-CC-PVTZ AUX)
    Blend: AUG-CC-PVTZ-JKFIT
	 Reference Energy          =    -525.5379963123622247 [Eh]
	 Singles Energy            =      -0.0000000000000000 [Eh]
	 Same-Spin Energy          =      -0.5786359926382125 [Eh]
	 Opposite-Spin Energy      =      -1.7399724201840630 [Eh]
	 Correlation Energy        =      -2.3186084128222753 [Eh]
	 Total Energy              =    -527.8566047251845248 [Eh]

	 ================> DF-SCS-MP2 Energies <==================
	-----------------------------------------------------------
	 SCS Same-Spin Scale       =       0.3333333333333333 [-]
	 SCS Opposite-Spin Scale   =       1.2000000000000000 [-]
	 SCS Same-Spin Energy      =      -0.1928786642127375 [Eh]
	 SCS Opposite-Spin Energy  =      -2.0879669042208753 [Eh]
	 SCS Correlation Energy    =      -2.2808455684336129 [Eh]
	 SCS Total Energy          =    -527.8188418807958442 [Eh]
	-----------------------------------------------------------

  Dipole Moment: [D]
     X:    -2.6540      Y:     2.5812      Z:     0.4486     Total:     3.7293

*** Psi4 exiting successfully. Buy a developer a beer!
