                               Psi4 1.3.2 release

  ==> Input File <==

--------------------------------------------------------------------------
#psi4
#
memory 32 gb

molecule  {
0 1
  N        0.7158206    -0.1966547    -0.0250975
  N        1.3585440    -1.5263750    -0.2734470
  N       -1.0817850     0.9875590    -0.4601130
  N       -1.2686320    -1.2431920     0.4227390
  C        1.7597130     0.6951090     0.1272320
  C        2.9786120     0.0532150     0.0016160
  C       -0.5903530    -0.1795160    -0.0248380
  C        1.4539390     2.1247050     0.4316710
  C        2.6793880    -1.2992810    -0.2463060
  C       -2.4210880     1.0928180    -0.4382200
  C       -2.6039190    -1.1175230     0.3972460
  C       -3.2414650     0.0469210    -0.0276130
  H        3.9528590     0.5149220     0.0929350
  H        1.0131890     2.6387050    -0.4244530
  H        0.7544440     2.2203260     1.2670250
  H        2.3864280     2.6245280     0.7070350
  H        3.3561510    -2.1272050    -0.4162310
  H       -2.8304840     2.0415190    -0.7796900
  H       -3.1684390    -1.9801170     0.7461500
  H       -4.3226790     0.1358530    -0.0311710
units angstrom
no_reorient  #important for SAPT in psi4, default
symmetry c1  #important for SAPT in psi4, default
}

set PROPERTIES_ORIGIN ["COM"]
properties('MP2/aug-cc-pvtz', properties = ['dipole'])
--------------------------------------------------------------------------

    Molecular point group: c1
  Charge       = 0
  Multiplicity = 1
  Basis Set: AUG-CC-PVTZ
    Blend: AUG-CC-PVTZ
  Basis Set: (AUG-CC-PVTZ AUX)
    Blend: AUG-CC-PVTZ-JKFIT

    Orbital Energies [Eh]
    ---------------------

    Doubly Occupied:

       1A    -15.633809     2A    -15.589568     3A    -15.570100
       4A    -15.569580     5A    -11.355771     6A    -11.304015
       7A    -11.303737     8A    -11.303539     9A    -11.272400
      10A    -11.243682    11A    -11.234038    12A    -11.225514
      13A     -1.375861    14A     -1.292823    15A     -1.199809
      16A     -1.150596    17A     -1.082812    18A     -1.040876
      19A     -0.958890    20A     -0.905875    21A     -0.903256
      22A     -0.806336    23A     -0.789483    24A     -0.713157
      25A     -0.699680    26A     -0.679635    27A     -0.641238
      28A     -0.635908    29A     -0.606357    30A     -0.600090
      31A     -0.583140    32A     -0.572498    33A     -0.552029
      34A     -0.541822    35A     -0.539058    36A     -0.489634
      37A     -0.446068    38A     -0.424731    39A     -0.420333
      40A     -0.411636    41A     -0.344822    42A     -0.326034

  @DF-RHF Final Energy:  -525.51692376875383

   => Energetics <=

    Nuclear Repulsion Energy =            658.5534913458967594
    One-Electron Energy =               -2019.4603508109269114
    Two-Electron Energy =                 835.3899356962764386
    Total Energy =                       -525.5169237687538271
  Basis Set: (AUG-CC-PVTZ AUX)
    Blend: AUG-CC-PVTZ-RI
    Molecular point group: c1

    Geometry (in Angstrom), charge = 0, multiplicity = 1:

       Center              X                  Y                   Z               Mass
    ------------   -----------------  -----------------  -----------------  -----------------
         N            0.731671037599    -0.167955841690    -0.019576671450    14.003074004430
         N            1.374394437599    -1.497676141690    -0.267926171450    14.003074004430
         N           -1.065934562401     1.016257858310    -0.454592171450    14.003074004430
         N           -1.252781562401    -1.214493141690     0.428259828550    14.003074004430
         C            1.775563437599     0.723807858310     0.132752828550    12.000000000000
         C            2.994462437599     0.081913858310     0.007136828550    12.000000000000
         C           -0.574502562401    -0.150817141690    -0.019317171450    12.000000000000
         C            1.469789437599     2.153403858310     0.437191828550    12.000000000000
         C            2.695238437599    -1.270582141690    -0.240785171450    12.000000000000
         C           -2.405237562401     1.121516858310    -0.432699171450    12.000000000000
         C           -2.588068562401    -1.088824141690     0.402766828550    12.000000000000
         C           -3.225614562401     0.075619858310    -0.022092171450    12.000000000000
         H            3.968709437599     0.543620858310     0.098455828550     1.007825032230
         H            1.029039437599     2.667403858310    -0.418932171450     1.007825032230
         H            0.770294437599     2.249024858310     1.272545828550     1.007825032230
         H            2.402278437599     2.653226858310     0.712555828550     1.007825032230
         H            3.372001437599    -2.098506141690    -0.410710171450     1.007825032230
         H           -2.814633562401     2.070217858310    -0.774169171450     1.007825032230
         H           -3.152588562401    -1.951418141690     0.751670828550     1.007825032230
         H           -4.306828562401     0.164551858310    -0.025650171450     1.007825032230

  Basis Set: AUG-CC-PVTZ
    Blend: AUG-CC-PVTZ
  Basis Set: (AUG-CC-PVTZ AUX)
    Blend: AUG-CC-PVTZ-JKFIT
	 Reference Energy          =    -525.5169237687538271 [Eh]
	 Singles Energy            =      -0.0000000000000000 [Eh]
	 Same-Spin Energy          =      -0.5773802419712544 [Eh]
	 Opposite-Spin Energy      =      -1.7415239366671889 [Eh]
	 Correlation Energy        =      -2.3189041786384434 [Eh]
	 Total Energy              =    -527.8358279473923176 [Eh]

	 ================> DF-SCS-MP2 Energies <==================
	-----------------------------------------------------------
	 SCS Same-Spin Scale       =       0.3333333333333333 [-]
	 SCS Opposite-Spin Scale   =       1.2000000000000000 [-]
	 SCS Same-Spin Energy      =      -0.1924600806570848 [Eh]
	 SCS Opposite-Spin Energy  =      -2.0898287240006264 [Eh]
	 SCS Correlation Energy    =      -2.2822888046577110 [Eh]
	 SCS Total Energy          =    -527.7992125734115234 [Eh]
	-----------------------------------------------------------

  Dipole Moment: [D]
     X:    -1.6812      Y:     2.3668      Z:     0.4169     Total:     2.9329

*** Psi4 exiting successfully. Buy a developer a beer!
