                               Psi4 1.3.2 release

  ==> Input File <==

--------------------------------------------------------------------------
#psi4
#
memory 32 gb

molecule  {
0 1
  N        0.8160970    -0.2990240    -0.0443680
  N        1.3585440    -1.5263750    -0.2734470
  N       -1.0817850     0.9875590    -0.4601130
  N       -1.2686320    -1.2431920     0.4227390
  C        1.7597130     0.6951090     0.1272320
  C        2.9786120     0.0532150     0.0016160
  C       -0.5903530    -0.1795160    -0.0248380
  C        1.4539390     2.1247050     0.4316710
  C        2.6793880    -1.2992810    -0.2463060
  C       -2.4210880     1.0928180    -0.4382200
  C       -2.6039190    -1.1175230     0.3972460
  C       -3.1957260    -0.0366188     0.0028673
  H        3.9528590     0.5149220     0.0929350
  H        1.0131890     2.6387050    -0.4244530
  H        0.7544440     2.2203260     1.2670250
  H        2.3864280     2.6245280     0.7070350
  H        3.3561510    -2.1272050    -0.4162310
  H       -2.8304840     2.0415190    -0.7796900
  H       -3.1684390    -1.9801170     0.7461500
  H       -4.3226790     0.1358530    -0.0311710
units angstrom
no_reorient  #important for SAPT in psi4, default
symmetry c1  #important for SAPT in psi4, default
}

set PROPERTIES_ORIGIN ["COM"]
properties('MP2/aug-cc-pvtz', properties = ['dipole'])
--------------------------------------------------------------------------

    Molecular point group: c1
  Charge       = 0
  Multiplicity = 1
  Basis Set: AUG-CC-PVTZ
    Blend: AUG-CC-PVTZ
  Basis Set: (AUG-CC-PVTZ AUX)
    Blend: AUG-CC-PVTZ-JKFIT

    Orbital Energies [Eh]
    ---------------------

    Doubly Occupied:

       1A    -15.641386     2A    -15.586450     3A    -15.580822
       4A    -15.573938     5A    -11.365521     6A    -11.322384
       7A    -11.290535     8A    -11.286283     9A    -11.253812
      10A    -11.251055    11A    -11.235119    12A    -11.216860
      13A     -1.385854    14A     -1.314649    15A     -1.207367
      16A     -1.131174    17A     -1.085875    18A     -1.047215
      19A     -0.958946    20A     -0.917002    21A     -0.890555
      22A     -0.800931    23A     -0.794417    24A     -0.717312
      25A     -0.707068    26A     -0.677867    27A     -0.639320
      28A     -0.629648    29A     -0.609846    30A     -0.589937
      31A     -0.584382    32A     -0.576738    33A     -0.563456
      34A     -0.553651    35A     -0.535199    36A     -0.483834
      37A     -0.454253    38A     -0.434409    39A     -0.421127
      40A     -0.408793    41A     -0.338615    42A     -0.331872

  @DF-RHF Final Energy:  -525.52932777638250

   => Energetics <=

    Nuclear Repulsion Energy =            659.4727527816135080
    One-Electron Energy =               -2021.2132112040310403
    Two-Electron Energy =                 836.2111306460350306
    Total Energy =                       -525.5293277763825017
  Basis Set: (AUG-CC-PVTZ AUX)
    Blend: AUG-CC-PVTZ-RI
    Molecular point group: c1

    Geometry (in Angstrom), charge = 0, multiplicity = 1:

       Center              X                  Y                   Z               Mass
    ------------   -----------------  -----------------  -----------------  -----------------
         N            0.819746612263    -0.255107499571    -0.039446374477    14.003074004430
         N            1.362193612263    -1.482458499571    -0.268525374477    14.003074004430
         N           -1.078135387737     1.031475500429    -0.455191374477    14.003074004430
         N           -1.264982387737    -1.199275499571     0.427660625523    14.003074004430
         C            1.763362612263     0.739025500429     0.132153625523    12.000000000000
         C            2.982261612263     0.097131500429     0.006537625523    12.000000000000
         C           -0.586703387737    -0.135599499571    -0.019916374477    12.000000000000
         C            1.457588612263     2.168621500429     0.436592625523    12.000000000000
         C            2.683037612263    -1.255364499571    -0.241384374477    12.000000000000
         C           -2.417438387737     1.136734500429    -0.433298374477    12.000000000000
         C           -2.600269387737    -1.073606499571     0.402167625523    12.000000000000
         C           -3.192076387737     0.007297700429     0.007788925523    12.000000000000
         H            3.956508612263     0.558838500429     0.097856625523     1.007825032230
         H            1.016838612263     2.682621500429    -0.419531374477     1.007825032230
         H            0.758093612263     2.264242500429     1.271946625523     1.007825032230
         H            2.390077612263     2.668444500429     0.711956625523     1.007825032230
         H            3.359800612263    -2.083288499571    -0.411309374477     1.007825032230
         H           -2.826834387737     2.085435500429    -0.774768374477     1.007825032230
         H           -3.164789387737    -1.936200499571     0.751071625523     1.007825032230
         H           -4.319029387737     0.179769500429    -0.026249374477     1.007825032230

  Basis Set: AUG-CC-PVTZ
    Blend: AUG-CC-PVTZ
  Basis Set: (AUG-CC-PVTZ AUX)
    Blend: AUG-CC-PVTZ-JKFIT
	 Reference Energy          =    -525.5293277763825017 [Eh]
	 Singles Energy            =      -0.0000000000000000 [Eh]
	 Same-Spin Energy          =      -0.5778549872906517 [Eh]
	 Opposite-Spin Energy      =      -1.7392793593159028 [Eh]
	 Correlation Energy        =      -2.3171343466065544 [Eh]
	 Total Energy              =    -527.8464621229890099 [Eh]

	 ================> DF-SCS-MP2 Energies <==================
	-----------------------------------------------------------
	 SCS Same-Spin Scale       =       0.3333333333333333 [-]
	 SCS Opposite-Spin Scale   =       1.2000000000000000 [-]
	 SCS Same-Spin Energy      =      -0.1926183290968839 [Eh]
	 SCS Opposite-Spin Energy  =      -2.0871352311790834 [Eh]
	 SCS Correlation Energy    =      -2.2797535602759673 [Eh]
	 SCS Total Energy          =    -527.8090813366584371 [Eh]
	-----------------------------------------------------------

  Dipole Moment: [D]
     X:    -2.5632      Y:     2.7006      Z:     0.3820     Total:     3.7429

*** Psi4 exiting successfully. Buy a developer a beer!
