                               Psi4 1.3.2 release

  ==> Input File <==

--------------------------------------------------------------------------
#psi4
#
memory 32 gb

molecule  {
0 1
  N        0.8160970    -0.2990240    -0.0443680
  N        1.3585440    -1.5263750    -0.2734470
  N       -1.0817850     0.9875590    -0.4601130
  N       -1.2686320    -1.2431920     0.4227390
  C        1.7597130     0.6951090     0.1272320
  C        2.9786120     0.0532150     0.0016160
  C       -0.5687133    -0.1716967    -0.0289316
  C        1.4539390     2.1247050     0.4316710
  C        2.6793880    -1.2992810    -0.2463060
  C       -2.4210880     1.0928180    -0.4382200
  C       -2.6039190    -1.1175230     0.3972460
  C       -3.2414650     0.0469210    -0.0276130
  H        3.9528590     0.5149220     0.0929350
  H        1.0131890     2.6387050    -0.4244530
  H        0.7544440     2.2203260     1.2670250
  H        2.3864280     2.6245280     0.7070350
  H        3.3561510    -2.1272050    -0.4162310
  H       -2.8304840     2.0415190    -0.7796900
  H       -3.1684390    -1.9801170     0.7461500
  H       -4.3226790     0.1358530    -0.0311710
units angstrom
no_reorient  #important for SAPT in psi4, default
symmetry c1  #important for SAPT in psi4, default
}

set PROPERTIES_ORIGIN ["COM"]
properties('MP2/aug-cc-pvtz', properties = ['dipole'])
--------------------------------------------------------------------------

    Molecular point group: c1
  Charge       = 0
  Multiplicity = 1
  Basis Set: AUG-CC-PVTZ
    Blend: AUG-CC-PVTZ
  Basis Set: (AUG-CC-PVTZ AUX)
    Blend: AUG-CC-PVTZ-JKFIT

    Orbital Energies [Eh]
    ---------------------

    Doubly Occupied:

       1A    -15.644198     2A    -15.583545     3A    -15.580498
       4A    -15.577465     5A    -11.367447     6A    -11.309888
       7A    -11.307247     8A    -11.288911     9A    -11.257036
      10A    -11.250822    11A    -11.235794    12A    -11.219423
      13A     -1.390049    14A     -1.308481    15A     -1.200677
      16A     -1.133628    17A     -1.085770    18A     -1.045183
      19A     -0.960468    20A     -0.906066    21A     -0.897369
      22A     -0.802694    23A     -0.797185    24A     -0.712548
      25A     -0.705778    26A     -0.683418    27A     -0.639856
      28A     -0.633181    29A     -0.606528    30A     -0.592278
      31A     -0.586456    32A     -0.574137    33A     -0.565505
      34A     -0.552995    35A     -0.537377    36A     -0.490385
      37A     -0.456526    38A     -0.428080    39A     -0.415871
      40A     -0.408534    41A     -0.337237    42A     -0.334298

  @DF-RHF Final Energy:  -525.54261172111342

   => Energetics <=

    Nuclear Repulsion Energy =            658.3255221235955332
    One-Electron Energy =               -2018.9146013964614212
    Two-Electron Energy =                 835.0464675517525848
    Total Energy =                       -525.5426117211134169
  Basis Set: (AUG-CC-PVTZ AUX)
    Blend: AUG-CC-PVTZ-RI
    Molecular point group: c1

    Geometry (in Angstrom), charge = 0, multiplicity = 1:

       Center              X                  Y                   Z               Mass
    ------------   -----------------  -----------------  -----------------  -----------------
         N            0.821553214090    -0.261956226170    -0.036854545217    14.003074004430
         N            1.364000214090    -1.489307226170    -0.265933545217    14.003074004430
         N           -1.076328785910     1.024626773830    -0.452599545217    14.003074004430
         N           -1.263175785910    -1.206124226170     0.430252454783    14.003074004430
         C            1.765169214090     0.732176773830     0.134745454783    12.000000000000
         C            2.984068214090     0.090282773830     0.009129454783    12.000000000000
         C           -0.563257085910    -0.134628926170    -0.021418145217    12.000000000000
         C            1.459395214090     2.161772773830     0.439184454783    12.000000000000
         C            2.684844214090    -1.262213226170    -0.238792545217    12.000000000000
         C           -2.415631785910     1.129885773830    -0.430706545217    12.000000000000
         C           -2.598462785910    -1.080455226170     0.404759454783    12.000000000000
         C           -3.236008785910     0.083988773830    -0.020099545217    12.000000000000
         H            3.958315214090     0.551989773830     0.100448454783     1.007825032230
         H            1.018645214090     2.675772773830    -0.416939545217     1.007825032230
         H            0.759900214090     2.257393773830     1.274538454783     1.007825032230
         H            2.391884214090     2.661595773830     0.714548454783     1.007825032230
         H            3.361607214090    -2.090137226170    -0.408717545217     1.007825032230
         H           -2.825027785910     2.078586773830    -0.772176545217     1.007825032230
         H           -3.162982785910    -1.943049226170     0.753663454783     1.007825032230
         H           -4.317222785910     0.172920773830    -0.023657545217     1.007825032230

  Basis Set: AUG-CC-PVTZ
    Blend: AUG-CC-PVTZ
  Basis Set: (AUG-CC-PVTZ AUX)
    Blend: AUG-CC-PVTZ-JKFIT
	 Reference Energy          =    -525.5426117211134169 [Eh]
	 Singles Energy            =      -0.0000000000000000 [Eh]
	 Same-Spin Energy          =      -0.5776410085490464 [Eh]
	 Opposite-Spin Energy      =      -1.7388503946727425 [Eh]
	 Correlation Energy        =      -2.3164914032217889 [Eh]
	 Total Energy              =    -527.8591031243352063 [Eh]

	 ================> DF-SCS-MP2 Energies <==================
	-----------------------------------------------------------
	 SCS Same-Spin Scale       =       0.3333333333333333 [-]
	 SCS Opposite-Spin Scale   =       1.2000000000000000 [-]
	 SCS Same-Spin Energy      =      -0.1925470028496821 [Eh]
	 SCS Opposite-Spin Energy  =      -2.0866204736072911 [Eh]
	 SCS Correlation Energy    =      -2.2791674764569732 [Eh]
	 SCS Total Energy          =    -527.8217791975704358 [Eh]
	-----------------------------------------------------------

  Dipole Moment: [D]
     X:    -2.3493      Y:     2.5533      Z:     0.4313     Total:     3.4963

*** Psi4 exiting successfully. Buy a developer a beer!
