                               Psi4 1.4a3.dev225

  ==> Input File <==

--------------------------------------------------------------------------
#psi4
#
memory 32 gb

molecule  {
0 1
  N        0.8160970    -0.2990240    -0.0443680
  N        1.3585440    -1.5263750    -0.2734470
  N       -1.0817850     0.9875590    -0.4601130
  N       -1.2686320    -1.2431920     0.4227390
  C        1.7597130     0.6951090     0.1272320
  C        2.9786120     0.0532150     0.0016160
  C       -0.6102793    -0.1778228    -0.0245613
  C        1.4539390     2.1247050     0.4316710
  C        2.6793880    -1.2992810    -0.2463060
  C       -2.4210880     1.0928180    -0.4382200
  C       -2.6039190    -1.1175230     0.3972460
  C       -3.2414650     0.0469210    -0.0276130
  H        3.9528590     0.5149220     0.0929350
  H        1.0131890     2.6387050    -0.4244530
  H        0.7544440     2.2203260     1.2670250
  H        2.3864280     2.6245280     0.7070350
  H        3.3561510    -2.1272050    -0.4162310
  H       -2.8304840     2.0415190    -0.7796900
  H       -3.1684390    -1.9801170     0.7461500
  H       -4.3226790     0.1358530    -0.0311710
units angstrom
no_reorient  #important for SAPT in psi4, default
symmetry c1  #important for SAPT in psi4, default
}

set PROPERTIES_ORIGIN ["COM"]
properties('MP2/aug-cc-pvtz', properties = ['dipole'])
--------------------------------------------------------------------------

    Molecular point group: c1
  Charge       = 0
  Multiplicity = 1
  Basis Set: AUG-CC-PVTZ
    Blend: AUG-CC-PVTZ
  Basis Set: (AUG-CC-PVTZ AUX)
    Blend: AUG-CC-PVTZ-JKFIT

    Orbital Energies [Eh]
    ---------------------

    Doubly Occupied:

       1A    -15.640045     2A    -15.583920     3A    -15.580193
       4A    -15.579606     5A    -11.367411     6A    -11.313262
       7A    -11.311286     8A    -11.284529     9A    -11.254463
      10A    -11.252251    11A    -11.233784    12A    -11.215283
      13A     -1.383186    14A     -1.316436    15A     -1.211117
      16A     -1.125882    17A     -1.082790    18A     -1.044494
      19A     -0.957312    20A     -0.912073    21A     -0.895798
      22A     -0.797990    23A     -0.792907    24A     -0.714690
      25A     -0.708134    26A     -0.681423    27A     -0.636963
      28A     -0.633723    29A     -0.608017    30A     -0.587022
      31A     -0.586813    32A     -0.576148    33A     -0.562564
      34A     -0.552179    35A     -0.534559    36A     -0.492548
      37A     -0.453923    38A     -0.432970    39A     -0.423998
      40A     -0.407111    41A     -0.338556    42A     -0.330495

  @DF-RHF Final Energy:  -525.54337839674861

   => Energetics <=

    Nuclear Repulsion Energy =            658.2484422638618753
    One-Electron Energy =               -2018.7879264400221473
    Two-Electron Energy =                 834.9961057794117778
    Total Energy =                       -525.5433783967486079
  Basis Set: (AUG-CC-PVTZ AUX)
    Blend: AUG-CC-PVTZ-RI
    Molecular point group: c1

    Geometry (in Angstrom), charge = 0, multiplicity = 1:

       Center              X                  Y                   Z               Mass
    ------------   -----------------  -----------------  -----------------  -----------------
         N            0.824669205489    -0.261496983643    -0.037182164358    14.003074004430
         N            1.367116205489    -1.488847983643    -0.266261164358    14.003074004430
         N           -1.073212794511     1.025086016357    -0.452927164358    14.003074004430
         N           -1.260059794511    -1.205664983643     0.429924835642    14.003074004430
         C            1.768285205489     0.732636016357     0.134417835642    12.000000000000
         C            2.987184205489     0.090742016357     0.008801835642    12.000000000000
         C           -0.601707094511    -0.140295783643    -0.017375464358    12.000000000000
         C            1.462511205489     2.162232016357     0.438856835642    12.000000000000
         C            2.687960205489    -1.261753983643    -0.239120164358    12.000000000000
         C           -2.412515794511     1.130345016357    -0.431034164358    12.000000000000
         C           -2.595346794511    -1.079995983643     0.404431835642    12.000000000000
         C           -3.232892794511     0.084448016357    -0.020427164358    12.000000000000
         H            3.961431205489     0.552449016357     0.100120835642     1.007825032230
         H            1.021761205489     2.676232016357    -0.417267164358     1.007825032230
         H            0.763016205489     2.257853016357     1.274210835642     1.007825032230
         H            2.395000205489     2.662055016357     0.714220835642     1.007825032230
         H            3.364723205489    -2.089677983643    -0.409045164358     1.007825032230
         H           -2.821911794511     2.079046016357    -0.772504164358     1.007825032230
         H           -3.159866794511    -1.942589983643     0.753335835642     1.007825032230
         H           -4.314106794511     0.173380016357    -0.023985164358     1.007825032230

  Basis Set: AUG-CC-PVTZ
    Blend: AUG-CC-PVTZ
  Basis Set: (AUG-CC-PVTZ AUX)
    Blend: AUG-CC-PVTZ-JKFIT
	 Reference Energy          =    -525.5433783967486079 [Eh]
	 Singles Energy            =      -0.0000000000000000 [Eh]
	 Same-Spin Energy          =      -0.5775117893245647 [Eh]
	 Opposite-Spin Energy      =      -1.7384979406122674 [Eh]
	 Correlation Energy        =      -2.3160097299368321 [Eh]
	 Total Energy              =    -527.8593881266854169 [Eh]

	 ================> DF-SCS-MP2 Energies <==================
	-----------------------------------------------------------
	 SCS Same-Spin Scale       =       0.3333333333333333 [-]
	 SCS Opposite-Spin Scale   =       1.2000000000000000 [-]
	 SCS Same-Spin Energy      =      -0.1925039297748549 [Eh]
	 SCS Opposite-Spin Energy  =      -2.0861975287347208 [Eh]
	 SCS Correlation Energy    =      -2.2787014585095755 [Eh]
	 SCS Total Energy          =    -527.8220798552581527 [Eh]
	-----------------------------------------------------------

  Dipole Moment: [D]
     X:    -2.7953      Y:     2.5656      Z:     0.4422     Total:     3.8199

*** Psi4 exiting successfully. Buy a developer a beer!
