                               Psi4 1.3.2 release

  ==> Input File <==

--------------------------------------------------------------------------
#psi4
#
memory 32 gb

molecule  {
0 1
  N        0.8160970    -0.2990240    -0.0443680
  N        1.3585440    -1.5263750    -0.2734470
  N       -1.0987024     0.8563397    -0.4124218
  N       -1.2686320    -1.2431920     0.4227390
  C        1.7597130     0.6951090     0.1272320
  C        2.9786120     0.0532150     0.0016160
  C       -0.5903530    -0.1795160    -0.0248380
  C        1.4539390     2.1247050     0.4316710
  C        2.6793880    -1.2992810    -0.2463060
  C       -2.4210880     1.0928180    -0.4382200
  C       -2.6039190    -1.1175230     0.3972460
  C       -3.2414650     0.0469210    -0.0276130
  H        3.9528590     0.5149220     0.0929350
  H        1.0131890     2.6387050    -0.4244530
  H        0.7544440     2.2203260     1.2670250
  H        2.3864280     2.6245280     0.7070350
  H        3.3561510    -2.1272050    -0.4162310
  H       -2.8304840     2.0415190    -0.7796900
  H       -3.1684390    -1.9801170     0.7461500
  H       -4.3226790     0.1358530    -0.0311710
units angstrom
no_reorient  #important for SAPT in psi4, default
symmetry c1  #important for SAPT in psi4, default
}

set PROPERTIES_ORIGIN ["COM"]
properties('MP2/aug-cc-pvtz', properties = ['dipole'])
--------------------------------------------------------------------------

    Molecular point group: c1
  Charge       = 0
  Multiplicity = 1
  Basis Set: AUG-CC-PVTZ
    Blend: AUG-CC-PVTZ
  Basis Set: (AUG-CC-PVTZ AUX)
    Blend: AUG-CC-PVTZ-JKFIT

    Orbital Energies [Eh]
    ---------------------

    Doubly Occupied:

       1A    -15.636349     2A    -15.578818     3A    -15.572705
       4A    -15.563425     5A    -11.347940     6A    -11.315261
       7A    -11.306052     8A    -11.283894     9A    -11.255317
      10A    -11.251108    11A    -11.235028    12A    -11.214688
      13A     -1.391074    14A     -1.330416    15A     -1.206187
      16A     -1.130201    17A     -1.084124    18A     -1.049182
      19A     -0.957762    20A     -0.923883    21A     -0.891588
      22A     -0.804963    23A     -0.793073    24A     -0.728367
      25A     -0.705305    26A     -0.681775    27A     -0.642810
      28A     -0.634696    29A     -0.608290    30A     -0.598703
      31A     -0.588580    32A     -0.580399    33A     -0.561847
      34A     -0.553132    35A     -0.533734    36A     -0.484236
      37A     -0.451731    38A     -0.429824    39A     -0.409440
      40A     -0.405803    41A     -0.340245    42A     -0.329928

  @DF-RHF Final Energy:  -525.53108342631538

   => Energetics <=

    Nuclear Repulsion Energy =            661.6480021717703721
    One-Electron Energy =               -2025.5744035078148499
    Two-Electron Energy =                 838.3953179097289876
    Total Energy =                       -525.5310834263153765
  Basis Set: (AUG-CC-PVTZ AUX)
    Blend: AUG-CC-PVTZ-RI
    Molecular point group: c1

    Geometry (in Angstrom), charge = 0, multiplicity = 1:

       Center              X                  Y                   Z               Mass
    ------------   -----------------  -----------------  -----------------  -----------------
         N            0.824655337007    -0.249891216518    -0.041333364942    14.003074004430
         N            1.367102337007    -1.477242216518    -0.270412364942    14.003074004430
         N           -1.090144062993     0.905472483482    -0.409387164942    14.003074004430
         N           -1.260073662993    -1.194059216518     0.425773635058    14.003074004430
         C            1.768271337007     0.744241783482     0.130266635058    12.000000000000
         C            2.987170337007     0.102347783482     0.004650635058    12.000000000000
         C           -0.581794662993    -0.130383216518    -0.021803364942    12.000000000000
         C            1.462497337007     2.173837783482     0.434705635058    12.000000000000
         C            2.687946337007    -1.250148216518    -0.243271364942    12.000000000000
         C           -2.412529662993     1.141950783482    -0.435185364942    12.000000000000
         C           -2.595360662993    -1.068390216518     0.400280635058    12.000000000000
         C           -3.232906662993     0.096053783482    -0.024578364942    12.000000000000
         H            3.961417337007     0.564054783482     0.095969635058     1.007825032230
         H            1.021747337007     2.687837783482    -0.421418364942     1.007825032230
         H            0.763002337007     2.269458783482     1.270059635058     1.007825032230
         H            2.394986337007     2.673660783482     0.710069635058     1.007825032230
         H            3.364709337007    -2.078072216518    -0.413196364942     1.007825032230
         H           -2.821925662993     2.090651783482    -0.776655364942     1.007825032230
         H           -3.159880662993    -1.930984216518     0.749184635058     1.007825032230
         H           -4.314120662993     0.184985783482    -0.028136364942     1.007825032230

  Basis Set: AUG-CC-PVTZ
    Blend: AUG-CC-PVTZ
  Basis Set: (AUG-CC-PVTZ AUX)
    Blend: AUG-CC-PVTZ-JKFIT
	 Reference Energy          =    -525.5310834263153765 [Eh]
	 Singles Energy            =      -0.0000000000000000 [Eh]
	 Same-Spin Energy          =      -0.5768627690465824 [Eh]
	 Opposite-Spin Energy      =      -1.7360379620907940 [Eh]
	 Correlation Energy        =      -2.3129007311373764 [Eh]
	 Total Energy              =    -527.8439841574527236 [Eh]

	 ================> DF-SCS-MP2 Energies <==================
	-----------------------------------------------------------
	 SCS Same-Spin Scale       =       0.3333333333333333 [-]
	 SCS Opposite-Spin Scale   =       1.2000000000000000 [-]
	 SCS Same-Spin Energy      =      -0.1922875896821941 [Eh]
	 SCS Opposite-Spin Energy  =      -2.0832455545089528 [Eh]
	 SCS Correlation Energy    =      -2.2755331441911468 [Eh]
	 SCS Total Energy          =    -527.8066165705065487 [Eh]
	-----------------------------------------------------------

  Dipole Moment: [D]
     X:    -2.7610      Y:     2.8454      Z:     0.3393     Total:     3.9793

*** Psi4 exiting successfully. Buy a developer a beer!
