                               Psi4 1.3.2 release

  ==> Input File <==

--------------------------------------------------------------------------
#psi4
#
memory 32 gb

molecule  {
0 1
  N        0.8160970    -0.2990240    -0.0443680
  N        1.3585440    -1.5263750    -0.2734470
  N       -1.0817850     0.9875590    -0.4601130
  N       -1.2686320    -1.2431920     0.4227390
  C        1.7597130     0.6951090     0.1272320
  C        2.9786120     0.0532150     0.0016160
  C       -0.5536527    -0.2666735     0.0076684
  C        1.4539390     2.1247050     0.4316710
  C        2.6793880    -1.2992810    -0.2463060
  C       -2.4210880     1.0928180    -0.4382200
  C       -2.6039190    -1.1175230     0.3972460
  C       -3.2414650     0.0469210    -0.0276130
  H        3.9528590     0.5149220     0.0929350
  H        1.0131890     2.6387050    -0.4244530
  H        0.7544440     2.2203260     1.2670250
  H        2.3864280     2.6245280     0.7070350
  H        3.3561510    -2.1272050    -0.4162310
  H       -2.8304840     2.0415190    -0.7796900
  H       -3.1684390    -1.9801170     0.7461500
  H       -4.3226790     0.1358530    -0.0311710
units angstrom
no_reorient  #important for SAPT in psi4, default
symmetry c1  #important for SAPT in psi4, default
}

set PROPERTIES_ORIGIN ["COM"]
properties('MP2/aug-cc-pvtz', properties = ['dipole'])
--------------------------------------------------------------------------

    Molecular point group: c1
  Charge       = 0
  Multiplicity = 1
  Basis Set: AUG-CC-PVTZ
    Blend: AUG-CC-PVTZ
  Basis Set: (AUG-CC-PVTZ AUX)
    Blend: AUG-CC-PVTZ-JKFIT

    Orbital Energies [Eh]
    ---------------------

    Doubly Occupied:

       1A    -15.645615     2A    -15.584097     3A    -15.581198
       4A    -15.571352     5A    -11.366106     6A    -11.308342
       7A    -11.305852     8A    -11.292637     9A    -11.258679
      10A    -11.249193    11A    -11.235591    12A    -11.221943
      13A     -1.394983    14A     -1.307577    15A     -1.194958
      16A     -1.135523    17A     -1.088197    18A     -1.045409
      19A     -0.961011    20A     -0.909852    21A     -0.892278
      22A     -0.803857    23A     -0.800635    24A     -0.710164
      25A     -0.708182    26A     -0.681878    27A     -0.642106
      28A     -0.632870    29A     -0.606850    30A     -0.592358
      31A     -0.585341    32A     -0.572917    33A     -0.566097
      34A     -0.551867    35A     -0.538320    36A     -0.489370
      37A     -0.457677    38A     -0.430569    39A     -0.409725
      40A     -0.405586    41A     -0.336883    42A     -0.335594

  @DF-RHF Final Energy:  -525.53156526229634

   => Energetics <=

    Nuclear Repulsion Energy =            658.2906082959856349
    One-Electron Energy =               -2018.8258664696054439
    Two-Electron Energy =                 835.0036929113233555
    Total Energy =                       -525.5315652622963398
  Basis Set: (AUG-CC-PVTZ AUX)
    Blend: AUG-CC-PVTZ-RI
    Molecular point group: c1

    Geometry (in Angstrom), charge = 0, multiplicity = 1:

       Center              X                  Y                   Z               Mass
    ------------   -----------------  -----------------  -----------------  -----------------
         N            0.820424197584    -0.254836299021    -0.039598260879    14.003074004430
         N            1.362871197584    -1.482187299021    -0.268677260879    14.003074004430
         N           -1.077457802416     1.031746700979    -0.455343260879    14.003074004430
         N           -1.264304802416    -1.199004299021     0.427508739121    14.003074004430
         C            1.764040197584     0.739296700979     0.132001739121    12.000000000000
         C            2.982939197584     0.097402700979     0.006385739121    12.000000000000
         C           -0.549325502416    -0.222485799021     0.012438139121    12.000000000000
         C            1.458266197584     2.168892700979     0.436440739121    12.000000000000
         C            2.683715197584    -1.255093299021    -0.241536260879    12.000000000000
         C           -2.416760802416     1.137005700979    -0.433450260879    12.000000000000
         C           -2.599591802416    -1.073335299021     0.402015739121    12.000000000000
         C           -3.237137802416     0.091108700979    -0.022843260879    12.000000000000
         H            3.957186197584     0.559109700979     0.097704739121     1.007825032230
         H            1.017516197584     2.682892700979    -0.419683260879     1.007825032230
         H            0.758771197584     2.264513700979     1.271794739121     1.007825032230
         H            2.390755197584     2.668715700979     0.711804739121     1.007825032230
         H            3.360478197584    -2.083017299021    -0.411461260879     1.007825032230
         H           -2.826156802416     2.085706700979    -0.774920260879     1.007825032230
         H           -3.164111802416    -1.935929299021     0.750919739121     1.007825032230
         H           -4.318351802416     0.180040700979    -0.026401260879     1.007825032230

  Basis Set: AUG-CC-PVTZ
    Blend: AUG-CC-PVTZ
  Basis Set: (AUG-CC-PVTZ AUX)
    Blend: AUG-CC-PVTZ-JKFIT
	 Reference Energy          =    -525.5315652622963398 [Eh]
	 Singles Energy            =      -0.0000000000000000 [Eh]
	 Same-Spin Energy          =      -0.5777070454886206 [Eh]
	 Opposite-Spin Energy      =      -1.7398566105857498 [Eh]
	 Correlation Energy        =      -2.3175636560743706 [Eh]
	 Total Energy              =    -527.8491289183707522 [Eh]

	 ================> DF-SCS-MP2 Energies <==================
	-----------------------------------------------------------
	 SCS Same-Spin Scale       =       0.3333333333333333 [-]
	 SCS Opposite-Spin Scale   =       1.2000000000000000 [-]
	 SCS Same-Spin Energy      =      -0.1925690151628735 [Eh]
	 SCS Opposite-Spin Energy  =      -2.0878279327028997 [Eh]
	 SCS Correlation Energy    =      -2.2803969478657731 [Eh]
	 SCS Total Energy          =    -527.8119622101621644 [Eh]
	-----------------------------------------------------------

  Dipole Moment: [D]
     X:    -2.1229      Y:     2.4411      Z:     0.4908     Total:     3.2721

*** Psi4 exiting successfully. Buy a developer a beer!
