                               Psi4 1.3.2 release

  ==> Input File <==

--------------------------------------------------------------------------
#psi4
#
memory 32 gb

molecule  {
0 1
  N        0.8160970    -0.2990240    -0.0443680
  N        1.4860734    -1.4636336    -0.2633027
  N       -1.0817850     0.9875590    -0.4601130
  N       -1.2686320    -1.2431920     0.4227390
  C        1.7597130     0.6951090     0.1272320
  C        2.9786120     0.0532150     0.0016160
  C       -0.5903530    -0.1795160    -0.0248380
  C        1.4539390     2.1247050     0.4316710
  C        2.6793880    -1.2992810    -0.2463060
  C       -2.4210880     1.0928180    -0.4382200
  C       -2.6039190    -1.1175230     0.3972460
  C       -3.2414650     0.0469210    -0.0276130
  H        3.9528590     0.5149220     0.0929350
  H        1.0131890     2.6387050    -0.4244530
  H        0.7544440     2.2203260     1.2670250
  H        2.3864280     2.6245280     0.7070350
  H        3.3561510    -2.1272050    -0.4162310
  H       -2.8304840     2.0415190    -0.7796900
  H       -3.1684390    -1.9801170     0.7461500
  H       -4.3226790     0.1358530    -0.0311710
units angstrom
no_reorient  #important for SAPT in psi4, default
symmetry c1  #important for SAPT in psi4, default
}

set PROPERTIES_ORIGIN ["COM"]
properties('MP2/aug-cc-pvtz', properties = ['dipole'])
--------------------------------------------------------------------------

    Molecular point group: c1
  Charge       = 0
  Multiplicity = 1
  Basis Set: AUG-CC-PVTZ
    Blend: AUG-CC-PVTZ
  Basis Set: (AUG-CC-PVTZ AUX)
    Blend: AUG-CC-PVTZ-JKFIT

    Orbital Energies [Eh]
    ---------------------

    Doubly Occupied:

       1A    -15.636678     2A    -15.583270     3A    -15.579642
       4A    -15.563239     5A    -11.370939     6A    -11.312624
       7A    -11.310411     8A    -11.282050     9A    -11.253164
      10A    -11.236591    11A    -11.231428    12A    -11.208931
      13A     -1.397928    14A     -1.320790    15A     -1.206917
      16A     -1.159767    17A     -1.081273    18A     -1.046047
      19A     -0.955403    20A     -0.910768    21A     -0.900686
      22A     -0.801841    23A     -0.795613    24A     -0.713731
      25A     -0.711489    26A     -0.686113    27A     -0.644200
      28A     -0.639795    29A     -0.609157    30A     -0.600402
      31A     -0.586355    32A     -0.576423    33A     -0.561796
      34A     -0.557563    35A     -0.537738    36A     -0.492315
      37A     -0.434778    38A     -0.430609    39A     -0.420015
      40A     -0.416498    41A     -0.352651    42A     -0.326732

  @DF-RHF Final Energy:  -525.53270053297956

   => Energetics <=

    Nuclear Repulsion Energy =            660.2864176945048484
    One-Electron Energy =               -2022.7495189556184414
    Two-Electron Energy =                 836.9304007281339182
    Total Energy =                       -525.5327005329795611
  Basis Set: (AUG-CC-PVTZ AUX)
    Blend: AUG-CC-PVTZ-RI
    Molecular point group: c1

    Geometry (in Angstrom), charge = 0, multiplicity = 1:

       Center              X                  Y                   Z               Mass
    ------------   -----------------  -----------------  -----------------  -----------------
         N            0.812019381731    -0.266858561800    -0.038048827319    14.003074004430
         N            1.481995781731    -1.431468161800    -0.256983527319    14.003074004430
         N           -1.085862618269     1.019724438200    -0.453793827319    14.003074004430
         N           -1.272709618269    -1.211026561800     0.429058172681    14.003074004430
         C            1.755635381731     0.727274438200     0.133551172681    12.000000000000
         C            2.974534381731     0.085380438200     0.007935172681    12.000000000000
         C           -0.594430618269    -0.147350561800    -0.018518827319    12.000000000000
         C            1.449861381731     2.156870438200     0.437990172681    12.000000000000
         C            2.675310381731    -1.267115561800    -0.239986827319    12.000000000000
         C           -2.425165618269     1.124983438200    -0.431900827319    12.000000000000
         C           -2.607996618269    -1.085357561800     0.403565172681    12.000000000000
         C           -3.245542618269     0.079086438200    -0.021293827319    12.000000000000
         H            3.948781381731     0.547087438200     0.099254172681     1.007825032230
         H            1.009111381731     2.670870438200    -0.418133827319     1.007825032230
         H            0.750366381731     2.252491438200     1.273344172681     1.007825032230
         H            2.382350381731     2.656693438200     0.713354172681     1.007825032230
         H            3.352073381731    -2.095039561800    -0.409911827319     1.007825032230
         H           -2.834561618269     2.073684438200    -0.773370827319     1.007825032230
         H           -3.172516618269    -1.947951561800     0.752469172681     1.007825032230
         H           -4.326756618269     0.168018438200    -0.024851827319     1.007825032230

  Basis Set: AUG-CC-PVTZ
    Blend: AUG-CC-PVTZ
  Basis Set: (AUG-CC-PVTZ AUX)
    Blend: AUG-CC-PVTZ-JKFIT
	 Reference Energy          =    -525.5327005329795611 [Eh]
	 Singles Energy            =      -0.0000000000000000 [Eh]
	 Same-Spin Energy          =      -0.5736584488973488 [Eh]
	 Opposite-Spin Energy      =      -1.7312644425382677 [Eh]
	 Correlation Energy        =      -2.3049228914356164 [Eh]
	 Total Energy              =    -527.8376234244151419 [Eh]

	 ================> DF-SCS-MP2 Energies <==================
	-----------------------------------------------------------
	 SCS Same-Spin Scale       =       0.3333333333333333 [-]
	 SCS Opposite-Spin Scale   =       1.2000000000000000 [-]
	 SCS Same-Spin Energy      =      -0.1912194829657829 [Eh]
	 SCS Opposite-Spin Energy  =      -2.0775173310459212 [Eh]
	 SCS Correlation Energy    =      -2.2687368140117039 [Eh]
	 SCS Total Energy          =    -527.8014373469912925 [Eh]
	-----------------------------------------------------------

  Dipole Moment: [D]
     X:    -2.6585      Y:     2.2935      Z:     0.3776     Total:     3.5314

*** Psi4 exiting successfully. Buy a developer a beer!
