                               Psi4 1.3.2 release

  ==> Input File <==

--------------------------------------------------------------------------
#psi4
#
memory 32 gb

molecule  {
0 1
  N        0.8160970    -0.2990240    -0.0443680
  N        1.3458420    -1.4352621    -0.2563707
  N       -1.0817850     0.9875590    -0.4601130
  N       -1.2686320    -1.2431920     0.4227390
  C        1.7597130     0.6951090     0.1272320
  C        2.9786120     0.0532150     0.0016160
  C       -0.5903530    -0.1795160    -0.0248380
  C        1.4539390     2.1247050     0.4316710
  C        2.6793880    -1.2992810    -0.2463060
  C       -2.4210880     1.0928180    -0.4382200
  C       -2.6039190    -1.1175230     0.3972460
  C       -3.2414650     0.0469210    -0.0276130
  H        3.9528590     0.5149220     0.0929350
  H        1.0131890     2.6387050    -0.4244530
  H        0.7544440     2.2203260     1.2670250
  H        2.3864280     2.6245280     0.7070350
  H        3.3561510    -2.1272050    -0.4162310
  H       -2.8304840     2.0415190    -0.7796900
  H       -3.1684390    -1.9801170     0.7461500
  H       -4.3226790     0.1358530    -0.0311710
units angstrom
no_reorient  #important for SAPT in psi4, default
symmetry c1  #important for SAPT in psi4, default
}

set PROPERTIES_ORIGIN ["COM"]
properties('MP2/aug-cc-pvtz', properties = ['dipole'])
--------------------------------------------------------------------------

    Molecular point group: c1
  Charge       = 0
  Multiplicity = 1
  Basis Set: AUG-CC-PVTZ
    Blend: AUG-CC-PVTZ
  Basis Set: (AUG-CC-PVTZ AUX)
    Blend: AUG-CC-PVTZ-JKFIT

    Orbital Energies [Eh]
    ---------------------

    Doubly Occupied:

       1A    -15.648154     2A    -15.585676     3A    -15.582185
       4A    -15.572680     5A    -11.370055     6A    -11.313662
       7A    -11.311798     8A    -11.274849     9A    -11.255610
      10A    -11.247204    11A    -11.229956    12A    -11.216046
      13A     -1.419989    14A     -1.320826    15A     -1.208839
      16A     -1.129720    17A     -1.083308    18A     -1.050421
      19A     -0.952947    20A     -0.911486    21A     -0.902696
      22A     -0.810009    23A     -0.801114    24A     -0.714830
      25A     -0.709569    26A     -0.682980    27A     -0.649099
      28A     -0.637461    29A     -0.609236    30A     -0.599068
      31A     -0.587662    32A     -0.577319    33A     -0.562135
      34A     -0.557081    35A     -0.532254    36A     -0.494194
      37A     -0.444625    38A     -0.432330    39A     -0.419978
      40A     -0.406809    41A     -0.341920    42A     -0.323051

  @DF-RHF Final Energy:  -525.53950049751916

   => Energetics <=

    Nuclear Repulsion Energy =            661.0880240106728252
    One-Electron Energy =               -2024.2933913686988490
    Two-Electron Energy =                 837.6658668605068669
    Total Energy =                       -525.5395004975191569
  Basis Set: (AUG-CC-PVTZ AUX)
    Blend: AUG-CC-PVTZ-RI
    Molecular point group: c1

    Geometry (in Angstrom), charge = 0, multiplicity = 1:

       Center              X                  Y                   Z               Mass
    ------------   -----------------  -----------------  -----------------  -----------------
         N            0.824286581134    -0.269340451361    -0.038655226643    14.003074004430
         N            1.354031581134    -1.405578551361    -0.250657926643    14.003074004430
         N           -1.073595418866     1.017242548639    -0.454400226643    14.003074004430
         N           -1.260442418866    -1.213508451361     0.428451773357    14.003074004430
         C            1.767902581134     0.724792548639     0.132944773357    12.000000000000
         C            2.986801581134     0.082898548639     0.007328773357    12.000000000000
         C           -0.582163418866    -0.149832451361    -0.019125226643    12.000000000000
         C            1.462128581134     2.154388548639     0.437383773357    12.000000000000
         C            2.687577581134    -1.269597451361    -0.240593226643    12.000000000000
         C           -2.412898418866     1.122501548639    -0.432507226643    12.000000000000
         C           -2.595729418866    -1.087839451361     0.402958773357    12.000000000000
         C           -3.233275418866     0.076604548639    -0.021900226643    12.000000000000
         H            3.961048581134     0.544605548639     0.098647773357     1.007825032230
         H            1.021378581134     2.668388548639    -0.418740226643     1.007825032230
         H            0.762633581134     2.250009548639     1.272737773357     1.007825032230
         H            2.394617581134     2.654211548639     0.712747773357     1.007825032230
         H            3.364340581134    -2.097521451361    -0.410518226643     1.007825032230
         H           -2.822294418866     2.071202548639    -0.773977226643     1.007825032230
         H           -3.160249418866    -1.950433451361     0.751862773357     1.007825032230
         H           -4.314489418866     0.165536548639    -0.025458226643     1.007825032230

  Basis Set: AUG-CC-PVTZ
    Blend: AUG-CC-PVTZ
  Basis Set: (AUG-CC-PVTZ AUX)
    Blend: AUG-CC-PVTZ-JKFIT
	 Reference Energy          =    -525.5395004975191569 [Eh]
	 Singles Energy            =      -0.0000000000000000 [Eh]
	 Same-Spin Energy          =      -0.5779175749291230 [Eh]
	 Opposite-Spin Energy      =      -1.7368458086925622 [Eh]
	 Correlation Energy        =      -2.3147633836216852 [Eh]
	 Total Energy              =    -527.8542638811408096 [Eh]

	 ================> DF-SCS-MP2 Energies <==================
	-----------------------------------------------------------
	 SCS Same-Spin Scale       =       0.3333333333333333 [-]
	 SCS Opposite-Spin Scale   =       1.2000000000000000 [-]
	 SCS Same-Spin Energy      =      -0.1926391916430410 [Eh]
	 SCS Opposite-Spin Energy  =      -2.0842149704310744 [Eh]
	 SCS Correlation Energy    =      -2.2768541620741152 [Eh]
	 SCS Total Energy          =    -527.8163546595932303 [Eh]
	-----------------------------------------------------------

  Dipole Moment: [D]
     X:    -2.8117      Y:     2.4115      Z:     0.4086     Total:     3.7267

*** Psi4 exiting successfully. Buy a developer a beer!
