                               Psi4 1.3.2 release

  ==> Input File <==

--------------------------------------------------------------------------
#psi4
#
memory 32 gb

molecule  {
0 1
  N        0.8160970    -0.2990240    -0.0443680
  N        1.4382399    -1.7066965    -0.3071031
  N       -1.0817850     0.9875590    -0.4601130
  N       -1.2686320    -1.2431920     0.4227390
  C        1.7597130     0.6951090     0.1272320
  C        2.9786120     0.0532150     0.0016160
  C       -0.5903530    -0.1795160    -0.0248380
  C        1.4539390     2.1247050     0.4316710
  C        2.6793880    -1.2992810    -0.2463060
  C       -2.4210880     1.0928180    -0.4382200
  C       -2.6039190    -1.1175230     0.3972460
  C       -3.2414650     0.0469210    -0.0276130
  H        3.9528590     0.5149220     0.0929350
  H        1.0131890     2.6387050    -0.4244530
  H        0.7544440     2.2203260     1.2670250
  H        2.3864280     2.6245280     0.7070350
  H        3.3561510    -2.1272050    -0.4162310
  H       -2.8304840     2.0415190    -0.7796900
  H       -3.1684390    -1.9801170     0.7461500
  H       -4.3226790     0.1358530    -0.0311710
units angstrom
no_reorient  #important for SAPT in psi4, default
symmetry c1  #important for SAPT in psi4, default
}

set PROPERTIES_ORIGIN ["COM"]
properties('MP2/aug-cc-pvtz', properties = ['dipole'])
--------------------------------------------------------------------------

    Molecular point group: c1
  Charge       = 0
  Multiplicity = 1
  Basis Set: AUG-CC-PVTZ
    Blend: AUG-CC-PVTZ
  Basis Set: (AUG-CC-PVTZ AUX)
    Blend: AUG-CC-PVTZ-JKFIT

    Orbital Energies [Eh]
    ---------------------

    Doubly Occupied:

       1A    -15.624883     2A    -15.600778     3A    -15.576170
       4A    -15.572435     5A    -11.361571     6A    -11.307463
       7A    -11.305310     8A    -11.304595     9A    -11.266085
      10A    -11.247272    11A    -11.241230    12A    -11.218017
      13A     -1.348755    14A     -1.292469    15A     -1.200704
      16A     -1.142614    17A     -1.085360    18A     -1.034678
      19A     -0.970737    20A     -0.904091    21A     -0.886916
      22A     -0.794146    23A     -0.773138    24A     -0.714253
      25A     -0.702019    26A     -0.681634    27A     -0.628581
      28A     -0.624991    29A     -0.604415    30A     -0.587568
      31A     -0.581411    32A     -0.571290    33A     -0.551830
      34A     -0.542232    35A     -0.538933    36A     -0.489583
      37A     -0.465979    38A     -0.426911    39A     -0.417705
      40A     -0.415404    41A     -0.357035    42A     -0.323259

  @DF-RHF Final Energy:  -525.51688144199284

   => Energetics <=

    Nuclear Repulsion Energy =            653.1165732737555345
    One-Electron Energy =               -2008.6980050192576073
    Two-Electron Energy =                 830.0645503035091224
    Total Energy =                       -525.5168814419928367
  Basis Set: (AUG-CC-PVTZ AUX)
    Blend: AUG-CC-PVTZ-RI
    Molecular point group: c1

    Geometry (in Angstrom), charge = 0, multiplicity = 1:

       Center              X                  Y                   Z               Mass
    ------------   -----------------  -----------------  -----------------  -----------------
         N            0.816203773263    -0.245595841313    -0.034217244373    14.003074004430
         N            1.438346673263    -1.653268341313    -0.296952344373    14.003074004430
         N           -1.081678226737     1.040987158687    -0.449962244373    14.003074004430
         N           -1.268525226737    -1.189763841313     0.432889755627    14.003074004430
         C            1.759819773263     0.748537158687     0.137382755627    12.000000000000
         C            2.978718773263     0.106643158687     0.011766755627    12.000000000000
         C           -0.590246226737    -0.126087841313    -0.014687244373    12.000000000000
         C            1.454045773263     2.178133158687     0.441821755627    12.000000000000
         C            2.679494773263    -1.245852841313    -0.236155244373    12.000000000000
         C           -2.420981226737     1.146246158687    -0.428069244373    12.000000000000
         C           -2.603812226737    -1.064094841313     0.407396755627    12.000000000000
         C           -3.241358226737     0.100349158687    -0.017462244373    12.000000000000
         H            3.952965773263     0.568350158687     0.103085755627     1.007825032230
         H            1.013295773263     2.692133158687    -0.414302244373     1.007825032230
         H            0.754550773263     2.273754158687     1.277175755627     1.007825032230
         H            2.386534773263     2.677956158687     0.717185755627     1.007825032230
         H            3.356257773263    -2.073776841313    -0.406080244373     1.007825032230
         H           -2.830377226737     2.094947158687    -0.769539244373     1.007825032230
         H           -3.168332226737    -1.926688841313     0.756300755627     1.007825032230
         H           -4.322572226737     0.189281158687    -0.021020244373     1.007825032230

  Basis Set: AUG-CC-PVTZ
    Blend: AUG-CC-PVTZ
  Basis Set: (AUG-CC-PVTZ AUX)
    Blend: AUG-CC-PVTZ-JKFIT
	 Reference Energy          =    -525.5168814419928367 [Eh]
	 Singles Energy            =      -0.0000000000000000 [Eh]
	 Same-Spin Energy          =      -0.5764066419320599 [Eh]
	 Opposite-Spin Energy      =      -1.7413653141738634 [Eh]
	 Correlation Energy        =      -2.3177719561059233 [Eh]
	 Total Energy              =    -527.8346533980987942 [Eh]

	 ================> DF-SCS-MP2 Energies <==================
	-----------------------------------------------------------
	 SCS Same-Spin Scale       =       0.3333333333333333 [-]
	 SCS Opposite-Spin Scale   =       1.2000000000000000 [-]
	 SCS Same-Spin Energy      =      -0.1921355473106866 [Eh]
	 SCS Opposite-Spin Energy  =      -2.0896383770086362 [Eh]
	 SCS Correlation Energy    =      -2.2817739243193227 [Eh]
	 SCS Total Energy          =    -527.7986553663121185 [Eh]
	-----------------------------------------------------------

  Dipole Moment: [D]
     X:    -2.1346      Y:     2.6891      Z:     0.4642     Total:     3.4646

*** Psi4 exiting successfully. Buy a developer a beer!
