                               Psi4 1.3.2 release

  ==> Input File <==

--------------------------------------------------------------------------
#psi4
#
memory 32 gb

molecule  {
0 1
  N        0.8160970    -0.2990240    -0.0443680
  N        1.3585440    -1.5263750    -0.2734470
  N       -1.0817850     0.9875590    -0.4601130
  N       -1.2686320    -1.2431920     0.4227390
  C        1.7597130     0.6951090     0.1272320
  C        2.9786120     0.0532150     0.0016160
  C       -0.6270533    -0.0923585    -0.0573444
  C        1.4539390     2.1247050     0.4316710
  C        2.6793880    -1.2992810    -0.2463060
  C       -2.4210880     1.0928180    -0.4382200
  C       -2.6039190    -1.1175230     0.3972460
  C       -3.2414650     0.0469210    -0.0276130
  H        3.9528590     0.5149220     0.0929350
  H        1.0131890     2.6387050    -0.4244530
  H        0.7544440     2.2203260     1.2670250
  H        2.3864280     2.6245280     0.7070350
  H        3.3561510    -2.1272050    -0.4162310
  H       -2.8304840     2.0415190    -0.7796900
  H       -3.1684390    -1.9801170     0.7461500
  H       -4.3226790     0.1358530    -0.0311710
units angstrom
no_reorient  #important for SAPT in psi4, default
symmetry c1  #important for SAPT in psi4, default
}

set PROPERTIES_ORIGIN ["COM"]
properties('MP2/aug-cc-pvtz', properties = ['dipole'])
--------------------------------------------------------------------------

    Molecular point group: c1
  Charge       = 0
  Multiplicity = 1
  Basis Set: AUG-CC-PVTZ
    Blend: AUG-CC-PVTZ
  Basis Set: (AUG-CC-PVTZ AUX)
    Blend: AUG-CC-PVTZ-JKFIT

    Orbital Energies [Eh]
    ---------------------

    Doubly Occupied:

       1A    -15.637040     2A    -15.585566     3A    -15.581697
       4A    -15.578286     5A    -11.365641     6A    -11.316744
       7A    -11.309988     8A    -11.280347     9A    -11.257691
      10A    -11.249793    11A    -11.233803    12A    -11.212313
      13A     -1.381394    14A     -1.327667    15A     -1.213755
      16A     -1.122719    17A     -1.080790    18A     -1.043601
      19A     -0.956353    20A     -0.920634    21A     -0.889575
      22A     -0.798065    23A     -0.787068    24A     -0.722248
      25A     -0.704189    26A     -0.678746    27A     -0.637559
      28A     -0.633576    29A     -0.611235    30A     -0.588643
      31A     -0.582695    32A     -0.578520    33A     -0.561367
      34A     -0.552539    35A     -0.533338    36A     -0.492939
      37A     -0.453734    38A     -0.440035    39A     -0.424152
      40A     -0.402984    41A     -0.338972    42A     -0.328034

  @DF-RHF Final Energy:  -525.53047477426378

   => Energetics <=

    Nuclear Repulsion Energy =            658.4151303666285457
    One-Electron Energy =               -2019.0991391152356300
    Two-Electron Energy =                 835.1535339743433042
    Total Energy =                       -525.5304747742637801
  Basis Set: (AUG-CC-PVTZ AUX)
    Blend: AUG-CC-PVTZ-RI
    Molecular point group: c1

    Geometry (in Angstrom), charge = 0, multiplicity = 1:

       Center              X                  Y                   Z               Mass
    ------------   -----------------  -----------------  -----------------  -----------------
         N            0.825926666869    -0.267903807098    -0.034724582256    14.003074004430
         N            1.368373666869    -1.495254807098    -0.263803582256    14.003074004430
         N           -1.071955333131     1.018679192902    -0.450469582256    14.003074004430
         N           -1.258802333131    -1.212071807098     0.432382417744    14.003074004430
         C            1.769542666869     0.726229192902     0.136875417744    12.000000000000
         C            2.988441666869     0.084335192902     0.011259417744    12.000000000000
         C           -0.617223633131    -0.061238307098    -0.047700982256    12.000000000000
         C            1.463768666869     2.155825192902     0.441314417744    12.000000000000
         C            2.689217666869    -1.268160807098    -0.236662582256    12.000000000000
         C           -2.411258333131     1.123938192902    -0.428576582256    12.000000000000
         C           -2.594089333131    -1.086402807098     0.406889417744    12.000000000000
         C           -3.231635333131     0.078041192902    -0.017969582256    12.000000000000
         H            3.962688666869     0.546042192902     0.102578417744     1.007825032230
         H            1.023018666869     2.669825192902    -0.414809582256     1.007825032230
         H            0.764273666869     2.251446192902     1.276668417744     1.007825032230
         H            2.396257666869     2.655648192902     0.716678417744     1.007825032230
         H            3.365980666869    -2.096084807098    -0.406587582256     1.007825032230
         H           -2.820654333131     2.072639192902    -0.770046582256     1.007825032230
         H           -3.158609333131    -1.948996807098     0.755793417744     1.007825032230
         H           -4.312849333131     0.166973192902    -0.021527582256     1.007825032230

  Basis Set: AUG-CC-PVTZ
    Blend: AUG-CC-PVTZ
  Basis Set: (AUG-CC-PVTZ AUX)
    Blend: AUG-CC-PVTZ-JKFIT
	 Reference Energy          =    -525.5304747742637801 [Eh]
	 Singles Energy            =      -0.0000000000000000 [Eh]
	 Same-Spin Energy          =      -0.5772107675757490 [Eh]
	 Opposite-Spin Energy      =      -1.7389772262152761 [Eh]
	 Correlation Energy        =      -2.3161879937910248 [Eh]
	 Total Energy              =    -527.8466627680547845 [Eh]

	 ================> DF-SCS-MP2 Energies <==================
	-----------------------------------------------------------
	 SCS Same-Spin Scale       =       0.3333333333333333 [-]
	 SCS Opposite-Spin Scale   =       1.2000000000000000 [-]
	 SCS Same-Spin Energy      =      -0.1924035891919163 [Eh]
	 SCS Opposite-Spin Energy  =      -2.0867726714583310 [Eh]
	 SCS Correlation Energy    =      -2.2791762606502473 [Eh]
	 SCS Total Energy          =    -527.8096510349140544 [Eh]
	-----------------------------------------------------------

  Dipole Moment: [D]
     X:    -3.0248      Y:     2.6793      Z:     0.3853     Total:     4.0592

*** Psi4 exiting successfully. Buy a developer a beer!
