                               Psi4 1.3.2 release

  ==> Input File <==

--------------------------------------------------------------------------
#psi4
#
memory 32 gb

molecule  {
0 1
  N        0.8160970    -0.2990240    -0.0443680
  N        1.3585440    -1.5263750    -0.2734470
  N       -1.0817850     0.9875590    -0.4601130
  N       -1.2686320    -1.2431920     0.4227390
  C        1.7597130     0.6951090     0.1272320
  C        2.9786120     0.0532150     0.0016160
  C       -0.6724873    -0.1377534    -0.0403066
  C        1.4539390     2.1247050     0.4316710
  C        2.6793880    -1.2992810    -0.2463060
  C       -2.4210880     1.0928180    -0.4382200
  C       -2.6039190    -1.1175230     0.3972460
  C       -3.2414650     0.0469210    -0.0276130
  H        3.9528590     0.5149220     0.0929350
  H        1.0131890     2.6387050    -0.4244530
  H        0.7544440     2.2203260     1.2670250
  H        2.3864280     2.6245280     0.7070350
  H        3.3561510    -2.1272050    -0.4162310
  H       -2.8304840     2.0415190    -0.7796900
  H       -3.1684390    -1.9801170     0.7461500
  H       -4.3226790     0.1358530    -0.0311710
units angstrom
no_reorient  #important for SAPT in psi4, default
symmetry c1  #important for SAPT in psi4, default
}

set PROPERTIES_ORIGIN ["COM"]
properties('MP2/aug-cc-pvtz', properties = ['dipole'])
--------------------------------------------------------------------------

    Molecular point group: c1
  Charge       = 0
  Multiplicity = 1
  Basis Set: AUG-CC-PVTZ
    Blend: AUG-CC-PVTZ
  Basis Set: (AUG-CC-PVTZ AUX)
    Blend: AUG-CC-PVTZ-JKFIT

    Orbital Energies [Eh]
    ---------------------

    Doubly Occupied:

       1A    -15.632452     2A    -15.587213     3A    -15.587176
       4A    -15.573991     5A    -11.367984     6A    -11.319734
       7A    -11.315868     8A    -11.276826     9A    -11.260263
      10A    -11.245211    11A    -11.231319    12A    -11.208726
      13A     -1.377585    14A     -1.327916    15A     -1.227393
      16A     -1.117301    17A     -1.078807    18A     -1.040557
      19A     -0.952980    20A     -0.922591    21A     -0.893446
      22A     -0.792015    23A     -0.784311    24A     -0.722785
      25A     -0.708028    26A     -0.676991    27A     -0.636463
      28A     -0.634039    29A     -0.612456    30A     -0.588925
      31A     -0.579042    32A     -0.577336    33A     -0.558206
      34A     -0.549626    35A     -0.530357    36A     -0.492712
      37A     -0.453656    38A     -0.442374    39A     -0.431506
      40A     -0.406251    41A     -0.338176    42A     -0.324417

  @DF-RHF Final Energy:  -525.53337155117322

   => Energetics <=

    Nuclear Repulsion Energy =            658.2711900192198300
    One-Electron Energy =               -2018.8390992453726085
    Two-Electron Energy =                 835.0345376749795605
    Total Energy =                       -525.5333715511732180
  Basis Set: (AUG-CC-PVTZ AUX)
    Blend: AUG-CC-PVTZ-RI
    Molecular point group: c1

    Geometry (in Angstrom), charge = 0, multiplicity = 1:

       Center              X                  Y                   Z               Mass
    ------------   -----------------  -----------------  -----------------  -----------------
         N            0.829332622535    -0.264500782559    -0.036001819379    14.003074004430
         N            1.371779622535    -1.491851782559    -0.265080819379    14.003074004430
         N           -1.068549377465     1.022082217441    -0.451746819379    14.003074004430
         N           -1.255396377465    -1.208668782559     0.431105180621    14.003074004430
         C            1.772948622535     0.729632217441     0.135598180621    12.000000000000
         C            2.991847622535     0.087738217441     0.009982180621    12.000000000000
         C           -0.659251677465    -0.103230182559    -0.031940419379    12.000000000000
         C            1.467174622535     2.159228217441     0.440037180621    12.000000000000
         C            2.692623622535    -1.264757782559    -0.237939819379    12.000000000000
         C           -2.407852377465     1.127341217441    -0.429853819379    12.000000000000
         C           -2.590683377465    -1.082999782559     0.405612180621    12.000000000000
         C           -3.228229377465     0.081444217441    -0.019246819379    12.000000000000
         H            3.966094622535     0.549445217441     0.101301180621     1.007825032230
         H            1.026424622535     2.673228217441    -0.416086819379     1.007825032230
         H            0.767679622535     2.254849217441     1.275391180621     1.007825032230
         H            2.399663622535     2.659051217441     0.715401180621     1.007825032230
         H            3.369386622535    -2.092681782559    -0.407864819379     1.007825032230
         H           -2.817248377465     2.076042217441    -0.771323819379     1.007825032230
         H           -3.155203377465    -1.945593782559     0.754516180621     1.007825032230
         H           -4.309443377465     0.170376217441    -0.022804819379     1.007825032230

  Basis Set: AUG-CC-PVTZ
    Blend: AUG-CC-PVTZ
  Basis Set: (AUG-CC-PVTZ AUX)
    Blend: AUG-CC-PVTZ-JKFIT
	 Reference Energy          =    -525.5333715511732180 [Eh]
	 Singles Energy            =      -0.0000000000000000 [Eh]
	 Same-Spin Energy          =      -0.5775625153216593 [Eh]
	 Opposite-Spin Energy      =      -1.7386828588545271 [Eh]
	 Correlation Energy        =      -2.3162453741761864 [Eh]
	 Total Energy              =    -527.8496169253494372 [Eh]

	 ================> DF-SCS-MP2 Energies <==================
	-----------------------------------------------------------
	 SCS Same-Spin Scale       =       0.3333333333333333 [-]
	 SCS Opposite-Spin Scale   =       1.2000000000000000 [-]
	 SCS Same-Spin Energy      =      -0.1925208384405531 [Eh]
	 SCS Opposite-Spin Energy  =      -2.0864194306254324 [Eh]
	 SCS Correlation Energy    =      -2.2789402690659855 [Eh]
	 SCS Total Energy          =    -527.8123118202391879 [Eh]
	-----------------------------------------------------------

  Dipole Moment: [D]
     X:    -3.4806      Y:     2.6400      Z:     0.4223     Total:     4.3889

*** Psi4 exiting successfully. Buy a developer a beer!
