                               Psi4 1.3.2 release

  ==> Input File <==

--------------------------------------------------------------------------
#psi4
#
memory 32 gb

molecule  {
0 1
  N        0.8176977    -0.2761668    -0.0534235
  N        1.3585440    -1.5263750    -0.2734470
  N       -1.0817850     0.9875590    -0.4601130
  N       -1.2686320    -1.2431920     0.4227390
  C        1.7597130     0.6951090     0.1272320
  C        2.9786120     0.0532150     0.0016160
  C       -0.5903530    -0.1795160    -0.0248380
  C        1.4539390     2.1247050     0.4316710
  C        2.6793880    -1.2992810    -0.2463060
  C       -2.4210880     1.0928180    -0.4382200
  C       -2.6039190    -1.1175230     0.3972460
  C       -3.2414650     0.0469210    -0.0276130
  H        3.9528590     0.5149220     0.0929350
  H        1.0131890     2.6387050    -0.4244530
  H        0.7544440     2.2203260     1.2670250
  H        2.3864280     2.6245280     0.7070350
  H        3.3561510    -2.1272050    -0.4162310
  H       -2.8304840     2.0415190    -0.7796900
  H       -3.1684390    -1.9801170     0.7461500
  H       -4.3226790     0.1358530    -0.0311710
units angstrom
no_reorient  #important for SAPT in psi4, default
symmetry c1  #important for SAPT in psi4, default
}

set PROPERTIES_ORIGIN ["COM"]
properties('MP2/aug-cc-pvtz', properties = ['dipole'])
--------------------------------------------------------------------------

    Molecular point group: c1
  Charge       = 0
  Multiplicity = 1
  Basis Set: AUG-CC-PVTZ
    Blend: AUG-CC-PVTZ
  Basis Set: (AUG-CC-PVTZ AUX)
    Blend: AUG-CC-PVTZ-JKFIT

    Orbital Energies [Eh]
    ---------------------

    Doubly Occupied:

       1A    -15.641130     2A    -15.581885     3A    -15.581002
       4A    -15.579113     5A    -11.367669     6A    -11.311214
       7A    -11.309681     8A    -11.287018     9A    -11.255767
      10A    -11.252671    11A    -11.234626    12A    -11.216226
      13A     -1.383482    14A     -1.311485    15A     -1.206081
      16A     -1.130265    17A     -1.085141    18A     -1.044300
      19A     -0.958791    20A     -0.909012    21A     -0.897292
      22A     -0.799429    23A     -0.795847    24A     -0.713364
      25A     -0.706693    26A     -0.682320    27A     -0.638311
      28A     -0.633007    29A     -0.607163    30A     -0.589997
      31A     -0.586062    32A     -0.574685    33A     -0.562952
      34A     -0.551443    35A     -0.536185    36A     -0.491977
      37A     -0.454961    38A     -0.430433    39A     -0.420149
      40A     -0.408191    41A     -0.340470    42A     -0.330995

  @DF-RHF Final Energy:  -525.54309095709289

   => Energetics <=

    Nuclear Repulsion Energy =            658.2870557176094053
    One-Electron Energy =               -2018.8633272052391021
    Two-Electron Energy =                 835.0331805305366970
    Total Energy =                       -525.5430909570928861
  Basis Set: (AUG-CC-PVTZ AUX)
    Blend: AUG-CC-PVTZ-RI
    Molecular point group: c1

    Geometry (in Angstrom), charge = 0, multiplicity = 1:

       Center              X                  Y                   Z               Mass
    ------------   -----------------  -----------------  -----------------  -----------------
         N            0.824636105770    -0.240512361231    -0.045424762149    14.003074004430
         N            1.365482405770    -1.490720561231    -0.265448262149    14.003074004430
         N           -1.074846594230     1.023213438769    -0.452114262149    14.003074004430
         N           -1.261693594230    -1.207537561231     0.430737737851    14.003074004430
         C            1.766651405770     0.730763438769     0.135230737851    12.000000000000
         C            2.985550405770     0.088869438769     0.009614737851    12.000000000000
         C           -0.583414594230    -0.143861561231    -0.016839262149    12.000000000000
         C            1.460877405770     2.160359438769     0.439669737851    12.000000000000
         C            2.686326405770    -1.263626561231    -0.238307262149    12.000000000000
         C           -2.414149594230     1.128472438769    -0.430221262149    12.000000000000
         C           -2.596980594230    -1.081868561231     0.405244737851    12.000000000000
         C           -3.234526594230     0.082575438769    -0.019614262149    12.000000000000
         H            3.959797405770     0.550576438769     0.100933737851     1.007825032230
         H            1.020127405770     2.674359438769    -0.416454262149     1.007825032230
         H            0.761382405770     2.255980438769     1.275023737851     1.007825032230
         H            2.393366405770     2.660182438769     0.715033737851     1.007825032230
         H            3.363089405770    -2.091550561231    -0.408232262149     1.007825032230
         H           -2.823545594230     2.077173438769    -0.771691262149     1.007825032230
         H           -3.161500594230    -1.944462561231     0.754148737851     1.007825032230
         H           -4.315740594230     0.171507438769    -0.023172262149     1.007825032230

  Basis Set: AUG-CC-PVTZ
    Blend: AUG-CC-PVTZ
  Basis Set: (AUG-CC-PVTZ AUX)
    Blend: AUG-CC-PVTZ-JKFIT
	 Reference Energy          =    -525.5430909570928861 [Eh]
	 Singles Energy            =      -0.0000000000000000 [Eh]
	 Same-Spin Energy          =      -0.5774520761852104 [Eh]
	 Opposite-Spin Energy      =      -1.7386850826205715 [Eh]
	 Correlation Energy        =      -2.3161371588057822 [Eh]
	 Total Energy              =    -527.8592281158986452 [Eh]

	 ================> DF-SCS-MP2 Energies <==================
	-----------------------------------------------------------
	 SCS Same-Spin Scale       =       0.3333333333333333 [-]
	 SCS Opposite-Spin Scale   =       1.2000000000000000 [-]
	 SCS Same-Spin Energy      =      -0.1924840253950701 [Eh]
	 SCS Opposite-Spin Energy  =      -2.0864220991446856 [Eh]
	 SCS Correlation Energy    =      -2.2789061245397555 [Eh]
	 SCS Total Energy          =    -527.8219970816326168 [Eh]
	-----------------------------------------------------------

  Dipole Moment: [D]
     X:    -2.5789      Y:     2.5402      Z:     0.4421     Total:     3.6467

*** Psi4 exiting successfully. Buy a developer a beer!
