                               Psi4 1.4a3.dev225

  ==> Input File <==

--------------------------------------------------------------------------
#psi4
#
memory 32 gb

molecule  {
0 1
  N        0.8160970    -0.2990240    -0.0443680
  N        1.3585440    -1.5263750    -0.2734470
  N       -1.0817850     0.9875590    -0.4601130
  N       -1.2686320    -1.2431920     0.4227390
  C        1.7597130     0.6951090     0.1272320
  C        2.9786120     0.0532150     0.0016160
  C       -0.5903530    -0.1795160    -0.0248380
  C        1.4539390     2.1247050     0.4316710
  C        2.6793880    -1.2992810    -0.2463060
  C       -2.4709277     1.0967350    -0.4374053
  C       -2.6039190    -1.1175230     0.3972460
  C       -3.2414650     0.0469210    -0.0276130
  H        3.9528590     0.5149220     0.0929350
  H        1.0131890     2.6387050    -0.4244530
  H        0.7544440     2.2203260     1.2670250
  H        2.3864280     2.6245280     0.7070350
  H        3.3561510    -2.1272050    -0.4162310
  H       -2.8304840     2.0415190    -0.7796900
  H       -3.1684390    -1.9801170     0.7461500
  H       -4.3226790     0.1358530    -0.0311710
units angstrom
no_reorient  #important for SAPT in psi4, default
symmetry c1  #important for SAPT in psi4, default
}

set PROPERTIES_ORIGIN ["COM"]
properties('MP2/aug-cc-pvtz', properties = ['dipole'])
--------------------------------------------------------------------------

    Molecular point group: c1
  Charge       = 0
  Multiplicity = 1
  Basis Set: AUG-CC-PVTZ
    Blend: AUG-CC-PVTZ
  Basis Set: (AUG-CC-PVTZ AUX)
    Blend: AUG-CC-PVTZ-JKFIT

    Orbital Energies [Eh]
    ---------------------

    Doubly Occupied:

       1A    -15.641081     2A    -15.582917     3A    -15.580739
       4A    -15.579804     5A    -11.365549     6A    -11.312630
       7A    -11.310902     8A    -11.285835     9A    -11.253737
      10A    -11.252604    11A    -11.233598    12A    -11.216437
      13A     -1.384732    14A     -1.306951    15A     -1.196910
      16A     -1.129350    17A     -1.084162    18A     -1.048023
      19A     -0.957715    20A     -0.913660    21A     -0.892339
      22A     -0.800243    23A     -0.794174    24A     -0.711409
      25A     -0.707258    26A     -0.682690    27A     -0.636895
      28A     -0.632814    29A     -0.610051    30A     -0.589313
      31A     -0.587581    32A     -0.573262    33A     -0.562541
      34A     -0.550976    35A     -0.534713    36A     -0.488262
      37A     -0.454585    38A     -0.424506    39A     -0.420891
      40A     -0.410841    41A     -0.339557    42A     -0.331570

  @DF-RHF Final Energy:  -525.53906205347789

   => Energetics <=

    Nuclear Repulsion Energy =            657.4854234538664741
    One-Electron Energy =               -2017.3013643240603869
    Two-Electron Energy =                 834.2768788167161347
    Total Energy =                       -525.5390620534778918
  Basis Set: (AUG-CC-PVTZ AUX)
    Blend: AUG-CC-PVTZ-RI
    Molecular point group: c1

    Geometry (in Angstrom), charge = 0, multiplicity = 1:

       Center              X                  Y                   Z               Mass
    ------------   -----------------  -----------------  -----------------  -----------------
         N            0.826911660792    -0.261663690607    -0.037222495478    14.003074004430
         N            1.369358660792    -1.489014690607    -0.266301495478    14.003074004430
         N           -1.070970339208     1.024919309393    -0.452967495478    14.003074004430
         N           -1.257817339208    -1.205831690607     0.429884504522    14.003074004430
         C            1.770527660792     0.732469309393     0.134377504522    12.000000000000
         C            2.989426660792     0.090575309393     0.008761504522    12.000000000000
         C           -0.579538339208    -0.142155690607    -0.017692495478    12.000000000000
         C            1.464753660792     2.162065309393     0.438816504522    12.000000000000
         C            2.690202660792    -1.261920690607    -0.239160495478    12.000000000000
         C           -2.460113039208     1.134095309393    -0.430259795478    12.000000000000
         C           -2.593104339208    -1.080162690607     0.404391504522    12.000000000000
         C           -3.230650339208     0.084281309393    -0.020467495478    12.000000000000
         H            3.963673660792     0.552282309393     0.100080504522     1.007825032230
         H            1.024003660792     2.676065309393    -0.417307495478     1.007825032230
         H            0.765258660792     2.257686309393     1.274170504522     1.007825032230
         H            2.397242660792     2.661888309393     0.714180504522     1.007825032230
         H            3.366965660792    -2.089844690607    -0.409085495478     1.007825032230
         H           -2.819669339208     2.078879309393    -0.772544495478     1.007825032230
         H           -3.157624339208    -1.942756690607     0.753295504522     1.007825032230
         H           -4.311864339208     0.173213309393    -0.024025495478     1.007825032230

  Basis Set: AUG-CC-PVTZ
    Blend: AUG-CC-PVTZ
  Basis Set: (AUG-CC-PVTZ AUX)
    Blend: AUG-CC-PVTZ-JKFIT
	 Reference Energy          =    -525.5390620534778918 [Eh]
	 Singles Energy            =      -0.0000000000000000 [Eh]
	 Same-Spin Energy          =      -0.5778576849477681 [Eh]
	 Opposite-Spin Energy      =      -1.7398077968315082 [Eh]
	 Correlation Energy        =      -2.3176654817792763 [Eh]
	 Total Energy              =    -527.8567275352571642 [Eh]

	 ================> DF-SCS-MP2 Energies <==================
	-----------------------------------------------------------
	 SCS Same-Spin Scale       =       0.3333333333333333 [-]
	 SCS Opposite-Spin Scale   =       1.2000000000000000 [-]
	 SCS Same-Spin Energy      =      -0.1926192283159227 [Eh]
	 SCS Opposite-Spin Energy  =      -2.0877693561978097 [Eh]
	 SCS Correlation Energy    =      -2.2803885845137324 [Eh]
	 SCS Total Energy          =    -527.8194506379916220 [Eh]
	-----------------------------------------------------------

  Dipole Moment: [D]
     X:    -2.6694      Y:     2.5435      Z:     0.4485     Total:     3.7143

*** Psi4 exiting successfully. Buy a developer a beer!
