                               Psi4 1.3.2 release

  ==> Input File <==

--------------------------------------------------------------------------
#psi4
#
memory 32 gb

molecule  {
0 1
  O       -0.0000080    -0.0000480    -0.5363970
  C        1.2718233    -0.1418256     0.1104836
  C       -1.1976650     0.1335420     0.2407060
  C        2.1685060    -0.9330000    -0.6087030
  C        1.7396050     1.2428760     0.6017630
  C       -2.1684770     0.9330430    -0.6087060
  C       -1.7396280    -1.2428760     0.6017520
  H        0.9770690    -0.6943020     1.1616810
  H       -0.9770250     0.6942700     1.1616800
  H        3.1233100    -1.0667870    -0.0912430
  H        1.7482270    -1.9146040    -0.8396080
  H        2.3500500    -0.4054100    -1.5492360
  H        2.6557580     1.1607730     1.1955970
  H        1.0091160     1.8146980     1.1809680
  H        1.9613280     1.7960570    -0.3151090
  H       -3.1232690     1.0668830    -0.0912390
  H       -1.7481500     1.9146270    -0.8396140
  H       -2.3500630     0.4054690    -1.5492390
  H       -2.6557620    -1.1607620     1.1956100
  H       -1.0091260    -1.8147110     1.1809330
  H       -1.9613850    -1.7960460    -0.3151180
units angstrom
no_reorient  #important for SAPT in psi4, default
symmetry c1  #important for SAPT in psi4, default
}

set PROPERTIES_ORIGIN ["COM"]
properties('MP2/aug-cc-pvtz', properties = ['dipole'])
--------------------------------------------------------------------------

    Molecular point group: c1
  Charge       = 0
  Multiplicity = 1
  Basis Set: AUG-CC-PVTZ
    Blend: AUG-CC-PVTZ
  Basis Set: (AUG-CC-PVTZ AUX)
    Blend: AUG-CC-PVTZ-JKFIT

    Orbital Energies [Eh]
    ---------------------

    Doubly Occupied:

       1A    -20.537865     2A    -11.283546     3A    -11.276609
       4A    -11.213508     5A    -11.209697     6A    -11.208531
       7A    -11.208203     8A     -1.356513     9A     -1.083026
      10A     -1.020349    11A     -0.945017    12A     -0.932538
      13A     -0.807628    14A     -0.763426    15A     -0.670332
      16A     -0.642775    17A     -0.625456    18A     -0.583299
      19A     -0.578442    20A     -0.568566    21A     -0.538887
      22A     -0.535250    23A     -0.520320    24A     -0.510557
      25A     -0.506482    26A     -0.492037    27A     -0.464431
      28A     -0.434891    29A     -0.392455

  @DF-RHF Final Energy:  -310.30659712304384

   => Energetics <=

    Nuclear Repulsion Energy =            338.3342283212773509
    One-Electron Energy =               -1091.4603839923627220
    Two-Electron Energy =                 442.8195585480415275
    Total Energy =                       -310.3065971230438436
  Basis Set: (AUG-CC-PVTZ AUX)
    Blend: AUG-CC-PVTZ-RI
    Molecular point group: c1

    Geometry (in Angstrom), charge = 0, multiplicity = 1:

       Center              X                  Y                   Z               Mass
    ------------   -----------------  -----------------  -----------------  -----------------
         O           -0.008723801512     0.000926479842    -0.506678558948    15.994914619570
         C            1.263107498488    -0.140851120158     0.140202041052    12.000000000000
         C           -1.206380801512     0.134516479842     0.270424441052    12.000000000000
         C            2.159790198488    -0.932025520158    -0.578984558948    12.000000000000
         C            1.730889198488     1.243850479842     0.631481441052    12.000000000000
         C           -2.177192801512     0.934017479842    -0.578987558948    12.000000000000
         C           -1.748343801512    -1.241901520158     0.631470441052    12.000000000000
         H            0.968353198488    -0.693327520158     1.191399441052     1.007825032230
         H           -0.985740801512     0.695244479842     1.191398441052     1.007825032230
         H            3.114594198488    -1.065812520158    -0.061524558948     1.007825032230
         H            1.739511198488    -1.913629520158    -0.809889558948     1.007825032230
         H            2.341334198488    -0.404435520158    -1.519517558948     1.007825032230
         H            2.647042198488     1.161747479842     1.225315441052     1.007825032230
         H            1.000400198488     1.815672479842     1.210686441052     1.007825032230
         H            1.952612198488     1.797031479842    -0.285390558948     1.007825032230
         H           -3.131984801512     1.067857479842    -0.061520558948     1.007825032230
         H           -1.756865801512     1.915601479842    -0.809895558948     1.007825032230
         H           -2.358778801512     0.406443479842    -1.519520558948     1.007825032230
         H           -2.664477801512    -1.159787520158     1.225328441052     1.007825032230
         H           -1.017841801512    -1.813736520158     1.210651441052     1.007825032230
         H           -1.970100801512    -1.795071520158    -0.285399558948     1.007825032230

  Basis Set: AUG-CC-PVTZ
    Blend: AUG-CC-PVTZ
  Basis Set: (AUG-CC-PVTZ AUX)
    Blend: AUG-CC-PVTZ-JKFIT
	 Reference Energy          =    -310.3065971230438436 [Eh]
	 Singles Energy            =      -0.0000000000000000 [Eh]
	 Same-Spin Energy          =      -0.3197434483473930 [Eh]
	 Opposite-Spin Energy      =      -1.1369114102249300 [Eh]
	 Correlation Energy        =      -1.4566548585723229 [Eh]
	 Total Energy              =    -311.7632519816161789 [Eh]

	 ================> DF-SCS-MP2 Energies <==================
	-----------------------------------------------------------
	 SCS Same-Spin Scale       =       0.3333333333333333 [-]
	 SCS Opposite-Spin Scale   =       1.2000000000000000 [-]
	 SCS Same-Spin Energy      =      -0.1065811494491310 [Eh]
	 SCS Opposite-Spin Energy  =      -1.3642936922699160 [Eh]
	 SCS Correlation Energy    =      -1.4708748417190471 [Eh]
	 SCS Total Energy          =    -311.7774719647628672 [Eh]
	-----------------------------------------------------------

  Dipole Moment: [D]
     X:     0.1611      Y:    -0.0491      Z:     1.0809     Total:     1.0940

*** Psi4 exiting successfully. Buy a developer a beer!
