                               Psi4 1.3.2 release

  ==> Input File <==

--------------------------------------------------------------------------
#psi4
#
memory 32 gb

molecule  {
0 1
  O       -0.0000080    -0.0000480    -0.5363970
  C        1.3647042    -0.1521684     0.3490950
  C       -1.1976650     0.1335420     0.2407060
  C        2.1685060    -0.9330000    -0.6087030
  C        1.7396050     1.2428760     0.6017630
  C       -2.1684770     0.9330430    -0.6087060
  C       -1.7396280    -1.2428760     0.6017520
  H        0.9770690    -0.6943020     1.1616810
  H       -0.9770250     0.6942700     1.1616800
  H        3.1233100    -1.0667870    -0.0912430
  H        1.7482270    -1.9146040    -0.8396080
  H        2.3500500    -0.4054100    -1.5492360
  H        2.6557580     1.1607730     1.1955970
  H        1.0091160     1.8146980     1.1809680
  H        1.9613280     1.7960570    -0.3151090
  H       -3.1232690     1.0668830    -0.0912390
  H       -1.7481500     1.9146270    -0.8396140
  H       -2.3500630     0.4054690    -1.5492390
  H       -2.6557620    -1.1607620     1.1956100
  H       -1.0091260    -1.8147110     1.1809330
  H       -1.9613850    -1.7960460    -0.3151180
units angstrom
no_reorient  #important for SAPT in psi4, default
symmetry c1  #important for SAPT in psi4, default
}

set PROPERTIES_ORIGIN ["COM"]
properties('MP2/aug-cc-pvtz', properties = ['dipole'])
--------------------------------------------------------------------------

    Molecular point group: c1
  Charge       = 0
  Multiplicity = 1
  Basis Set: AUG-CC-PVTZ
    Blend: AUG-CC-PVTZ
  Basis Set: (AUG-CC-PVTZ AUX)
    Blend: AUG-CC-PVTZ-JKFIT

    Orbital Energies [Eh]
    ---------------------

    Doubly Occupied:

       1A    -20.517482     2A    -11.284032     3A    -11.261659
       4A    -11.220319     5A    -11.216455     6A    -11.204216
       7A    -11.199926     8A     -1.303636     9A     -1.080081
      10A     -1.011019    11A     -0.950818    12A     -0.925201
      13A     -0.801859    14A     -0.773950    15A     -0.659522
      16A     -0.640673    17A     -0.606509    18A     -0.580337
      19A     -0.573482    20A     -0.563238    21A     -0.546131
      22A     -0.528197    23A     -0.518352    24A     -0.509613
      25A     -0.493913    26A     -0.487110    27A     -0.473694
      28A     -0.418475    29A     -0.398587

  @DF-RHF Final Energy:  -310.30022396481229

   => Energetics <=

    Nuclear Repulsion Energy =            335.8134135621240262
    One-Electron Energy =               -1086.7303075485413046
    Two-Electron Energy =                 440.6166700216050458
    Total Energy =                       -310.3002239648122895
  Basis Set: (AUG-CC-PVTZ AUX)
    Blend: AUG-CC-PVTZ-RI
    Molecular point group: c1

    Geometry (in Angstrom), charge = 0, multiplicity = 1:

       Center              X                  Y                   Z               Mass
    ------------   -----------------  -----------------  -----------------  -----------------
         O           -0.019639786422     0.002142034910    -0.534721767421    15.994914619570
         C            1.345072413578    -0.149978365090     0.350770232579    12.000000000000
         C           -1.217296786422     0.135732034910     0.242381232579    12.000000000000
         C            2.148874213578    -0.930809965090    -0.607027767421    12.000000000000
         C            1.719973213578     1.245066034910     0.603438232579    12.000000000000
         C           -2.188108786422     0.935233034910    -0.607030767421    12.000000000000
         C           -1.759259786422    -1.240685965090     0.603427232579    12.000000000000
         H            0.957437213578    -0.692111965090     1.163356232579     1.007825032230
         H           -0.996656786422     0.696460034910     1.163355232579     1.007825032230
         H            3.103678213578    -1.064596965090    -0.089567767421     1.007825032230
         H            1.728595213578    -1.912413965090    -0.837932767421     1.007825032230
         H            2.330418213578    -0.403219965090    -1.547560767421     1.007825032230
         H            2.636126213578     1.162963034910     1.197272232579     1.007825032230
         H            0.989484213578     1.816888034910     1.182643232579     1.007825032230
         H            1.941696213578     1.798247034910    -0.313433767421     1.007825032230
         H           -3.142900786422     1.069073034910    -0.089563767421     1.007825032230
         H           -1.767781786422     1.916817034910    -0.837938767421     1.007825032230
         H           -2.369694786422     0.407659034910    -1.547563767421     1.007825032230
         H           -2.675393786422    -1.158571965090     1.197285232579     1.007825032230
         H           -1.028757786422    -1.812520965090     1.182608232579     1.007825032230
         H           -1.981016786422    -1.793855965090    -0.313442767421     1.007825032230

  Basis Set: AUG-CC-PVTZ
    Blend: AUG-CC-PVTZ
  Basis Set: (AUG-CC-PVTZ AUX)
    Blend: AUG-CC-PVTZ-JKFIT
	 Reference Energy          =    -310.3002239648122895 [Eh]
	 Singles Energy            =      -0.0000000000000000 [Eh]
	 Same-Spin Energy          =      -0.3207882879209076 [Eh]
	 Opposite-Spin Energy      =      -1.1408289747813327 [Eh]
	 Correlation Energy        =      -1.4616172627022403 [Eh]
	 Total Energy              =    -311.7618412275145374 [Eh]

	 ================> DF-SCS-MP2 Energies <==================
	-----------------------------------------------------------
	 SCS Same-Spin Scale       =       0.3333333333333333 [-]
	 SCS Opposite-Spin Scale   =       1.2000000000000000 [-]
	 SCS Same-Spin Energy      =      -0.1069294293069692 [Eh]
	 SCS Opposite-Spin Energy  =      -1.3689947697375993 [Eh]
	 SCS Correlation Energy    =      -1.4759241990445684 [Eh]
	 SCS Total Energy          =    -311.7761481638568739 [Eh]
	-----------------------------------------------------------

  Dipole Moment: [D]
     X:     0.7546      Y:     0.0205      Z:     1.4546     Total:     1.6388

*** Psi4 exiting successfully. Buy a developer a beer!
