                               Psi4 1.3.2 release

  ==> Input File <==

--------------------------------------------------------------------------
#psi4
#
memory 32 gb

molecule  {
0 1
  O       -0.0000080    -0.0000480    -0.5363970
  C        1.1699732    -0.1304588     0.2822893
  C       -1.1976650     0.1335420     0.2407060
  C        2.1685060    -0.9330000    -0.6087030
  C        1.7396050     1.2428760     0.6017630
  C       -2.1684770     0.9330430    -0.6087060
  C       -1.7396280    -1.2428760     0.6017520
  H        0.9770690    -0.6943020     1.1616810
  H       -0.9770250     0.6942700     1.1616800
  H        3.1233100    -1.0667870    -0.0912430
  H        1.7482270    -1.9146040    -0.8396080
  H        2.3500500    -0.4054100    -1.5492360
  H        2.6557580     1.1607730     1.1955970
  H        1.0091160     1.8146980     1.1809680
  H        1.9613280     1.7960570    -0.3151090
  H       -3.1232690     1.0668830    -0.0912390
  H       -1.7481500     1.9146270    -0.8396140
  H       -2.3500630     0.4054690    -1.5492390
  H       -2.6557620    -1.1607620     1.1956100
  H       -1.0091260    -1.8147110     1.1809330
  H       -1.9613850    -1.7960460    -0.3151180
units angstrom
no_reorient  #important for SAPT in psi4, default
symmetry c1  #important for SAPT in psi4, default
}

set PROPERTIES_ORIGIN ["COM"]
properties('MP2/aug-cc-pvtz', properties = ['dipole'])
--------------------------------------------------------------------------

    Molecular point group: c1
  Charge       = 0
  Multiplicity = 1
  Basis Set: AUG-CC-PVTZ
    Blend: AUG-CC-PVTZ
  Basis Set: (AUG-CC-PVTZ AUX)
    Blend: AUG-CC-PVTZ-JKFIT

    Orbital Energies [Eh]
    ---------------------

    Doubly Occupied:

       1A    -20.543080     2A    -11.274746     3A    -11.273397
       4A    -11.211855     5A    -11.211318     6A    -11.208421
       7A    -11.208322     8A     -1.361302     9A     -1.066257
      10A     -1.010854    11A     -0.935239    12A     -0.928159
      13A     -0.808014    14A     -0.786118    15A     -0.679549
      16A     -0.628904    17A     -0.619472    18A     -0.579152
      19A     -0.576484    20A     -0.557774    21A     -0.536789
      22A     -0.535483    23A     -0.517948    24A     -0.511493
      25A     -0.506253    26A     -0.486042    27A     -0.464302
      28A     -0.453153    29A     -0.407087

  @DF-RHF Final Energy:  -310.33015336119195

   => Energetics <=

    Nuclear Repulsion Energy =            338.0021518578116115
    One-Electron Energy =               -1090.8906791210456504
    Two-Electron Energy =                 442.5583739020420353
    Total Energy =                       -310.3301533611919467
  Basis Set: (AUG-CC-PVTZ AUX)
    Blend: AUG-CC-PVTZ-RI
    Molecular point group: c1

    Geometry (in Angstrom), charge = 0, multiplicity = 1:

       Center              X                  Y                   Z               Mass
    ------------   -----------------  -----------------  -----------------  -----------------
         O            0.003246303803    -0.000409422558    -0.526870314505    15.994914619570
         C            1.173227503803    -0.130820222558     0.291815985495    12.000000000000
         C           -1.194410696197     0.133180577442     0.250232685495    12.000000000000
         C            2.171760303803    -0.933361422558    -0.599176314505    12.000000000000
         C            1.742859303803     1.242514577442     0.611289685495    12.000000000000
         C           -2.165222696197     0.932681577442    -0.599179314505    12.000000000000
         C           -1.736373696197    -1.243237422558     0.611278685495    12.000000000000
         H            0.980323303803    -0.694663422558     1.171207685495     1.007825032230
         H           -0.973770696197     0.693908577442     1.171206685495     1.007825032230
         H            3.126564303803    -1.067148422558    -0.081716314505     1.007825032230
         H            1.751481303803    -1.914965422558    -0.830081314505     1.007825032230
         H            2.353304303803    -0.405771422558    -1.539709314505     1.007825032230
         H            2.659012303803     1.160411577442     1.205123685495     1.007825032230
         H            1.012370303803     1.814336577442     1.190494685495     1.007825032230
         H            1.964582303803     1.795695577442    -0.305582314505     1.007825032230
         H           -3.120014696197     1.066521577442    -0.081712314505     1.007825032230
         H           -1.744895696197     1.914265577442    -0.830087314505     1.007825032230
         H           -2.346808696197     0.405107577442    -1.539712314505     1.007825032230
         H           -2.652507696197    -1.161123422558     1.205136685495     1.007825032230
         H           -1.005871696197    -1.815072422558     1.190459685495     1.007825032230
         H           -1.958130696197    -1.796407422558    -0.305591314505     1.007825032230

  Basis Set: AUG-CC-PVTZ
    Blend: AUG-CC-PVTZ
  Basis Set: (AUG-CC-PVTZ AUX)
    Blend: AUG-CC-PVTZ-JKFIT
	 Reference Energy          =    -310.3301533611919467 [Eh]
	 Singles Energy            =      -0.0000000000000000 [Eh]
	 Same-Spin Energy          =      -0.3184049324534962 [Eh]
	 Opposite-Spin Energy      =      -1.1356350756107978 [Eh]
	 Correlation Energy        =      -1.4540400080642941 [Eh]
	 Total Energy              =    -311.7841933692562293 [Eh]

	 ================> DF-SCS-MP2 Energies <==================
	-----------------------------------------------------------
	 SCS Same-Spin Scale       =       0.3333333333333333 [-]
	 SCS Opposite-Spin Scale   =       1.2000000000000000 [-]
	 SCS Same-Spin Energy      =      -0.1061349774844987 [Eh]
	 SCS Opposite-Spin Energy  =      -1.3627620907329574 [Eh]
	 SCS Correlation Energy    =      -1.4688970682174562 [Eh]
	 SCS Total Energy          =    -311.7990504294094194 [Eh]
	-----------------------------------------------------------

  Dipole Moment: [D]
     X:    -0.0622      Y:     0.0192      Z:     1.3288     Total:     1.3304

*** Psi4 exiting successfully. Buy a developer a beer!
