                               Psi4 1.4a3.dev225

  ==> Input File <==

--------------------------------------------------------------------------
#psi4
#
memory 32 gb

molecule  {
0 1
  O        0.0000010    -0.0000260    -0.5363470
  C        1.2393961    -0.1382124     0.2677553
  C       -1.1976320     0.1335480     0.2406540
  C        2.1684970    -0.9329740    -0.6087930
  C        1.7395900     1.2428280     0.6018540
  C       -2.1684690     0.9329960    -0.6088010
  C       -1.7396210    -1.2428230     0.6018460
  H        0.9770390    -0.6943630     1.1616340
  H       -0.9770220     0.6943450     1.1616300
  H        3.1233080    -1.0666500    -0.0913170
  H        1.7483500    -1.9146320    -0.8396930
  H        2.3499780    -0.4053470    -1.5493110
  H        2.6556380     1.1606780     1.1958460
  H        1.0090380     1.8146880     1.1809540
  H        1.9615120     1.7960330    -0.3149540
  H       -3.1232800     1.0666960    -0.0913310
  H       -1.7482940     1.9146450    -0.8396930
  H       -2.3499590     0.4053800    -1.5493220
  H       -2.6556690    -1.1606550     1.1958380
  H       -1.0090800    -1.8146970     1.1809440
  H       -1.9615540    -1.7960230    -0.3149630
units angstrom
no_reorient  #important for SAPT in psi4, default
symmetry c1  #important for SAPT in psi4, default
}

set PROPERTIES_ORIGIN ["COM"]
properties('MP2/aug-cc-pvtz', properties = ['dipole'])
--------------------------------------------------------------------------

    Molecular point group: c1
  Charge       = 0
  Multiplicity = 1
  Basis Set: AUG-CC-PVTZ
    Blend: AUG-CC-PVTZ
  Basis Set: (AUG-CC-PVTZ AUX)
    Blend: AUG-CC-PVTZ-JKFIT

    Orbital Energies [Eh]
    ---------------------

    Doubly Occupied:

       1A    -20.536010     2A    -11.275823     3A    -11.271602
       4A    -11.213318     5A    -11.209993     6A    -11.209514
       7A    -11.206288     8A     -1.343362     9A     -1.070262
      10A     -1.013620    11A     -0.938434    12A     -0.931013
      13A     -0.802811    14A     -0.780018    15A     -0.671995
      16A     -0.632190    17A     -0.616460    18A     -0.580406
      19A     -0.575267    20A     -0.559679    21A     -0.539156
      22A     -0.534128    23A     -0.514258    24A     -0.506775
      25A     -0.503466    26A     -0.486487    27A     -0.472947
      28A     -0.447309    29A     -0.406957

  @DF-RHF Final Energy:  -310.32966512529396

   => Energetics <=

    Nuclear Repulsion Energy =            337.4937416645693133
    One-Electron Energy =               -1089.9477216296706956
    Two-Electron Energy =                 442.1243148398073686
    Total Energy =                       -310.3296651252939569
  Basis Set: (AUG-CC-PVTZ AUX)
    Blend: AUG-CC-PVTZ-RI
    Molecular point group: c1

    Geometry (in Angstrom), charge = 0, multiplicity = 1:

       Center              X                  Y                   Z               Mass
    ------------   -----------------  -----------------  -----------------  -----------------
         O           -0.004907249935     0.000522123933    -0.525115867036    15.994914619570
         C            1.234487850065    -0.137664276067     0.278986432964    12.000000000000
         C           -1.202540249935     0.134096123933     0.251885132964    12.000000000000
         C            2.163588750065    -0.932425876067    -0.597561867036    12.000000000000
         C            1.734681750065     1.243376123933     0.613085132964    12.000000000000
         C           -2.173377249935     0.933544123933    -0.597569867036    12.000000000000
         C           -1.744529249935    -1.242274876067     0.613077132964    12.000000000000
         H            0.972130750065    -0.693814876067     1.172865132964     1.007825032230
         H           -0.981930249935     0.694893123933     1.172861132964     1.007825032230
         H            3.118399750065    -1.066101876067    -0.080085867036     1.007825032230
         H            1.743441750065    -1.914083876067    -0.828461867036     1.007825032230
         H            2.345069750065    -0.404798876067    -1.538079867036     1.007825032230
         H            2.650729750065     1.161226123933     1.207077132964     1.007825032230
         H            1.004129750065     1.815236123933     1.192185132964     1.007825032230
         H            1.956603750065     1.796581123933    -0.303722867036     1.007825032230
         H           -3.128188249935     1.067244123933    -0.080099867036     1.007825032230
         H           -1.753202249935     1.915193123933    -0.828461867036     1.007825032230
         H           -2.354867249935     0.405928123933    -1.538090867036     1.007825032230
         H           -2.660577249935    -1.160106876067     1.207069132964     1.007825032230
         H           -1.013988249935    -1.814148876067     1.192175132964     1.007825032230
         H           -1.966462249935    -1.795474876067    -0.303731867036     1.007825032230

  Basis Set: AUG-CC-PVTZ
    Blend: AUG-CC-PVTZ
  Basis Set: (AUG-CC-PVTZ AUX)
    Blend: AUG-CC-PVTZ-JKFIT
	 Reference Energy          =    -310.3296651252939569 [Eh]
	 Singles Energy            =      -0.0000000000000000 [Eh]
	 Same-Spin Energy          =      -0.3188282360141402 [Eh]
	 Opposite-Spin Energy      =      -1.1364457688229530 [Eh]
	 Correlation Energy        =      -1.4552740048370931 [Eh]
	 Total Energy              =    -311.7849391301310220 [Eh]

	 ================> DF-SCS-MP2 Energies <==================
	-----------------------------------------------------------
	 SCS Same-Spin Scale       =       0.3333333333333333 [-]
	 SCS Opposite-Spin Scale   =       1.2000000000000000 [-]
	 SCS Same-Spin Energy      =      -0.1062760786713801 [Eh]
	 SCS Opposite-Spin Energy  =      -1.3637349225875435 [Eh]
	 SCS Correlation Energy    =      -1.4700110012589236 [Eh]
	 SCS Total Energy          =    -311.7996761265528676 [Eh]
	-----------------------------------------------------------

  Dipole Moment: [D]
     X:     0.2052      Y:     0.0057      Z:     1.3321     Total:     1.3478

*** Psi4 exiting successfully. Buy a developer a beer!
