                               Psi4 1.3.2 release

  ==> Input File <==

--------------------------------------------------------------------------
#psi4
#
memory 32 gb

molecule  {
0 1
  O       -0.0044986    -0.0497912    -0.5331548
  C        1.1976560    -0.1335480     0.2407060
  C       -1.1976650     0.1335420     0.2407060
  C        2.1685060    -0.9330000    -0.6087030
  C        1.7396050     1.2428760     0.6017630
  C       -2.1684770     0.9330430    -0.6087060
  C       -1.7396280    -1.2428760     0.6017520
  H        0.9770690    -0.6943020     1.1616810
  H       -0.9770250     0.6942700     1.1616800
  H        3.1233100    -1.0667870    -0.0912430
  H        1.7482270    -1.9146040    -0.8396080
  H        2.3500500    -0.4054100    -1.5492360
  H        2.6557580     1.1607730     1.1955970
  H        1.0091160     1.8146980     1.1809680
  H        1.9613280     1.7960570    -0.3151090
  H       -3.1232690     1.0668830    -0.0912390
  H       -1.7481500     1.9146270    -0.8396140
  H       -2.3500630     0.4054690    -1.5492390
  H       -2.6557620    -1.1607620     1.1956100
  H       -1.0091260    -1.8147110     1.1809330
  H       -1.9613850    -1.7960460    -0.3151180
units angstrom
no_reorient  #important for SAPT in psi4, default
symmetry c1  #important for SAPT in psi4, default
}

set PROPERTIES_ORIGIN ["COM"]
properties('MP2/aug-cc-pvtz', properties = ['dipole'])
--------------------------------------------------------------------------

    Molecular point group: c1
  Charge       = 0
  Multiplicity = 1
  Basis Set: AUG-CC-PVTZ
    Blend: AUG-CC-PVTZ
  Basis Set: (AUG-CC-PVTZ AUX)
    Blend: AUG-CC-PVTZ-JKFIT

    Orbital Energies [Eh]
    ---------------------

    Doubly Occupied:

       1A    -20.541287     2A    -11.274955     3A    -11.274802
       4A    -11.212526     5A    -11.209945     6A    -11.209030
       7A    -11.207723     8A     -1.360252     9A     -1.069239
      10A     -1.012568    11A     -0.935842    12A     -0.931605
      13A     -0.807056    14A     -0.780064    15A     -0.676691
      16A     -0.631911    17A     -0.620646    18A     -0.580073
      19A     -0.576291    20A     -0.560337    21A     -0.536578
      22A     -0.535788    23A     -0.517028    24A     -0.510395
      25A     -0.505656    26A     -0.483272    27A     -0.470588
      28A     -0.450425    29A     -0.406513

  @DF-RHF Final Energy:  -310.33263435871356

   => Energetics <=

    Nuclear Repulsion Energy =            338.1139526555813291
    One-Electron Energy =               -1091.1149971716108666
    Two-Electron Energy =                 442.6684101573159751
    Total Energy =                       -310.3326343587135625
  Basis Set: (AUG-CC-PVTZ AUX)
    Blend: AUG-CC-PVTZ-RI
    Molecular point group: c1

    Geometry (in Angstrom), charge = 0, multiplicity = 1:

       Center              X                  Y                   Z               Mass
    ------------   -----------------  -----------------  -----------------  -----------------
         O           -0.003794300609    -0.041997164946    -0.519248865395    15.994914619570
         C            1.198360299391    -0.125753964946     0.254611934605    12.000000000000
         C           -1.196960700609     0.141336035054     0.254611934605    12.000000000000
         C            2.169210299391    -0.925205964946    -0.594797065395    12.000000000000
         C            1.740309299391     1.250670035054     0.615668934605    12.000000000000
         C           -2.167772700609     0.940837035054    -0.594800065395    12.000000000000
         C           -1.738923700609    -1.235081964946     0.615657934605    12.000000000000
         H            0.977773299391    -0.686507964946     1.175586934605     1.007825032230
         H           -0.976320700609     0.702064035054     1.175585934605     1.007825032230
         H            3.124014299391    -1.058992964946    -0.077337065395     1.007825032230
         H            1.748931299391    -1.906809964946    -0.825702065395     1.007825032230
         H            2.350754299391    -0.397615964946    -1.535330065395     1.007825032230
         H            2.656462299391     1.168567035054     1.209502934605     1.007825032230
         H            1.009820299391     1.822492035054     1.194873934605     1.007825032230
         H            1.962032299391     1.803851035054    -0.301203065395     1.007825032230
         H           -3.122564700609     1.074677035054    -0.077333065395     1.007825032230
         H           -1.747445700609     1.922421035054    -0.825708065395     1.007825032230
         H           -2.349358700609     0.413263035054    -1.535333065395     1.007825032230
         H           -2.655057700609    -1.152967964946     1.209515934605     1.007825032230
         H           -1.008421700609    -1.806916964946     1.194838934605     1.007825032230
         H           -1.960680700609    -1.788251964946    -0.301212065395     1.007825032230

  Basis Set: AUG-CC-PVTZ
    Blend: AUG-CC-PVTZ
  Basis Set: (AUG-CC-PVTZ AUX)
    Blend: AUG-CC-PVTZ-JKFIT
	 Reference Energy          =    -310.3326343587135625 [Eh]
	 Singles Energy            =      -0.0000000000000000 [Eh]
	 Same-Spin Energy          =      -0.3184926783763818 [Eh]
	 Opposite-Spin Energy      =      -1.1354032529916767 [Eh]
	 Correlation Energy        =      -1.4538959313680584 [Eh]
	 Total Energy              =    -311.7865302900816005 [Eh]

	 ================> DF-SCS-MP2 Energies <==================
	-----------------------------------------------------------
	 SCS Same-Spin Scale       =       0.3333333333333333 [-]
	 SCS Opposite-Spin Scale   =       1.2000000000000000 [-]
	 SCS Same-Spin Energy      =      -0.1061642261254606 [Eh]
	 SCS Opposite-Spin Energy  =      -1.3624839035900120 [Eh]
	 SCS Correlation Energy    =      -1.4686481297154725 [Eh]
	 SCS Total Energy          =    -311.8012824884290239 [Eh]
	-----------------------------------------------------------

  Dipole Moment: [D]
     X:     0.0145      Y:     0.1115      Z:     1.2732     Total:     1.2782

*** Psi4 exiting successfully. Buy a developer a beer!
