                               Psi4 1.3.2 release

  ==> Input File <==

--------------------------------------------------------------------------
#psi4
#
memory 32 gb

molecule  {
0 1
  O       -0.0000080    -0.0000480    -0.5363970
  C        1.1839949    -0.1320235     0.2616192
  C       -1.1976650     0.1335420     0.2407060
  C        2.1685060    -0.9330000    -0.6087030
  C        1.7396050     1.2428760     0.6017630
  C       -2.1684770     0.9330430    -0.6087060
  C       -1.7396280    -1.2428760     0.6017520
  H        0.9770690    -0.6943020     1.1616810
  H       -0.9770250     0.6942700     1.1616800
  H        3.1233100    -1.0667870    -0.0912430
  H        1.7482270    -1.9146040    -0.8396080
  H        2.3500500    -0.4054100    -1.5492360
  H        2.6557580     1.1607730     1.1955970
  H        1.0091160     1.8146980     1.1809680
  H        1.9613280     1.7960570    -0.3151090
  H       -3.1232690     1.0668830    -0.0912390
  H       -1.7481500     1.9146270    -0.8396140
  H       -2.3500630     0.4054690    -1.5492390
  H       -2.6557620    -1.1607620     1.1956100
  H       -1.0091260    -1.8147110     1.1809330
  H       -1.9613850    -1.7960460    -0.3151180
units angstrom
no_reorient  #important for SAPT in psi4, default
symmetry c1  #important for SAPT in psi4, default
}

set PROPERTIES_ORIGIN ["COM"]
properties('MP2/aug-cc-pvtz', properties = ['dipole'])
--------------------------------------------------------------------------

    Molecular point group: c1
  Charge       = 0
  Multiplicity = 1
  Basis Set: AUG-CC-PVTZ
    Blend: AUG-CC-PVTZ
  Basis Set: (AUG-CC-PVTZ AUX)
    Blend: AUG-CC-PVTZ-JKFIT

    Orbital Energies [Eh]
    ---------------------

    Doubly Occupied:

       1A    -20.542185     2A    -11.274813     3A    -11.274077
       4A    -11.211553     5A    -11.211240     6A    -11.208370
       7A    -11.208342     8A     -1.360476     9A     -1.067610
      10A     -1.011670    11A     -0.935353    12A     -0.930083
      13A     -0.807225    14A     -0.783182    15A     -0.678051
      16A     -0.630112    17A     -0.620114    18A     -0.579569
      19A     -0.576347    20A     -0.558961    21A     -0.536563
      22A     -0.535726    23A     -0.517307    24A     -0.510756
      25A     -0.506024    26A     -0.484386    27A     -0.467581
      28A     -0.452277    29A     -0.407215

  @DF-RHF Final Energy:  -310.33230394469695

   => Energetics <=

    Nuclear Repulsion Energy =            338.0387834424489597
    One-Electron Energy =               -1090.9678355706150796
    Two-Electron Energy =                 442.5967481834692308
    Total Energy =                       -310.3323039446969460
  Basis Set: (AUG-CC-PVTZ AUX)
    Blend: AUG-CC-PVTZ-RI
    Molecular point group: c1

    Geometry (in Angstrom), charge = 0, multiplicity = 1:

       Center              X                  Y                   Z               Mass
    ------------   -----------------  -----------------  -----------------  -----------------
         O            0.001598379788    -0.000225528544    -0.524441026033    15.994914619570
         C            1.185601279788    -0.132201028544     0.273575173967    12.000000000000
         C           -1.196058620212     0.133364471456     0.252661973967    12.000000000000
         C            2.170112379788    -0.933177528544    -0.596747026033    12.000000000000
         C            1.741211379788     1.242698471456     0.613718973967    12.000000000000
         C           -2.166870620212     0.932865471456    -0.596750026033    12.000000000000
         C           -1.738021620212    -1.243053528544     0.613707973967    12.000000000000
         H            0.978675379788    -0.694479528544     1.173636973967     1.007825032230
         H           -0.975418620212     0.694092471456     1.173635973967     1.007825032230
         H            3.124916379788    -1.066964528544    -0.079287026033     1.007825032230
         H            1.749833379788    -1.914781528544    -0.827652026033     1.007825032230
         H            2.351656379788    -0.405587528544    -1.537280026033     1.007825032230
         H            2.657364379788     1.160595471456     1.207552973967     1.007825032230
         H            1.010722379788     1.814520471456     1.192923973967     1.007825032230
         H            1.962934379788     1.795879471456    -0.303153026033     1.007825032230
         H           -3.121662620212     1.066705471456    -0.079283026033     1.007825032230
         H           -1.746543620212     1.914449471456    -0.827658026033     1.007825032230
         H           -2.348456620212     0.405291471456    -1.537283026033     1.007825032230
         H           -2.654155620212    -1.160939528544     1.207565973967     1.007825032230
         H           -1.007519620212    -1.814888528544     1.192888973967     1.007825032230
         H           -1.959778620212    -1.796223528544    -0.303162026033     1.007825032230

  Basis Set: AUG-CC-PVTZ
    Blend: AUG-CC-PVTZ
  Basis Set: (AUG-CC-PVTZ AUX)
    Blend: AUG-CC-PVTZ-JKFIT
	 Reference Energy          =    -310.3323039446969460 [Eh]
	 Singles Energy            =      -0.0000000000000000 [Eh]
	 Same-Spin Energy          =      -0.3184230894919837 [Eh]
	 Opposite-Spin Energy      =      -1.1354824783188486 [Eh]
	 Correlation Energy        =      -1.4539055678108324 [Eh]
	 Total Energy              =    -311.7862095125077531 [Eh]

	 ================> DF-SCS-MP2 Energies <==================
	-----------------------------------------------------------
	 SCS Same-Spin Scale       =       0.3333333333333333 [-]
	 SCS Opposite-Spin Scale   =       1.2000000000000000 [-]
	 SCS Same-Spin Energy      =      -0.1061410298306612 [Eh]
	 SCS Opposite-Spin Energy  =      -1.3625789739826184 [Eh]
	 SCS Correlation Energy    =      -1.4687200038132797 [Eh]
	 SCS Total Energy          =    -311.8010239485102488 [Eh]
	-----------------------------------------------------------

  Dipole Moment: [D]
     X:    -0.0304      Y:     0.0095      Z:     1.3060     Total:     1.3064

*** Psi4 exiting successfully. Buy a developer a beer!
