                               Psi4 1.3.2 release

  ==> Input File <==

--------------------------------------------------------------------------
#psi4
#
memory 32 gb

molecule  {
0 1
  O       -0.0000080    -0.0000480    -0.5363970
  C        1.1408650    -0.1272107     0.3228752
  C       -1.1976650     0.1335420     0.2407060
  C        2.1685060    -0.9330000    -0.6087030
  C        1.7396050     1.2428760     0.6017630
  C       -2.1684770     0.9330430    -0.6087060
  C       -1.7396280    -1.2428760     0.6017520
  H        0.9770690    -0.6943020     1.1616810
  H       -0.9770250     0.6942700     1.1616800
  H        3.1233100    -1.0667870    -0.0912430
  H        1.7482270    -1.9146040    -0.8396080
  H        2.3500500    -0.4054100    -1.5492360
  H        2.6557580     1.1607730     1.1955970
  H        1.0091160     1.8146980     1.1809680
  H        1.9613280     1.7960570    -0.3151090
  H       -3.1232690     1.0668830    -0.0912390
  H       -1.7481500     1.9146270    -0.8396140
  H       -2.3500630     0.4054690    -1.5492390
  H       -2.6557620    -1.1607620     1.1956100
  H       -1.0091260    -1.8147110     1.1809330
  H       -1.9613850    -1.7960460    -0.3151180
units angstrom
no_reorient  #important for SAPT in psi4, default
symmetry c1  #important for SAPT in psi4, default
}

set PROPERTIES_ORIGIN ["COM"]
properties('MP2/aug-cc-pvtz', properties = ['dipole'])
--------------------------------------------------------------------------

    Molecular point group: c1
  Charge       = 0
  Multiplicity = 1
  Basis Set: AUG-CC-PVTZ
    Blend: AUG-CC-PVTZ
  Basis Set: (AUG-CC-PVTZ AUX)
    Blend: AUG-CC-PVTZ-JKFIT

    Orbital Energies [Eh]
    ---------------------

    Doubly Occupied:

       1A    -20.545072     2A    -11.274771     3A    -11.272560
       4A    -11.212499     5A    -11.211777     6A    -11.208583
       7A    -11.208195     8A     -1.363148     9A     -1.063968
      10A     -1.009522    11A     -0.935519    12A     -0.923823
      13A     -0.811068    14A     -0.791144    15A     -0.682730
      16A     -0.627027    17A     -0.618219    18A     -0.578335
      19A     -0.576874    20A     -0.555785    21A     -0.537358
      22A     -0.535236    23A     -0.519314    24A     -0.514301
      25A     -0.506142    26A     -0.489185    27A     -0.461832
      28A     -0.449769    29A     -0.405057

  @DF-RHF Final Energy:  -310.32158115848995

   => Energetics <=

    Nuclear Repulsion Energy =            337.9334621039090507
    One-Electron Energy =               -1090.7324592015645521
    Two-Electron Energy =                 442.4774159391655530
    Total Energy =                       -310.3215811584899484
  Basis Set: (AUG-CC-PVTZ AUX)
    Blend: AUG-CC-PVTZ-RI
    Molecular point group: c1

    Geometry (in Angstrom), charge = 0, multiplicity = 1:

       Center              X                  Y                   Z               Mass
    ------------   -----------------  -----------------  -----------------  -----------------
         O            0.006667294254    -0.000791161006    -0.531640241067    15.994914619570
         C            1.147540294254    -0.127953861006     0.327631958933    12.000000000000
         C           -1.190989705746     0.132798838994     0.245462758933    12.000000000000
         C            2.175181294254    -0.933743161006    -0.603946241067    12.000000000000
         C            1.746280294254     1.242132838994     0.606519758933    12.000000000000
         C           -2.161801705746     0.932299838994    -0.603949241067    12.000000000000
         C           -1.732952705746    -1.243619161006     0.606508758933    12.000000000000
         H            0.983744294254    -0.695045161006     1.166437758933     1.007825032230
         H           -0.970349705746     0.693526838994     1.166436758933     1.007825032230
         H            3.129985294254    -1.067530161006    -0.086486241067     1.007825032230
         H            1.754902294254    -1.915347161006    -0.834851241067     1.007825032230
         H            2.356725294254    -0.406153161006    -1.544479241067     1.007825032230
         H            2.662433294254     1.160029838994     1.200353758933     1.007825032230
         H            1.015791294254     1.813954838994     1.185724758933     1.007825032230
         H            1.968003294254     1.795313838994    -0.310352241067     1.007825032230
         H           -3.116593705746     1.066139838994    -0.086482241067     1.007825032230
         H           -1.741474705746     1.913883838994    -0.834857241067     1.007825032230
         H           -2.343387705746     0.404725838994    -1.544482241067     1.007825032230
         H           -2.649086705746    -1.161505161006     1.200366758933     1.007825032230
         H           -1.002450705746    -1.815454161006     1.185689758933     1.007825032230
         H           -1.954709705746    -1.796789161006    -0.310361241067     1.007825032230

  Basis Set: AUG-CC-PVTZ
    Blend: AUG-CC-PVTZ
  Basis Set: (AUG-CC-PVTZ AUX)
    Blend: AUG-CC-PVTZ-JKFIT
	 Reference Energy          =    -310.3215811584899484 [Eh]
	 Singles Energy            =      -0.0000000000000000 [Eh]
	 Same-Spin Energy          =      -0.3184985981177338 [Eh]
	 Opposite-Spin Energy      =      -1.1362249285794275 [Eh]
	 Correlation Energy        =      -1.4547235266971614 [Eh]
	 Total Energy              =    -311.7763046851870854 [Eh]

	 ================> DF-SCS-MP2 Energies <==================
	-----------------------------------------------------------
	 SCS Same-Spin Scale       =       0.3333333333333333 [-]
	 SCS Opposite-Spin Scale   =       1.2000000000000000 [-]
	 SCS Same-Spin Energy      =      -0.1061661993725779 [Eh]
	 SCS Opposite-Spin Energy  =      -1.3634699142953128 [Eh]
	 SCS Correlation Energy    =      -1.4696361136678908 [Eh]
	 SCS Total Energy          =    -311.7912172721578372 [Eh]
	-----------------------------------------------------------

  Dipole Moment: [D]
     X:    -0.1295      Y:     0.0394      Z:     1.3683     Total:     1.3750

*** Psi4 exiting successfully. Buy a developer a beer!
