                               Psi4 1.3.2 release

  ==> Input File <==

--------------------------------------------------------------------------
#psi4
#
memory 32 gb

molecule  {
0 1
  O        0.0479012     0.0510366    -0.4648968
  C        1.1976560    -0.1335480     0.2407060
  C       -1.1976650     0.1335420     0.2407060
  C        2.1685060    -0.9330000    -0.6087030
  C        1.7396050     1.2428760     0.6017630
  C       -2.1684770     0.9330430    -0.6087060
  C       -1.7396280    -1.2428760     0.6017520
  H        0.9770690    -0.6943020     1.1616810
  H       -0.9770250     0.6942700     1.1616800
  H        3.1233100    -1.0667870    -0.0912430
  H        1.7482270    -1.9146040    -0.8396080
  H        2.3500500    -0.4054100    -1.5492360
  H        2.6557580     1.1607730     1.1955970
  H        1.0091160     1.8146980     1.1809680
  H        1.9613280     1.7960570    -0.3151090
  H       -3.1232690     1.0668830    -0.0912390
  H       -1.7481500     1.9146270    -0.8396140
  H       -2.3500630     0.4054690    -1.5492390
  H       -2.6557620    -1.1607620     1.1956100
  H       -1.0091260    -1.8147110     1.1809330
  H       -1.9613850    -1.7960460    -0.3151180
units angstrom
no_reorient  #important for SAPT in psi4, default
symmetry c1  #important for SAPT in psi4, default
}

set PROPERTIES_ORIGIN ["COM"]
properties('MP2/aug-cc-pvtz', properties = ['dipole'])
--------------------------------------------------------------------------

    Molecular point group: c1
  Charge       = 0
  Multiplicity = 1
  Basis Set: AUG-CC-PVTZ
    Blend: AUG-CC-PVTZ
  Basis Set: (AUG-CC-PVTZ AUX)
    Blend: AUG-CC-PVTZ-JKFIT

    Orbital Energies [Eh]
    ---------------------

    Doubly Occupied:

       1A    -20.537613     2A    -11.279474     3A    -11.268108
       4A    -11.214474     5A    -11.212007     6A    -11.206348
       7A    -11.204978     8A     -1.381122     9A     -1.073732
      10A     -1.010262    11A     -0.937382    12A     -0.930941
      13A     -0.818952    14A     -0.777142    15A     -0.681994
      16A     -0.636710    17A     -0.625892    18A     -0.583410
      19A     -0.575773    20A     -0.561759    21A     -0.538714
      22A     -0.533105    23A     -0.519786    24A     -0.514995
      25A     -0.506952    26A     -0.483995    27A     -0.476954
      28A     -0.440581    29A     -0.399628

  @DF-RHF Final Energy:  -310.33115601651775

   => Energetics <=

    Nuclear Repulsion Energy =            339.4438009838564199
    One-Electron Energy =               -1093.6843454849342834
    Two-Electron Energy =                 443.9093884845601679
    Total Energy =                       -310.3311560165177525
  Basis Set: (AUG-CC-PVTZ AUX)
    Blend: AUG-CC-PVTZ-RI
    Molecular point group: c1

    Geometry (in Angstrom), charge = 0, multiplicity = 1:

       Center              X                  Y                   Z               Mass
    ------------   -----------------  -----------------  -----------------  -----------------
         O            0.040396942336     0.043035713146    -0.461683648334    15.994914619570
         C            1.190151742336    -0.141548886854     0.243919151666    12.000000000000
         C           -1.205169257664     0.125541113146     0.243919151666    12.000000000000
         C            2.161001742336    -0.941000886854    -0.605489848334    12.000000000000
         C            1.732100742336     1.234875113146     0.604976151666    12.000000000000
         C           -2.175981257664     0.925042113146    -0.605492848334    12.000000000000
         C           -1.747132257664    -1.250876886854     0.604965151666    12.000000000000
         H            0.969564742336    -0.702302886854     1.164894151666     1.007825032230
         H           -0.984529257664     0.686269113146     1.164893151666     1.007825032230
         H            3.115805742336    -1.074787886854    -0.088029848334     1.007825032230
         H            1.740722742336    -1.922604886854    -0.836394848334     1.007825032230
         H            2.342545742336    -0.413410886854    -1.546022848334     1.007825032230
         H            2.648253742336     1.152772113146     1.198810151666     1.007825032230
         H            1.001611742336     1.806697113146     1.184181151666     1.007825032230
         H            1.953823742336     1.788056113146    -0.311895848334     1.007825032230
         H           -3.130773257664     1.058882113146    -0.088025848334     1.007825032230
         H           -1.755654257664     1.906626113146    -0.836400848334     1.007825032230
         H           -2.357567257664     0.397468113146    -1.546025848334     1.007825032230
         H           -2.663266257664    -1.168762886854     1.198823151666     1.007825032230
         H           -1.016630257664    -1.822711886854     1.184146151666     1.007825032230
         H           -1.968889257664    -1.804046886854    -0.311904848334     1.007825032230

  Basis Set: AUG-CC-PVTZ
    Blend: AUG-CC-PVTZ
  Basis Set: (AUG-CC-PVTZ AUX)
    Blend: AUG-CC-PVTZ-JKFIT
	 Reference Energy          =    -310.3311560165177525 [Eh]
	 Singles Energy            =      -0.0000000000000000 [Eh]
	 Same-Spin Energy          =      -0.3181376447493087 [Eh]
	 Opposite-Spin Energy      =      -1.1334223979032139 [Eh]
	 Correlation Energy        =      -1.4515600426525226 [Eh]
	 Total Energy              =    -311.7827160591702977 [Eh]

	 ================> DF-SCS-MP2 Energies <==================
	-----------------------------------------------------------
	 SCS Same-Spin Scale       =       0.3333333333333333 [-]
	 SCS Opposite-Spin Scale   =       1.2000000000000000 [-]
	 SCS Same-Spin Energy      =      -0.1060458815831029 [Eh]
	 SCS Opposite-Spin Energy  =      -1.3601068774838565 [Eh]
	 SCS Correlation Energy    =      -1.4661527590669594 [Eh]
	 SCS Total Energy          =    -311.7973087755847246 [Eh]
	-----------------------------------------------------------

  Dipole Moment: [D]
     X:    -0.3398      Y:    -0.1184      Z:     1.1064     Total:     1.1635

*** Psi4 exiting successfully. Buy a developer a beer!
