                               Psi4 1.3.2 release

  ==> Input File <==

--------------------------------------------------------------------------
#psi4
#
memory 32 gb

molecule  {
0 1
  O        0.0045921     0.0998659    -0.5400382
  C        1.1976560    -0.1335480     0.2407060
  C       -1.1976650     0.1335420     0.2407060
  C        2.1685060    -0.9330000    -0.6087030
  C        1.7396050     1.2428760     0.6017630
  C       -2.1684770     0.9330430    -0.6087060
  C       -1.7396280    -1.2428760     0.6017520
  H        0.9770690    -0.6943020     1.1616810
  H       -0.9770250     0.6942700     1.1616800
  H        3.1233100    -1.0667870    -0.0912430
  H        1.7482270    -1.9146040    -0.8396080
  H        2.3500500    -0.4054100    -1.5492360
  H        2.6557580     1.1607730     1.1955970
  H        1.0091160     1.8146980     1.1809680
  H        1.9613280     1.7960570    -0.3151090
  H       -3.1232690     1.0668830    -0.0912390
  H       -1.7481500     1.9146270    -0.8396140
  H       -2.3500630     0.4054690    -1.5492390
  H       -2.6557620    -1.1607620     1.1956100
  H       -1.0091260    -1.8147110     1.1809330
  H       -1.9613850    -1.7960460    -0.3151180
units angstrom
no_reorient  #important for SAPT in psi4, default
symmetry c1  #important for SAPT in psi4, default
}

set PROPERTIES_ORIGIN ["COM"]
properties('MP2/aug-cc-pvtz', properties = ['dipole'])
--------------------------------------------------------------------------

    Molecular point group: c1
  Charge       = 0
  Multiplicity = 1
  Basis Set: AUG-CC-PVTZ
    Blend: AUG-CC-PVTZ
  Basis Set: (AUG-CC-PVTZ AUX)
    Blend: AUG-CC-PVTZ-JKFIT

    Orbital Energies [Eh]
    ---------------------

    Doubly Occupied:

       1A    -20.541853     2A    -11.275461     3A    -11.274701
       4A    -11.213788     5A    -11.209944     6A    -11.209244
       7A    -11.206662     8A     -1.357152     9A     -1.068642
      10A     -1.012952    11A     -0.935597    12A     -0.931679
      13A     -0.805271    14A     -0.780557    15A     -0.675572
      16A     -0.632128    17A     -0.619110    18A     -0.579985
      19A     -0.576300    20A     -0.560180    21A     -0.536657
      22A     -0.535762    23A     -0.517171    24A     -0.509237
      25A     -0.505116    26A     -0.483164    27A     -0.469244
      28A     -0.451709    29A     -0.406967

  @DF-RHF Final Energy:  -310.33054886476862

   => Energetics <=

    Nuclear Repulsion Energy =            337.9032596588538127
    One-Electron Energy =               -1090.7040061218767732
    Two-Electron Energy =                 442.4701975982543445
    Total Energy =                       -310.3305488647686161
  Basis Set: (AUG-CC-PVTZ AUX)
    Blend: AUG-CC-PVTZ-RI
    Molecular point group: c1

    Geometry (in Angstrom), charge = 0, multiplicity = 1:

       Center              X                  Y                   Z               Mass
    ------------   -----------------  -----------------  -----------------  -----------------
         O            0.003872318963     0.084215783664    -0.525053963920    15.994914619570
         C            1.196936218963    -0.149198116336     0.255690236080    12.000000000000
         C           -1.198384781037     0.117891883664     0.255690236080    12.000000000000
         C            2.167786218963    -0.948650116336    -0.593718763920    12.000000000000
         C            1.738885218963     1.227225883664     0.616747236080    12.000000000000
         C           -2.169196781037     0.917392883664    -0.593721763920    12.000000000000
         C           -1.740347781037    -1.258526116336     0.616736236080    12.000000000000
         H            0.976349218963    -0.709952116336     1.176665236080     1.007825032230
         H           -0.977744781037     0.678619883664     1.176664236080     1.007825032230
         H            3.122590218963    -1.082437116336    -0.076258763920     1.007825032230
         H            1.747507218963    -1.930254116336    -0.824623763920     1.007825032230
         H            2.349330218963    -0.421060116336    -1.534251763920     1.007825032230
         H            2.655038218963     1.145122883664     1.210581236080     1.007825032230
         H            1.008396218963     1.799047883664     1.195952236080     1.007825032230
         H            1.960608218963     1.780406883664    -0.300124763920     1.007825032230
         H           -3.123988781037     1.051232883664    -0.076254763920     1.007825032230
         H           -1.748869781037     1.898976883664    -0.824629763920     1.007825032230
         H           -2.350782781037     0.389818883664    -1.534254763920     1.007825032230
         H           -2.656481781037    -1.176412116336     1.210594236080     1.007825032230
         H           -1.009845781037    -1.830361116336     1.195917236080     1.007825032230
         H           -1.962104781037    -1.811696116336    -0.300133763920     1.007825032230

  Basis Set: AUG-CC-PVTZ
    Blend: AUG-CC-PVTZ
  Basis Set: (AUG-CC-PVTZ AUX)
    Blend: AUG-CC-PVTZ-JKFIT
	 Reference Energy          =    -310.3305488647686161 [Eh]
	 Singles Energy            =      -0.0000000000000000 [Eh]
	 Same-Spin Energy          =      -0.3186510606307077 [Eh]
	 Opposite-Spin Energy      =      -1.1359239301513480 [Eh]
	 Correlation Energy        =      -1.4545749907820555 [Eh]
	 Total Energy              =    -311.7851238555506939 [Eh]

	 ================> DF-SCS-MP2 Energies <==================
	-----------------------------------------------------------
	 SCS Same-Spin Scale       =       0.3333333333333333 [-]
	 SCS Opposite-Spin Scale   =       1.2000000000000000 [-]
	 SCS Same-Spin Energy      =      -0.1062170202102359 [Eh]
	 SCS Opposite-Spin Energy  =      -1.3631087161816176 [Eh]
	 SCS Correlation Energy    =      -1.4693257363918535 [Eh]
	 SCS Total Energy          =    -311.7998746011604680 [Eh]
	-----------------------------------------------------------

  Dipole Moment: [D]
     X:     0.0007      Y:    -0.2229      Z:     1.2885     Total:     1.3076

*** Psi4 exiting successfully. Buy a developer a beer!
