                               Psi4 1.3.2 release

  ==> Input File <==

--------------------------------------------------------------------------
#psi4
#
memory 32 gb

molecule  {
0 1
  O        0.0016904     0.0248884    -0.5376632
  C        1.1976560    -0.1335480     0.2407060
  C       -1.1976650     0.1335420     0.2407060
  C        2.1685060    -0.9330000    -0.6087030
  C        1.7396050     1.2428760     0.6017630
  C       -2.1684770     0.9330430    -0.6087060
  C       -1.7396280    -1.2428760     0.6017520
  H        0.9770690    -0.6943020     1.1616810
  H       -0.9770250     0.6942700     1.1616800
  H        3.1233100    -1.0667870    -0.0912430
  H        1.7482270    -1.9146040    -0.8396080
  H        2.3500500    -0.4054100    -1.5492360
  H        2.6557580     1.1607730     1.1955970
  H        1.0091160     1.8146980     1.1809680
  H        1.9613280     1.7960570    -0.3151090
  H       -3.1232690     1.0668830    -0.0912390
  H       -1.7481500     1.9146270    -0.8396140
  H       -2.3500630     0.4054690    -1.5492390
  H       -2.6557620    -1.1607620     1.1956100
  H       -1.0091260    -1.8147110     1.1809330
  H       -1.9613850    -1.7960460    -0.3151180
units angstrom
no_reorient  #important for SAPT in psi4, default
symmetry c1  #important for SAPT in psi4, default
}

set PROPERTIES_ORIGIN ["COM"]
properties('MP2/aug-cc-pvtz', properties = ['dipole'])
--------------------------------------------------------------------------

    Molecular point group: c1
  Charge       = 0
  Multiplicity = 1
  Basis Set: AUG-CC-PVTZ
    Blend: AUG-CC-PVTZ
  Basis Set: (AUG-CC-PVTZ AUX)
    Blend: AUG-CC-PVTZ-JKFIT

    Orbital Energies [Eh]
    ---------------------

    Doubly Occupied:

       1A    -20.541436     2A    -11.274992     3A    -11.274933
       4A    -11.211908     5A    -11.210697     6A    -11.208692
       7A    -11.207957     8A     -1.359255     9A     -1.069037
      10A     -1.012645    11A     -0.935861    12A     -0.931565
      13A     -0.806515    14A     -0.780207    15A     -0.676478
      16A     -0.631488    17A     -0.620565    18A     -0.579933
      19A     -0.576312    20A     -0.560229    21A     -0.536476
      22A     -0.535923    23A     -0.516777    24A     -0.510261
      25A     -0.505610    26A     -0.483279    27A     -0.470406
      28A     -0.450748    29A     -0.406916

  @DF-RHF Final Energy:  -310.33280178973621

   => Energetics <=

    Nuclear Repulsion Energy =            338.0458178510336893
    One-Electron Energy =               -1090.9830365043237634
    Two-Electron Energy =                 442.6044168635538654
    Total Energy =                       -310.3328017897362088
  Basis Set: (AUG-CC-PVTZ AUX)
    Blend: AUG-CC-PVTZ-RI
    Molecular point group: c1

    Geometry (in Angstrom), charge = 0, multiplicity = 1:

       Center              X                  Y                   Z               Mass
    ------------   -----------------  -----------------  -----------------  -----------------
         O            0.001425177377     0.020983692741    -0.523051013489    15.994914619570
         C            1.197390777377    -0.137452707259     0.255318186511    12.000000000000
         C           -1.197930222623     0.129637292741     0.255318186511    12.000000000000
         C            2.168240777377    -0.936904707259    -0.594090813489    12.000000000000
         C            1.739339777377     1.238971292741     0.616375186511    12.000000000000
         C           -2.168742222623     0.929138292741    -0.594093813489    12.000000000000
         C           -1.739893222623    -1.246780707259     0.616364186511    12.000000000000
         H            0.976803777377    -0.698206707259     1.176293186511     1.007825032230
         H           -0.977290222623     0.690365292741     1.176292186511     1.007825032230
         H            3.123044777377    -1.070691707259    -0.076630813489     1.007825032230
         H            1.747961777377    -1.918508707259    -0.824995813489     1.007825032230
         H            2.349784777377    -0.409314707259    -1.534623813489     1.007825032230
         H            2.655492777377     1.156868292741     1.210209186511     1.007825032230
         H            1.008850777377     1.810793292741     1.195580186511     1.007825032230
         H            1.961062777377     1.792152292741    -0.300496813489     1.007825032230
         H           -3.123534222623     1.062978292741    -0.076626813489     1.007825032230
         H           -1.748415222623     1.910722292741    -0.825001813489     1.007825032230
         H           -2.350328222623     0.401564292741    -1.534626813489     1.007825032230
         H           -2.656027222623    -1.164666707259     1.210222186511     1.007825032230
         H           -1.009391222623    -1.818615707259     1.195545186511     1.007825032230
         H           -1.961650222623    -1.799950707259    -0.300505813489     1.007825032230

  Basis Set: AUG-CC-PVTZ
    Blend: AUG-CC-PVTZ
  Basis Set: (AUG-CC-PVTZ AUX)
    Blend: AUG-CC-PVTZ-JKFIT
	 Reference Energy          =    -310.3328017897362088 [Eh]
	 Singles Energy            =      -0.0000000000000000 [Eh]
	 Same-Spin Energy          =      -0.3185027566722236 [Eh]
	 Opposite-Spin Energy      =      -1.1354894156091357 [Eh]
	 Correlation Energy        =      -1.4539921722813594 [Eh]
	 Total Energy              =    -311.7867939620175548 [Eh]

	 ================> DF-SCS-MP2 Energies <==================
	-----------------------------------------------------------
	 SCS Same-Spin Scale       =       0.3333333333333333 [-]
	 SCS Opposite-Spin Scale   =       1.2000000000000000 [-]
	 SCS Same-Spin Energy      =      -0.1061675855574079 [Eh]
	 SCS Opposite-Spin Energy  =      -1.3625872987309628 [Eh]
	 SCS Correlation Energy    =      -1.4687548842883706 [Eh]
	 SCS Total Energy          =    -311.8015566740245958 [Eh]
	-----------------------------------------------------------

  Dipole Moment: [D]
     X:    -0.0035      Y:    -0.0557      Z:     1.2840     Total:     1.2853

*** Psi4 exiting successfully. Buy a developer a beer!
