                               Psi4 1.3.2 release

  ==> Input File <==

--------------------------------------------------------------------------
#psi4
#
memory 32 gb

molecule  {
0 1
  O        0.0125259     0.0126718    -0.5188636
  C        1.1976560    -0.1335480     0.2407060
  C       -1.1976650     0.1335420     0.2407060
  C        2.1685060    -0.9330000    -0.6087030
  C        1.7396050     1.2428760     0.6017630
  C       -2.1684770     0.9330430    -0.6087060
  C       -1.7396280    -1.2428760     0.6017520
  H        0.9770690    -0.6943020     1.1616810
  H       -0.9770250     0.6942700     1.1616800
  H        3.1233100    -1.0667870    -0.0912430
  H        1.7482270    -1.9146040    -0.8396080
  H        2.3500500    -0.4054100    -1.5492360
  H        2.6557580     1.1607730     1.1955970
  H        1.0091160     1.8146980     1.1809680
  H        1.9613280     1.7960570    -0.3151090
  H       -3.1232690     1.0668830    -0.0912390
  H       -1.7481500     1.9146270    -0.8396140
  H       -2.3500630     0.4054690    -1.5492390
  H       -2.6557620    -1.1607620     1.1956100
  H       -1.0091260    -1.8147110     1.1809330
  H       -1.9613850    -1.7960460    -0.3151180
units angstrom
no_reorient  #important for SAPT in psi4, default
symmetry c1  #important for SAPT in psi4, default
}

set PROPERTIES_ORIGIN ["COM"]
properties('MP2/aug-cc-pvtz', properties = ['dipole'])
--------------------------------------------------------------------------

    Molecular point group: c1
  Charge       = 0
  Multiplicity = 1
  Basis Set: AUG-CC-PVTZ
    Blend: AUG-CC-PVTZ
  Basis Set: (AUG-CC-PVTZ AUX)
    Blend: AUG-CC-PVTZ-JKFIT

    Orbital Energies [Eh]
    ---------------------

    Doubly Occupied:

       1A    -20.540517     2A    -11.276006     3A    -11.273146
       4A    -11.212059     5A    -11.209699     6A    -11.209244
       7A    -11.207837     8A     -1.364808     9A     -1.070163
      10A     -1.012083    11A     -0.936055    12A     -0.931582
      13A     -0.809623    14A     -0.779390    15A     -0.678016
      16A     -0.632508    17A     -0.622180    18A     -0.580483
      19A     -0.576204    20A     -0.560703    21A     -0.536864
      22A     -0.535403    23A     -0.517415    24A     -0.511582
      25A     -0.506187    26A     -0.483386    27A     -0.472199
      28A     -0.448333    29A     -0.405348

  @DF-RHF Final Energy:  -310.33363757519851

   => Energetics <=

    Nuclear Repulsion Energy =            338.4169510119378970
    One-Electron Energy =               -1091.7031305780910770
    Two-Electron Energy =                 442.9525419909546144
    Total Energy =                       -310.3336375751985088
  Basis Set: (AUG-CC-PVTZ AUX)
    Blend: AUG-CC-PVTZ-RI
    Molecular point group: c1

    Geometry (in Angstrom), charge = 0, multiplicity = 1:

       Center              X                  Y                   Z               Mass
    ------------   -----------------  -----------------  -----------------  -----------------
         O            0.010563269754     0.010680853063    -0.507196416890    15.994914619570
         C            1.195693369754    -0.135538946937     0.252373183110    12.000000000000
         C           -1.199627630246     0.131551053063     0.252373183110    12.000000000000
         C            2.166543369754    -0.934990946937    -0.597035816890    12.000000000000
         C            1.737642369754     1.240885053063     0.613430183110    12.000000000000
         C           -2.170439630246     0.931052053063    -0.597038816890    12.000000000000
         C           -1.741590630246    -1.244866946937     0.613419183110    12.000000000000
         H            0.975106369754    -0.696292946937     1.173348183110     1.007825032230
         H           -0.978987630246     0.692279053063     1.173347183110     1.007825032230
         H            3.121347369754    -1.068777946937    -0.079575816890     1.007825032230
         H            1.746264369754    -1.916594946937    -0.827940816890     1.007825032230
         H            2.348087369754    -0.407400946937    -1.537568816890     1.007825032230
         H            2.653795369754     1.158782053063     1.207264183110     1.007825032230
         H            1.007153369754     1.812707053063     1.192635183110     1.007825032230
         H            1.959365369754     1.794066053063    -0.303441816890     1.007825032230
         H           -3.125231630246     1.064892053063    -0.079571816890     1.007825032230
         H           -1.750112630246     1.912636053063    -0.827946816890     1.007825032230
         H           -2.352025630246     0.403478053063    -1.537571816890     1.007825032230
         H           -2.657724630246    -1.162752946937     1.207277183110     1.007825032230
         H           -1.011088630246    -1.816701946937     1.192600183110     1.007825032230
         H           -1.963347630246    -1.798036946937    -0.303450816890     1.007825032230

  Basis Set: AUG-CC-PVTZ
    Blend: AUG-CC-PVTZ
  Basis Set: (AUG-CC-PVTZ AUX)
    Blend: AUG-CC-PVTZ-JKFIT
	 Reference Energy          =    -310.3336375751985088 [Eh]
	 Singles Energy            =      -0.0000000000000000 [Eh]
	 Same-Spin Energy          =      -0.3183594584875567 [Eh]
	 Opposite-Spin Energy      =      -1.1348452892402909 [Eh]
	 Correlation Energy        =      -1.4532047477278476 [Eh]
	 Total Energy              =    -311.7868423229263612 [Eh]

	 ================> DF-SCS-MP2 Energies <==================
	-----------------------------------------------------------
	 SCS Same-Spin Scale       =       0.3333333333333333 [-]
	 SCS Opposite-Spin Scale   =       1.2000000000000000 [-]
	 SCS Same-Spin Energy      =      -0.1061198194958522 [Eh]
	 SCS Opposite-Spin Energy  =      -1.3618143470883490 [Eh]
	 SCS Correlation Energy    =      -1.4679341665842012 [Eh]
	 SCS Total Energy          =    -311.8015717417827091 [Eh]
	-----------------------------------------------------------

  Dipole Moment: [D]
     X:    -0.0838      Y:    -0.0296      Z:     1.2392     Total:     1.2424

*** Psi4 exiting successfully. Buy a developer a beer!
