                               Psi4 1.3.2 release

  ==> Input File <==

--------------------------------------------------------------------------
#psi4
#
memory 32 gb

molecule  {
0 1
  O       -0.0000080    -0.0000480    -0.5363970
  C        1.2811801    -0.1428582     0.2949005
  C       -1.1976650     0.1335420     0.2407060
  C        2.1685060    -0.9330000    -0.6087030
  C        1.7396050     1.2428760     0.6017630
  C       -2.1684770     0.9330430    -0.6087060
  C       -1.7396280    -1.2428760     0.6017520
  H        0.9770690    -0.6943020     1.1616810
  H       -0.9770250     0.6942700     1.1616800
  H        3.1233100    -1.0667870    -0.0912430
  H        1.7482270    -1.9146040    -0.8396080
  H        2.3500500    -0.4054100    -1.5492360
  H        2.6557580     1.1607730     1.1955970
  H        1.0091160     1.8146980     1.1809680
  H        1.9613280     1.7960570    -0.3151090
  H       -3.1232690     1.0668830    -0.0912390
  H       -1.7481500     1.9146270    -0.8396140
  H       -2.3500630     0.4054690    -1.5492390
  H       -2.6557620    -1.1607620     1.1956100
  H       -1.0091260    -1.8147110     1.1809330
  H       -1.9613850    -1.7960460    -0.3151180
units angstrom
no_reorient  #important for SAPT in psi4, default
symmetry c1  #important for SAPT in psi4, default
}

set PROPERTIES_ORIGIN ["COM"]
properties('MP2/aug-cc-pvtz', properties = ['dipole'])
--------------------------------------------------------------------------

    Molecular point group: c1
  Charge       = 0
  Multiplicity = 1
  Basis Set: AUG-CC-PVTZ
    Blend: AUG-CC-PVTZ
  Basis Set: (AUG-CC-PVTZ AUX)
    Blend: AUG-CC-PVTZ-JKFIT

    Orbital Energies [Eh]
    ---------------------

    Doubly Occupied:

       1A    -20.530302     2A    -11.277640     3A    -11.268316
       4A    -11.215469     5A    -11.211869     6A    -11.207776
       7A    -11.204228     8A     -1.328736     9A     -1.072640
      10A     -1.013574    11A     -0.942302    12A     -0.929266
      13A     -0.800776    14A     -0.779013    15A     -0.667521
      16A     -0.634108    17A     -0.612679    18A     -0.580464
      19A     -0.574575    20A     -0.559763    21A     -0.542035
      22A     -0.532131    23A     -0.514147    24A     -0.505729
      25A     -0.499994    26A     -0.488430    27A     -0.475363
      28A     -0.439745    29A     -0.405338

  @DF-RHF Final Energy:  -310.32265025896669

   => Energetics <=

    Nuclear Repulsion Energy =            336.9234736866154094
    One-Electron Energy =               -1088.8643871770871101
    Two-Electron Energy =                 441.6182632315050682
    Total Energy =                       -310.3226502589666893
  Basis Set: (AUG-CC-PVTZ AUX)
    Blend: AUG-CC-PVTZ-RI
    Molecular point group: c1

    Geometry (in Angstrom), charge = 0, multiplicity = 1:

       Center              X                  Y                   Z               Mass
    ------------   -----------------  -----------------  -----------------  -----------------
         O           -0.009823475262     0.001047837904    -0.528352467121    15.994914619570
         C            1.271364624738    -0.141762362096     0.302945032879    12.000000000000
         C           -1.207480475262     0.134637837904     0.248750532879    12.000000000000
         C            2.158690524738    -0.931904162096    -0.600658467121    12.000000000000
         C            1.729789524738     1.243971837904     0.609807532879    12.000000000000
         C           -2.178292475262     0.934138837904    -0.600661467121    12.000000000000
         C           -1.749443475262    -1.241780162096     0.609796532879    12.000000000000
         H            0.967253524738    -0.693206162096     1.169725532879     1.007825032230
         H           -0.986840475262     0.695365837904     1.169724532879     1.007825032230
         H            3.113494524738    -1.065691162096    -0.083198467121     1.007825032230
         H            1.738411524738    -1.913508162096    -0.831563467121     1.007825032230
         H            2.340234524738    -0.404314162096    -1.541191467121     1.007825032230
         H            2.645942524738     1.161868837904     1.203641532879     1.007825032230
         H            0.999300524738     1.815793837904     1.189012532879     1.007825032230
         H            1.951512524738     1.797152837904    -0.307064467121     1.007825032230
         H           -3.133084475262     1.067978837904    -0.083194467121     1.007825032230
         H           -1.757965475262     1.915722837904    -0.831569467121     1.007825032230
         H           -2.359878475262     0.406564837904    -1.541194467121     1.007825032230
         H           -2.665577475262    -1.159666162096     1.203654532879     1.007825032230
         H           -1.018941475262    -1.813615162096     1.188977532879     1.007825032230
         H           -1.971200475262    -1.794950162096    -0.307073467121     1.007825032230

  Basis Set: AUG-CC-PVTZ
    Blend: AUG-CC-PVTZ
  Basis Set: (AUG-CC-PVTZ AUX)
    Blend: AUG-CC-PVTZ-JKFIT
	 Reference Energy          =    -310.3226502589666893 [Eh]
	 Singles Energy            =      -0.0000000000000000 [Eh]
	 Same-Spin Energy          =      -0.3193454851766742 [Eh]
	 Opposite-Spin Energy      =      -1.1377273808289077 [Eh]
	 Correlation Energy        =      -1.4570728660055818 [Eh]
	 Total Energy              =    -311.7797231249722927 [Eh]

	 ================> DF-SCS-MP2 Energies <==================
	-----------------------------------------------------------
	 SCS Same-Spin Scale       =       0.3333333333333333 [-]
	 SCS Opposite-Spin Scale   =       1.2000000000000000 [-]
	 SCS Same-Spin Energy      =      -0.1064484950588914 [Eh]
	 SCS Opposite-Spin Energy  =      -1.3652728569946893 [Eh]
	 SCS Correlation Energy    =      -1.4717213520535806 [Eh]
	 SCS Total Energy          =    -311.7943716110202672 [Eh]
	-----------------------------------------------------------

  Dipole Moment: [D]
     X:     0.3982      Y:     0.0110      Z:     1.3776     Total:     1.4340

*** Psi4 exiting successfully. Buy a developer a beer!
