                               Psi4 1.3.2 release

  ==> Input File <==

--------------------------------------------------------------------------
#psi4
#
memory 32 gb

molecule  {
0 1
  O       -0.0178337    -0.1485472    -0.5238471
  C        1.1976560    -0.1335480     0.2407060
  C       -1.1976650     0.1335420     0.2407060
  C        2.1685060    -0.9330000    -0.6087030
  C        1.7396050     1.2428760     0.6017630
  C       -2.1684770     0.9330430    -0.6087060
  C       -1.7396280    -1.2428760     0.6017520
  H        0.9770690    -0.6943020     1.1616810
  H       -0.9770250     0.6942700     1.1616800
  H        3.1233100    -1.0667870    -0.0912430
  H        1.7482270    -1.9146040    -0.8396080
  H        2.3500500    -0.4054100    -1.5492360
  H        2.6557580     1.1607730     1.1955970
  H        1.0091160     1.8146980     1.1809680
  H        1.9613280     1.7960570    -0.3151090
  H       -3.1232690     1.0668830    -0.0912390
  H       -1.7481500     1.9146270    -0.8396140
  H       -2.3500630     0.4054690    -1.5492390
  H       -2.6557620    -1.1607620     1.1956100
  H       -1.0091260    -1.8147110     1.1809330
  H       -1.9613850    -1.7960460    -0.3151180
units angstrom
no_reorient  #important for SAPT in psi4, default
symmetry c1  #important for SAPT in psi4, default
}

set PROPERTIES_ORIGIN ["COM"]
properties('MP2/aug-cc-pvtz', properties = ['dipole'])
--------------------------------------------------------------------------

    Molecular point group: c1
  Charge       = 0
  Multiplicity = 1
  Basis Set: AUG-CC-PVTZ
    Blend: AUG-CC-PVTZ
  Basis Set: (AUG-CC-PVTZ AUX)
    Blend: AUG-CC-PVTZ-JKFIT

    Orbital Energies [Eh]
    ---------------------

    Doubly Occupied:

       1A    -20.541463     2A    -11.275570     3A    -11.274086
       4A    -11.215519     5A    -11.210119     6A    -11.207203
       7A    -11.206872     8A     -1.359761     9A     -1.069196
      10A     -1.012784    11A     -0.935570    12A     -0.931707
      13A     -0.806698    14A     -0.780180    15A     -0.675849
      16A     -0.633975    17A     -0.618661    18A     -0.580696
      19A     -0.576307    20A     -0.560403    21A     -0.537211
      22A     -0.535120    23A     -0.517924    24A     -0.509564
      25A     -0.504862    26A     -0.483100    27A     -0.468965
      28A     -0.451709    29A     -0.405201

  @DF-RHF Final Energy:  -310.32869109018367

   => Energetics <=

    Nuclear Repulsion Energy =            338.0871329596764667
    One-Electron Energy =               -1091.0591010822240605
    Two-Electron Energy =                 442.6432770323639829
    Total Energy =                       -310.3286910901836677
  Basis Set: (AUG-CC-PVTZ AUX)
    Blend: AUG-CC-PVTZ-RI
    Molecular point group: c1

    Geometry (in Angstrom), charge = 0, multiplicity = 1:

       Center              X                  Y                   Z               Mass
    ------------   -----------------  -----------------  -----------------  -----------------
         O           -0.015040424522    -0.125282795584    -0.511399239405    15.994914619570
         C            1.200449275478    -0.110283595584     0.253153860595    12.000000000000
         C           -1.194871724522     0.156806404416     0.253153860595    12.000000000000
         C            2.171299275478    -0.909735595584    -0.596255139405    12.000000000000
         C            1.742398275478     1.266140404416     0.614210860595    12.000000000000
         C           -2.165683724522     0.956307404416    -0.596258139405    12.000000000000
         C           -1.736834724522    -1.219611595584     0.614199860595    12.000000000000
         H            0.979862275478    -0.671037595584     1.174128860595     1.007825032230
         H           -0.974231724522     0.717534404416     1.174127860595     1.007825032230
         H            3.126103275478    -1.043522595584    -0.078795139405     1.007825032230
         H            1.751020275478    -1.891339595584    -0.827160139405     1.007825032230
         H            2.352843275478    -0.382145595584    -1.536788139405     1.007825032230
         H            2.658551275478     1.184037404416     1.208044860595     1.007825032230
         H            1.011909275478     1.837962404416     1.193415860595     1.007825032230
         H            1.964121275478     1.819321404416    -0.302661139405     1.007825032230
         H           -3.120475724522     1.090147404416    -0.078791139405     1.007825032230
         H           -1.745356724522     1.937891404416    -0.827166139405     1.007825032230
         H           -2.347269724522     0.428733404416    -1.536791139405     1.007825032230
         H           -2.652968724522    -1.137497595584     1.208057860595     1.007825032230
         H           -1.006332724522    -1.791446595584     1.193380860595     1.007825032230
         H           -1.958591724522    -1.772781595584    -0.302670139405     1.007825032230

  Basis Set: AUG-CC-PVTZ
    Blend: AUG-CC-PVTZ
  Basis Set: (AUG-CC-PVTZ AUX)
    Blend: AUG-CC-PVTZ-JKFIT
	 Reference Energy          =    -310.3286910901836677 [Eh]
	 Singles Energy            =      -0.0000000000000000 [Eh]
	 Same-Spin Energy          =      -0.3186895268501387 [Eh]
	 Opposite-Spin Energy      =      -1.1358225372723829 [Eh]
	 Correlation Energy        =      -1.4545120641225218 [Eh]
	 Total Energy              =    -311.7832031543061930 [Eh]

	 ================> DF-SCS-MP2 Energies <==================
	-----------------------------------------------------------
	 SCS Same-Spin Scale       =       0.3333333333333333 [-]
	 SCS Opposite-Spin Scale   =       1.2000000000000000 [-]
	 SCS Same-Spin Energy      =      -0.1062298422833796 [Eh]
	 SCS Opposite-Spin Energy  =      -1.3629870447268595 [Eh]
	 SCS Correlation Energy    =      -1.4692168870102391 [Eh]
	 SCS Total Energy          =    -311.7979079771939155 [Eh]
	-----------------------------------------------------------

  Dipole Moment: [D]
     X:     0.0741      Y:     0.3322      Z:     1.2499     Total:     1.2954

*** Psi4 exiting successfully. Buy a developer a beer!
