                               Psi4 1.3.2 release

  ==> Input File <==

--------------------------------------------------------------------------
#psi4
#
memory 32 gb

molecule  {
0 1
  O       -0.0020712    -0.0249437    -0.5348940
  C        1.1976560    -0.1335480     0.2407060
  C       -1.1976650     0.1335420     0.2407060
  C        2.1685060    -0.9330000    -0.6087030
  C        1.7396050     1.2428760     0.6017630
  C       -2.1684770     0.9330430    -0.6087060
  C       -1.7396280    -1.2428760     0.6017520
  H        0.9770690    -0.6943020     1.1616810
  H       -0.9770250     0.6942700     1.1616800
  H        3.1233100    -1.0667870    -0.0912430
  H        1.7482270    -1.9146040    -0.8396080
  H        2.3500500    -0.4054100    -1.5492360
  H        2.6557580     1.1607730     1.1955970
  H        1.0091160     1.8146980     1.1809680
  H        1.9613280     1.7960570    -0.3151090
  H       -3.1232690     1.0668830    -0.0912390
  H       -1.7481500     1.9146270    -0.8396140
  H       -2.3500630     0.4054690    -1.5492390
  H       -2.6557620    -1.1607620     1.1956100
  H       -1.0091260    -1.8147110     1.1809330
  H       -1.9613850    -1.7960460    -0.3151180
units angstrom
no_reorient  #important for SAPT in psi4, default
symmetry c1  #important for SAPT in psi4, default
}

set PROPERTIES_ORIGIN ["COM"]
properties('MP2/aug-cc-pvtz', properties = ['dipole'])
--------------------------------------------------------------------------

    Molecular point group: c1
  Charge       = 0
  Multiplicity = 1
  Basis Set: AUG-CC-PVTZ
    Blend: AUG-CC-PVTZ
  Basis Set: (AUG-CC-PVTZ AUX)
    Blend: AUG-CC-PVTZ-JKFIT

    Orbital Energies [Eh]
    ---------------------

    Doubly Occupied:

       1A    -20.541308     2A    -11.274921     3A    -11.274884
       4A    -11.211875     5A    -11.210609     6A    -11.208697
       7A    -11.208015     8A     -1.360048     9A     -1.069194
      10A     -1.012569    11A     -0.935876    12A     -0.931579
      13A     -0.806955    14A     -0.780089    15A     -0.676700
      16A     -0.631636    17A     -0.620793    18A     -0.580001
      19A     -0.576298    20A     -0.560301    21A     -0.536478
      22A     -0.535903    23A     -0.516872    24A     -0.510449
      25A     -0.505697    26A     -0.483289    27A     -0.470652
      28A     -0.450428    29A     -0.406696

  @DF-RHF Final Energy:  -310.33295581845618

   => Energetics <=

    Nuclear Repulsion Energy =            338.0996538143383532
    One-Electron Energy =               -1091.0875985981203939
    Two-Electron Energy =                 442.6549889653258560
    Total Energy =                       -310.3329558184561847
  Basis Set: (AUG-CC-PVTZ AUX)
    Blend: AUG-CC-PVTZ-RI
    Molecular point group: c1

    Geometry (in Angstrom), charge = 0, multiplicity = 1:

       Center              X                  Y                   Z               Mass
    ------------   -----------------  -----------------  -----------------  -----------------
         O           -0.001747158766    -0.021042086700    -0.520715615454    15.994914619570
         C            1.197980041234    -0.129646386700     0.254884384546    12.000000000000
         C           -1.197340958766     0.137443613300     0.254884384546    12.000000000000
         C            2.168830041234    -0.929098386700    -0.594524615454    12.000000000000
         C            1.739929041234     1.246777613300     0.615941384546    12.000000000000
         C           -2.168152958766     0.936944613300    -0.594527615454    12.000000000000
         C           -1.739303958766    -1.238974386700     0.615930384546    12.000000000000
         H            0.977393041234    -0.690400386700     1.175859384546     1.007825032230
         H           -0.976700958766     0.698171613300     1.175858384546     1.007825032230
         H            3.123634041234    -1.062885386700    -0.077064615454     1.007825032230
         H            1.748551041234    -1.910702386700    -0.825429615454     1.007825032230
         H            2.350374041234    -0.401508386700    -1.535057615454     1.007825032230
         H            2.656082041234     1.164674613300     1.209775384546     1.007825032230
         H            1.009440041234     1.818599613300     1.195146384546     1.007825032230
         H            1.961652041234     1.799958613300    -0.300930615454     1.007825032230
         H           -3.122944958766     1.070784613300    -0.077060615454     1.007825032230
         H           -1.747825958766     1.918528613300    -0.825435615454     1.007825032230
         H           -2.349738958766     0.409370613300    -1.535060615454     1.007825032230
         H           -2.655437958766    -1.156860386700     1.209788384546     1.007825032230
         H           -1.008801958766    -1.810809386700     1.195111384546     1.007825032230
         H           -1.961060958766    -1.792144386700    -0.300939615454     1.007825032230

  Basis Set: AUG-CC-PVTZ
    Blend: AUG-CC-PVTZ
  Basis Set: (AUG-CC-PVTZ AUX)
    Blend: AUG-CC-PVTZ-JKFIT
	 Reference Energy          =    -310.3329558184561847 [Eh]
	 Singles Energy            =      -0.0000000000000000 [Eh]
	 Same-Spin Energy          =      -0.3184809386459888 [Eh]
	 Opposite-Spin Energy      =      -1.1353937629204867 [Eh]
	 Correlation Energy        =      -1.4538747015664755 [Eh]
	 Total Energy              =    -311.7868305200226473 [Eh]

	 ================> DF-SCS-MP2 Energies <==================
	-----------------------------------------------------------
	 SCS Same-Spin Scale       =       0.3333333333333333 [-]
	 SCS Opposite-Spin Scale   =       1.2000000000000000 [-]
	 SCS Same-Spin Energy      =      -0.1061603128819962 [Eh]
	 SCS Opposite-Spin Energy  =      -1.3624725155045840 [Eh]
	 SCS Correlation Energy    =      -1.4686328283865804 [Eh]
	 SCS Total Energy          =    -311.8015886468427880 [Eh]
	-----------------------------------------------------------

  Dipole Moment: [D]
     X:     0.0060      Y:     0.0559      Z:     1.2775     Total:     1.2787

*** Psi4 exiting successfully. Buy a developer a beer!
