                               Psi4 1.3.2 release

  ==> Input File <==

--------------------------------------------------------------------------
#psi4
#
memory 32 gb

molecule  {
0 1
  O       -0.0000080    -0.0000480    -0.5363970
  C        1.1141319    -0.1242378     0.1865115
  C       -1.1976650     0.1335420     0.2407060
  C        2.1685060    -0.9330000    -0.6087030
  C        1.7396050     1.2428760     0.6017630
  C       -2.1684770     0.9330430    -0.6087060
  C       -1.7396280    -1.2428760     0.6017520
  H        0.9770690    -0.6943020     1.1616810
  H       -0.9770250     0.6942700     1.1616800
  H        3.1233100    -1.0667870    -0.0912430
  H        1.7482270    -1.9146040    -0.8396080
  H        2.3500500    -0.4054100    -1.5492360
  H        2.6557580     1.1607730     1.1955970
  H        1.0091160     1.8146980     1.1809680
  H        1.9613280     1.7960570    -0.3151090
  H       -3.1232690     1.0668830    -0.0912390
  H       -1.7481500     1.9146270    -0.8396140
  H       -2.3500630     0.4054690    -1.5492390
  H       -2.6557620    -1.1607620     1.1956100
  H       -1.0091260    -1.8147110     1.1809330
  H       -1.9613850    -1.7960460    -0.3151180
units angstrom
no_reorient  #important for SAPT in psi4, default
symmetry c1  #important for SAPT in psi4, default
}

set PROPERTIES_ORIGIN ["COM"]
properties('MP2/aug-cc-pvtz', properties = ['dipole'])
--------------------------------------------------------------------------

    Molecular point group: c1
  Charge       = 0
  Multiplicity = 1
  Basis Set: AUG-CC-PVTZ
    Blend: AUG-CC-PVTZ
  Basis Set: (AUG-CC-PVTZ AUX)
    Blend: AUG-CC-PVTZ-JKFIT

    Orbital Energies [Eh]
    ---------------------

    Doubly Occupied:

       1A    -20.551612     2A    -11.282045     3A    -11.275850
       4A    -11.214988     5A    -11.212647     6A    -11.207070
       7A    -11.205430     8A     -1.399620     9A     -1.071232
      10A     -1.007032    11A     -0.938592    12A     -0.925409
      13A     -0.819528    14A     -0.779962    15A     -0.686095
      16A     -0.635367    17A     -0.630364    18A     -0.582618
      19A     -0.576385    20A     -0.561652    21A     -0.540901
      22A     -0.530536    23A     -0.527370    24A     -0.517920
      25A     -0.508742    26A     -0.478684    27A     -0.474649
      28A     -0.438544    29A     -0.399217

  @DF-RHF Final Energy:  -310.32561328142214

   => Energetics <=

    Nuclear Repulsion Energy =            339.3277924494237254
    One-Electron Energy =               -1093.3466926421176595
    Two-Electron Energy =                 443.6932869112718549
    Total Energy =                       -310.3256132814221360
  Basis Set: (AUG-CC-PVTZ AUX)
    Blend: AUG-CC-PVTZ-RI
    Molecular point group: c1

    Geometry (in Angstrom), charge = 0, multiplicity = 1:

       Center              X                  Y                   Z               Mass
    ------------   -----------------  -----------------  -----------------  -----------------
         O            0.009809147059    -0.001140556108    -0.515613866521    15.994914619570
         C            1.123949047059    -0.125330356108     0.207294633479    12.000000000000
         C           -1.187847852941     0.132449443892     0.261489133479    12.000000000000
         C            2.178323147059    -0.934092556108    -0.587919866521    12.000000000000
         C            1.749422147059     1.241783443892     0.622546133479    12.000000000000
         C           -2.158659852941     0.931950443892    -0.587922866521    12.000000000000
         C           -1.729810852941    -1.243968556108     0.622535133479    12.000000000000
         H            0.986886147059    -0.695394556108     1.182464133479     1.007825032230
         H           -0.967207852941     0.693177443892     1.182463133479     1.007825032230
         H            3.133127147059    -1.067879556108    -0.070459866521     1.007825032230
         H            1.758044147059    -1.915696556108    -0.818824866521     1.007825032230
         H            2.359867147059    -0.406502556108    -1.528452866521     1.007825032230
         H            2.665575147059     1.159680443892     1.216380133479     1.007825032230
         H            1.018933147059     1.813605443892     1.201751133479     1.007825032230
         H            1.971145147059     1.794964443892    -0.294325866521     1.007825032230
         H           -3.113451852941     1.065790443892    -0.070455866521     1.007825032230
         H           -1.738332852941     1.913534443892    -0.818830866521     1.007825032230
         H           -2.340245852941     0.404376443892    -1.528455866521     1.007825032230
         H           -2.645944852941    -1.161854556108     1.216393133479     1.007825032230
         H           -0.999308852941    -1.815803556108     1.201716133479     1.007825032230
         H           -1.951567852941    -1.797138556108    -0.294334866521     1.007825032230

  Basis Set: AUG-CC-PVTZ
    Blend: AUG-CC-PVTZ
  Basis Set: (AUG-CC-PVTZ AUX)
    Blend: AUG-CC-PVTZ-JKFIT
	 Reference Energy          =    -310.3256132814221360 [Eh]
	 Singles Energy            =      -0.0000000000000000 [Eh]
	 Same-Spin Energy          =      -0.3183952796558514 [Eh]
	 Opposite-Spin Energy      =      -1.1343095756068533 [Eh]
	 Correlation Energy        =      -1.4527048552627047 [Eh]
	 Total Energy              =    -311.7783181366848453 [Eh]

	 ================> DF-SCS-MP2 Energies <==================
	-----------------------------------------------------------
	 SCS Same-Spin Scale       =       0.3333333333333333 [-]
	 SCS Opposite-Spin Scale   =       1.2000000000000000 [-]
	 SCS Same-Spin Energy      =      -0.1061317598852838 [Eh]
	 SCS Opposite-Spin Energy  =      -1.3611714907282240 [Eh]
	 SCS Correlation Energy    =      -1.4673032506135077 [Eh]
	 SCS Total Energy          =    -311.7929165320356333 [Eh]
	-----------------------------------------------------------

  Dipole Moment: [D]
     X:    -0.4617      Y:    -0.0128      Z:     1.1545     Total:     1.2434

*** Psi4 exiting successfully. Buy a developer a beer!
