                               Psi4 1.3.2 release

  ==> Input File <==

--------------------------------------------------------------------------
#psi4
#
memory 32 gb

molecule  {
0 1
  O        0.0695936     0.0767453    -0.4278352
  C        1.1976560    -0.1335480     0.2407060
  C       -1.1976650     0.1335420     0.2407060
  C        2.1685060    -0.9330000    -0.6087030
  C        1.7396050     1.2428760     0.6017630
  C       -2.1684770     0.9330430    -0.6087060
  C       -1.7396280    -1.2428760     0.6017520
  H        0.9770690    -0.6943020     1.1616810
  H       -0.9770250     0.6942700     1.1616800
  H        3.1233100    -1.0667870    -0.0912430
  H        1.7482270    -1.9146040    -0.8396080
  H        2.3500500    -0.4054100    -1.5492360
  H        2.6557580     1.1607730     1.1955970
  H        1.0091160     1.8146980     1.1809680
  H        1.9613280     1.7960570    -0.3151090
  H       -3.1232690     1.0668830    -0.0912390
  H       -1.7481500     1.9146270    -0.8396140
  H       -2.3500630     0.4054690    -1.5492390
  H       -2.6557620    -1.1607620     1.1956100
  H       -1.0091260    -1.8147110     1.1809330
  H       -1.9613850    -1.7960460    -0.3151180
units angstrom
no_reorient  #important for SAPT in psi4, default
symmetry c1  #important for SAPT in psi4, default
}

set PROPERTIES_ORIGIN ["COM"]
properties('MP2/aug-cc-pvtz', properties = ['dipole'])
--------------------------------------------------------------------------

    Molecular point group: c1
  Charge       = 0
  Multiplicity = 1
  Basis Set: AUG-CC-PVTZ
    Blend: AUG-CC-PVTZ
  Basis Set: (AUG-CC-PVTZ AUX)
    Blend: AUG-CC-PVTZ-JKFIT

    Orbital Energies [Eh]
    ---------------------

    Doubly Occupied:

       1A    -20.535457     2A    -11.281963     3A    -11.265058
       4A    -11.216101     5A    -11.213882     6A    -11.205336
       7A    -11.201849     8A     -1.392746     9A     -1.076409
      10A     -1.008902    11A     -0.938621    12A     -0.930254
      13A     -0.825649    14A     -0.775735    15A     -0.684458
      16A     -0.640385    17A     -0.627955    18A     -0.586291
      19A     -0.575436    20A     -0.562277    21A     -0.539992
      22A     -0.531556    23A     -0.521784    24A     -0.517080
      25A     -0.506818    26A     -0.484544    27A     -0.479789
      28A     -0.434902    29A     -0.394873

  @DF-RHF Final Energy:  -310.32564243021670

   => Energetics <=

    Nuclear Repulsion Energy =            340.1276749591329462
    One-Electron Energy =               -1094.9944335803822923
    Two-Electron Energy =                 444.5411161910326427
    Total Energy =                       -310.3256424302167034
  Basis Set: (AUG-CC-PVTZ AUX)
    Blend: AUG-CC-PVTZ-RI
    Molecular point group: c1

    Geometry (in Angstrom), charge = 0, multiplicity = 1:

       Center              X                  Y                   Z               Mass
    ------------   -----------------  -----------------  -----------------  -----------------
         O            0.058691174728     0.064717082302    -0.430427838779    15.994914619570
         C            1.186753574728    -0.145576217698     0.238113361221    12.000000000000
         C           -1.208567425272     0.121513782302     0.238113361221    12.000000000000
         C            2.157603574728    -0.945028217698    -0.611295638779    12.000000000000
         C            1.728702574728     1.230847782302     0.599170361221    12.000000000000
         C           -2.179379425272     0.921014782302    -0.611298638779    12.000000000000
         C           -1.750530425272    -1.254904217698     0.599159361221    12.000000000000
         H            0.966166574728    -0.706330217698     1.159088361221     1.007825032230
         H           -0.987927425272     0.682241782302     1.159087361221     1.007825032230
         H            3.112407574728    -1.078815217698    -0.093835638779     1.007825032230
         H            1.737324574728    -1.926632217698    -0.842200638779     1.007825032230
         H            2.339147574728    -0.417438217698    -1.551828638779     1.007825032230
         H            2.644855574728     1.148744782302     1.193004361221     1.007825032230
         H            0.998213574728     1.802669782302     1.178375361221     1.007825032230
         H            1.950425574728     1.784028782302    -0.317701638779     1.007825032230
         H           -3.134171425272     1.054854782302    -0.093831638779     1.007825032230
         H           -1.759052425272     1.902598782302    -0.842206638779     1.007825032230
         H           -2.360965425272     0.393440782302    -1.551831638779     1.007825032230
         H           -2.666664425272    -1.172790217698     1.193017361221     1.007825032230
         H           -1.020028425272    -1.826739217698     1.178340361221     1.007825032230
         H           -1.972287425272    -1.808074217698    -0.317710638779     1.007825032230

  Basis Set: AUG-CC-PVTZ
    Blend: AUG-CC-PVTZ
  Basis Set: (AUG-CC-PVTZ AUX)
    Blend: AUG-CC-PVTZ-JKFIT
	 Reference Energy          =    -310.3256424302167034 [Eh]
	 Singles Energy            =      -0.0000000000000000 [Eh]
	 Same-Spin Energy          =      -0.3181197908948483 [Eh]
	 Opposite-Spin Energy      =      -1.1327422491914556 [Eh]
	 Correlation Energy        =      -1.4508620400863039 [Eh]
	 Total Energy              =    -311.7765044703029957 [Eh]

	 ================> DF-SCS-MP2 Energies <==================
	-----------------------------------------------------------
	 SCS Same-Spin Scale       =       0.3333333333333333 [-]
	 SCS Opposite-Spin Scale   =       1.2000000000000000 [-]
	 SCS Same-Spin Energy      =      -0.1060399302982828 [Eh]
	 SCS Opposite-Spin Energy  =      -1.3592906990297466 [Eh]
	 SCS Correlation Energy    =      -1.4653306293280295 [Eh]
	 SCS Total Energy          =    -311.7909730595447400 [Eh]
	-----------------------------------------------------------

  Dipole Moment: [D]
     X:    -0.5139      Y:    -0.1762      Z:     1.0125     Total:     1.1490

*** Psi4 exiting successfully. Buy a developer a beer!
