                               Psi4 1.3.2 release

  ==> Input File <==

--------------------------------------------------------------------------
#psi4
#
memory 32 gb

molecule  {
0 1
  O       -0.0000080    -0.0000480    -0.5363970
  C        1.1976560    -0.1335480     0.2407060
  C       -1.1976650     0.1335420     0.2407060
  C        2.1685060    -0.9330000    -0.6087030
  C        1.7396050     1.2428760     0.6017630
  C       -2.1684770     0.9330430    -0.6087060
  C       -1.7396280    -1.2428760     0.6017520
  H        0.9770690    -0.6943020     1.1616810
  H       -0.9770250     0.6942700     1.1616800
  H        3.1233100    -1.0667870    -0.0912430
  H        1.7482270    -1.9146040    -0.8396080
  H        2.3500500    -0.4054100    -1.5492360
  H        2.6557580     1.1607730     1.1955970
  H        1.0091160     1.8146980     1.1809680
  H        1.9613280     1.7960570    -0.3151090
  H       -3.1232690     1.0668830    -0.0912390
  H       -1.7481500     1.9146270    -0.8396140
  H       -2.3500630     0.4054690    -1.5492390
  H       -2.6557620    -1.1607620     1.1956100
  H       -1.0091260    -1.8147110     1.1809330
  H       -1.9613850    -1.7960460    -0.3151180
units angstrom
no_reorient  #important for SAPT in psi4, default
symmetry c1  #important for SAPT in psi4, default
}

set PROPERTIES_ORIGIN ["COM"]
properties('MP2/aug-cc-pvtz', properties = ['dipole'])
--------------------------------------------------------------------------

    Molecular point group: c1
  Charge       = 0
  Multiplicity = 1
  Basis Set: AUG-CC-PVTZ
    Blend: AUG-CC-PVTZ
  Basis Set: (AUG-CC-PVTZ AUX)
    Blend: AUG-CC-PVTZ-JKFIT

    Orbital Energies [Eh]
    ---------------------

    Doubly Occupied:

       1A    -20.541358     2A    -11.274939     3A    -11.274922
       4A    -11.211265     5A    -11.211263     6A    -11.208339
       7A    -11.208337     8A     -1.359715     9A     -1.069127
      10A     -1.012594    11A     -0.935883    12A     -0.931565
      13A     -0.806774    14A     -0.780137    15A     -0.676629
      16A     -0.631494    17A     -0.620765    18A     -0.579955
      19A     -0.576306    20A     -0.560264    21A     -0.536442
      22A     -0.535950    23A     -0.516785    24A     -0.510408
      25A     -0.505681    26A     -0.483291    27A     -0.470589
      28A     -0.450541    29A     -0.406829

  @DF-RHF Final Energy:  -310.33301202505311

   => Energetics <=

    Nuclear Repulsion Energy =            338.0769241813181907
    One-Electron Energy =               -1091.0435816309880011
    Two-Electron Energy =                 442.6336454246167023
    Total Energy =                       -310.3330120250531081
  Basis Set: (AUG-CC-PVTZ AUX)
    Blend: AUG-CC-PVTZ-RI
    Molecular point group: c1

    Geometry (in Angstrom), charge = 0, multiplicity = 1:

       Center              X                  Y                   Z               Mass
    ------------   -----------------  -----------------  -----------------  -----------------
         O           -0.000007164102    -0.000046359102    -0.521983166821    15.994914619570
         C            1.197656835898    -0.133546359102     0.255119833179    12.000000000000
         C           -1.197664164102     0.133543640898     0.255119833179    12.000000000000
         C            2.168506835898    -0.932998359102    -0.594289166821    12.000000000000
         C            1.739605835898     1.242877640898     0.616176833179    12.000000000000
         C           -2.168476164102     0.933044640898    -0.594292166821    12.000000000000
         C           -1.739627164102    -1.242874359102     0.616165833179    12.000000000000
         H            0.977069835898    -0.694300359102     1.176094833179     1.007825032230
         H           -0.977024164102     0.694271640898     1.176093833179     1.007825032230
         H            3.123310835898    -1.066785359102    -0.076829166821     1.007825032230
         H            1.748227835898    -1.914602359102    -0.825194166821     1.007825032230
         H            2.350050835898    -0.405408359102    -1.534822166821     1.007825032230
         H            2.655758835898     1.160774640898     1.210010833179     1.007825032230
         H            1.009116835898     1.814699640898     1.195381833179     1.007825032230
         H            1.961328835898     1.796058640898    -0.300695166821     1.007825032230
         H           -3.123268164102     1.066884640898    -0.076825166821     1.007825032230
         H           -1.748149164102     1.914628640898    -0.825200166821     1.007825032230
         H           -2.350062164102     0.405470640898    -1.534825166821     1.007825032230
         H           -2.655761164102    -1.160760359102     1.210023833179     1.007825032230
         H           -1.009125164102    -1.814709359102     1.195346833179     1.007825032230
         H           -1.961384164102    -1.796044359102    -0.300704166821     1.007825032230

  Basis Set: AUG-CC-PVTZ
    Blend: AUG-CC-PVTZ
  Basis Set: (AUG-CC-PVTZ AUX)
    Blend: AUG-CC-PVTZ-JKFIT
	 Reference Energy          =    -310.3330120250531081 [Eh]
	 Singles Energy            =      -0.0000000000000000 [Eh]
	 Same-Spin Energy          =      -0.3184842594995007 [Eh]
	 Opposite-Spin Energy      =      -1.1354224187660558 [Eh]
	 Correlation Energy        =      -1.4539066782655565 [Eh]
	 Total Energy              =    -311.7869187033186904 [Eh]

	 ================> DF-SCS-MP2 Energies <==================
	-----------------------------------------------------------
	 SCS Same-Spin Scale       =       0.3333333333333333 [-]
	 SCS Opposite-Spin Scale   =       1.2000000000000000 [-]
	 SCS Same-Spin Energy      =      -0.1061614198331669 [Eh]
	 SCS Opposite-Spin Energy  =      -1.3625069025192669 [Eh]
	 SCS Correlation Energy    =      -1.4686683223524337 [Eh]
	 SCS Total Energy          =    -311.8016803474055223 [Eh]
	-----------------------------------------------------------

  Dipole Moment: [D]
     X:    -0.0000      Y:     0.0001      Z:     1.2811     Total:     1.2811

*** Psi4 exiting successfully. Buy a developer a beer!
