                               Psi4 1.3.2 release

  ==> Input File <==

--------------------------------------------------------------------------
#psi4
#
memory 32 gb

molecule  {
0 1
  O       -0.0537521    -0.0504818    -0.6041112
  C        1.1976560    -0.1335480     0.2407060
  C       -1.1976650     0.1335420     0.2407060
  C        2.1685060    -0.9330000    -0.6087030
  C        1.7396050     1.2428760     0.6017630
  C       -2.1684770     0.9330430    -0.6087060
  C       -1.7396280    -1.2428760     0.6017520
  H        0.9770690    -0.6943020     1.1616810
  H       -0.9770250     0.6942700     1.1616800
  H        3.1233100    -1.0667870    -0.0912430
  H        1.7482270    -1.9146040    -0.8396080
  H        2.3500500    -0.4054100    -1.5492360
  H        2.6557580     1.1607730     1.1955970
  H        1.0091160     1.8146980     1.1809680
  H        1.9613280     1.7960570    -0.3151090
  H       -3.1232690     1.0668830    -0.0912390
  H       -1.7481500     1.9146270    -0.8396140
  H       -2.3500630     0.4054690    -1.5492390
  H       -2.6557620    -1.1607620     1.1956100
  H       -1.0091260    -1.8147110     1.1809330
  H       -1.9613850    -1.7960460    -0.3151180
units angstrom
no_reorient  #important for SAPT in psi4, default
symmetry c1  #important for SAPT in psi4, default
}

set PROPERTIES_ORIGIN ["COM"]
properties('MP2/aug-cc-pvtz', properties = ['dipole'])
--------------------------------------------------------------------------

    Molecular point group: c1
  Charge       = 0
  Multiplicity = 1
  Basis Set: AUG-CC-PVTZ
    Blend: AUG-CC-PVTZ
  Basis Set: (AUG-CC-PVTZ AUX)
    Blend: AUG-CC-PVTZ-JKFIT

    Orbital Energies [Eh]
    ---------------------

    Doubly Occupied:

       1A    -20.543884     2A    -11.282494     3A    -11.271042
       4A    -11.217425     5A    -11.210439     6A    -11.208120
       7A    -11.204799     8A     -1.341228     9A     -1.065982
      10A     -1.013900    11A     -0.936733    12A     -0.930177
      13A     -0.797301    14A     -0.782629    15A     -0.670891
      16A     -0.629115    17A     -0.614596    18A     -0.579545
      19A     -0.576842    20A     -0.558429    21A     -0.538894
      22A     -0.533781    23A     -0.514647    24A     -0.505765
      25A     -0.502730    26A     -0.483677    27A     -0.468016
      28A     -0.453197    29A     -0.410460

  @DF-RHF Final Energy:  -310.32407441295175

   => Energetics <=

    Nuclear Repulsion Energy =            336.7420427128104734
    One-Electron Energy =               -1088.4387550845408441
    Two-Electron Energy =                 441.3726379587786823
    Total Energy =                       -310.3240744129517452
  Basis Set: (AUG-CC-PVTZ AUX)
    Blend: AUG-CC-PVTZ-RI
    Molecular point group: c1

    Geometry (in Angstrom), charge = 0, multiplicity = 1:

       Center              X                  Y                   Z               Mass
    ------------   -----------------  -----------------  -----------------  -----------------
         O           -0.045332119158    -0.042579580764    -0.579089771485    15.994914619570
         C            1.206075980842    -0.125645780764     0.265727428515    12.000000000000
         C           -1.189245019158     0.141444219236     0.265727428515    12.000000000000
         C            2.176925980842    -0.925097780764    -0.583681571485    12.000000000000
         C            1.748024980842     1.250778219236     0.626784428515    12.000000000000
         C           -2.160057019158     0.940945219236    -0.583684571485    12.000000000000
         C           -1.731208019158    -1.234973780764     0.626773428515    12.000000000000
         H            0.985488980842    -0.686399780764     1.186702428515     1.007825032230
         H           -0.968605019158     0.702172219236     1.186701428515     1.007825032230
         H            3.131729980842    -1.058884780764    -0.066221571485     1.007825032230
         H            1.756646980842    -1.906701780764    -0.814586571485     1.007825032230
         H            2.358469980842    -0.397507780764    -1.524214571485     1.007825032230
         H            2.664177980842     1.168675219236     1.220618428515     1.007825032230
         H            1.017535980842     1.822600219236     1.205989428515     1.007825032230
         H            1.969747980842     1.803959219236    -0.290087571485     1.007825032230
         H           -3.114849019158     1.074785219236    -0.066217571485     1.007825032230
         H           -1.739730019158     1.922529219236    -0.814592571485     1.007825032230
         H           -2.341643019158     0.413371219236    -1.524217571485     1.007825032230
         H           -2.647342019158    -1.152859780764     1.220631428515     1.007825032230
         H           -1.000706019158    -1.806808780764     1.205954428515     1.007825032230
         H           -1.952965019158    -1.788143780764    -0.290096571485     1.007825032230

  Basis Set: AUG-CC-PVTZ
    Blend: AUG-CC-PVTZ
  Basis Set: (AUG-CC-PVTZ AUX)
    Blend: AUG-CC-PVTZ-JKFIT
	 Reference Energy          =    -310.3240744129517452 [Eh]
	 Singles Energy            =      -0.0000000000000000 [Eh]
	 Same-Spin Energy          =      -0.3192223403011780 [Eh]
	 Opposite-Spin Energy      =      -1.1382045511231280 [Eh]
	 Correlation Energy        =      -1.4574268914243060 [Eh]
	 Total Energy              =    -311.7815013043760359 [Eh]

	 ================> DF-SCS-MP2 Energies <==================
	-----------------------------------------------------------
	 SCS Same-Spin Scale       =       0.3333333333333333 [-]
	 SCS Opposite-Spin Scale   =       1.2000000000000000 [-]
	 SCS Same-Spin Energy      =      -0.1064074467670593 [Eh]
	 SCS Opposite-Spin Energy  =      -1.3658454613477535 [Eh]
	 SCS Correlation Energy    =      -1.4722529081148128 [Eh]
	 SCS Total Energy          =    -311.7963273210665420 [Eh]
	-----------------------------------------------------------

  Dipole Moment: [D]
     X:     0.3280      Y:     0.1170      Z:     1.4358     Total:     1.4774

*** Psi4 exiting successfully. Buy a developer a beer!
