                               Psi4 1.3.2 release

  ==> Input File <==

--------------------------------------------------------------------------
#psi4
#
memory 32 gb

molecule  {
0 1
  O       -0.0129067    -0.0127271    -0.5536937
  C        1.1976560    -0.1335480     0.2407060
  C       -1.1976650     0.1335420     0.2407060
  C        2.1685060    -0.9330000    -0.6087030
  C        1.7396050     1.2428760     0.6017630
  C       -2.1684770     0.9330430    -0.6087060
  C       -1.7396280    -1.2428760     0.6017520
  H        0.9770690    -0.6943020     1.1616810
  H       -0.9770250     0.6942700     1.1616800
  H        3.1233100    -1.0667870    -0.0912430
  H        1.7482270    -1.9146040    -0.8396080
  H        2.3500500    -0.4054100    -1.5492360
  H        2.6557580     1.1607730     1.1955970
  H        1.0091160     1.8146980     1.1809680
  H        1.9613280     1.7960570    -0.3151090
  H       -3.1232690     1.0668830    -0.0912390
  H       -1.7481500     1.9146270    -0.8396140
  H       -2.3500630     0.4054690    -1.5492390
  H       -2.6557620    -1.1607620     1.1956100
  H       -1.0091260    -1.8147110     1.1809330
  H       -1.9613850    -1.7960460    -0.3151180
units angstrom
no_reorient  #important for SAPT in psi4, default
symmetry c1  #important for SAPT in psi4, default
}

set PROPERTIES_ORIGIN ["COM"]
properties('MP2/aug-cc-pvtz', properties = ['dipole'])
--------------------------------------------------------------------------

    Molecular point group: c1
  Charge       = 0
  Multiplicity = 1
  Basis Set: AUG-CC-PVTZ
    Blend: AUG-CC-PVTZ
  Basis Set: (AUG-CC-PVTZ AUX)
    Blend: AUG-CC-PVTZ-JKFIT

    Orbital Energies [Eh]
    ---------------------

    Doubly Occupied:

       1A    -20.542120     2A    -11.276762     3A    -11.273897
       4A    -11.212821     5A    -11.210472     6A    -11.208845
       7A    -11.207443     8A     -1.354808     9A     -1.068182
      10A     -1.013041    11A     -0.935888    12A     -0.931392
      13A     -0.804089    14A     -0.780860    15A     -0.675218
      16A     -0.630664    17A     -0.619281    18A     -0.579637
      19A     -0.576398    20A     -0.559794    21A     -0.536949
      22A     -0.535548    23A     -0.516211    24A     -0.509232
      25A     -0.505067    26A     -0.483267    27A     -0.469121
      28A     -0.452382    29A     -0.408082

  @DF-RHF Final Energy:  -310.33170909873047

   => Energetics <=

    Nuclear Repulsion Energy =            337.7389481524361372
    One-Electron Energy =               -1090.3863714319716109
    Two-Electron Energy =                 442.3157141808050028
    Total Energy =                       -310.3317090987304709
  Basis Set: (AUG-CC-PVTZ AUX)
    Blend: AUG-CC-PVTZ-RI
    Molecular point group: c1

    Geometry (in Angstrom), charge = 0, multiplicity = 1:

       Center              X                  Y                   Z               Mass
    ------------   -----------------  -----------------  -----------------  -----------------
         O           -0.010885251143    -0.010739247022    -0.536570296388    15.994914619570
         C            1.199677448857    -0.131560147022     0.257829403612    12.000000000000
         C           -1.195643551143     0.135529852978     0.257829403612    12.000000000000
         C            2.170527448857    -0.931012147022    -0.591579596388    12.000000000000
         C            1.741626448857     1.244863852978     0.618886403612    12.000000000000
         C           -2.166455551143     0.935030852978    -0.591582596388    12.000000000000
         C           -1.737606551143    -1.240888147022     0.618875403612    12.000000000000
         H            0.979090448857    -0.692314147022     1.178804403612     1.007825032230
         H           -0.975003551143     0.696257852978     1.178803403612     1.007825032230
         H            3.125331448857    -1.064799147022    -0.074119596388     1.007825032230
         H            1.750248448857    -1.912616147022    -0.822484596388     1.007825032230
         H            2.352071448857    -0.403422147022    -1.532112596388     1.007825032230
         H            2.657779448857     1.162760852978     1.212720403612     1.007825032230
         H            1.011137448857     1.816685852978     1.198091403612     1.007825032230
         H            1.963349448857     1.798044852978    -0.297985596388     1.007825032230
         H           -3.121247551143     1.068870852978    -0.074115596388     1.007825032230
         H           -1.746128551143     1.916614852978    -0.822490596388     1.007825032230
         H           -2.348041551143     0.407456852978    -1.532115596388     1.007825032230
         H           -2.653740551143    -1.158774147022     1.212733403612     1.007825032230
         H           -1.007104551143    -1.812723147022     1.198056403612     1.007825032230
         H           -1.959363551143    -1.794058147022    -0.297994596388     1.007825032230

  Basis Set: AUG-CC-PVTZ
    Blend: AUG-CC-PVTZ
  Basis Set: (AUG-CC-PVTZ AUX)
    Blend: AUG-CC-PVTZ-JKFIT
	 Reference Energy          =    -310.3317090987304709 [Eh]
	 Singles Energy            =      -0.0000000000000000 [Eh]
	 Same-Spin Energy          =      -0.3186336518290261 [Eh]
	 Opposite-Spin Energy      =      -1.1360485949058186 [Eh]
	 Correlation Energy        =      -1.4546822467348446 [Eh]
	 Total Energy              =    -311.7863913454652902 [Eh]

	 ================> DF-SCS-MP2 Energies <==================
	-----------------------------------------------------------
	 SCS Same-Spin Scale       =       0.3333333333333333 [-]
	 SCS Opposite-Spin Scale   =       1.2000000000000000 [-]
	 SCS Same-Spin Energy      =      -0.1062112172763420 [Eh]
	 SCS Opposite-Spin Energy  =      -1.3632583138869823 [Eh]
	 SCS Correlation Energy    =      -1.4694695311633243 [Eh]
	 SCS Total Energy          =    -311.8011786298937977 [Eh]
	-----------------------------------------------------------

  Dipole Moment: [D]
     X:     0.0831      Y:     0.0297      Z:     1.3217     Total:     1.3247

*** Psi4 exiting successfully. Buy a developer a beer!
