                               Psi4 1.3.2 release

  ==> Input File <==

--------------------------------------------------------------------------
#psi4
#
memory 32 gb

molecule  {
0 1
  O       -0.0827314    -0.0753776    -0.6364447
  C        1.1976560    -0.1335480     0.2407060
  C       -1.1976650     0.1335420     0.2407060
  C        2.1685060    -0.9330000    -0.6087030
  C        1.7396050     1.2428760     0.6017630
  C       -2.1684770     0.9330430    -0.6087060
  C       -1.7396280    -1.2428760     0.6017520
  H        0.9770690    -0.6943020     1.1616810
  H       -0.9770250     0.6942700     1.1616800
  H        3.1233100    -1.0667870    -0.0912430
  H        1.7482270    -1.9146040    -0.8396080
  H        2.3500500    -0.4054100    -1.5492360
  H        2.6557580     1.1607730     1.1955970
  H        1.0091160     1.8146980     1.1809680
  H        1.9613280     1.7960570    -0.3151090
  H       -3.1232690     1.0668830    -0.0912390
  H       -1.7481500     1.9146270    -0.8396140
  H       -2.3500630     0.4054690    -1.5492390
  H       -2.6557620    -1.1607620     1.1956100
  H       -1.0091260    -1.8147110     1.1809330
  H       -1.9613850    -1.7960460    -0.3151180
units angstrom
no_reorient  #important for SAPT in psi4, default
symmetry c1  #important for SAPT in psi4, default
}

set PROPERTIES_ORIGIN ["COM"]
properties('MP2/aug-cc-pvtz', properties = ['dipole'])
--------------------------------------------------------------------------

    Molecular point group: c1
  Charge       = 0
  Multiplicity = 1
  Basis Set: AUG-CC-PVTZ
    Blend: AUG-CC-PVTZ
  Basis Set: (AUG-CC-PVTZ AUX)
    Blend: AUG-CC-PVTZ-JKFIT

    Orbital Energies [Eh]
    ---------------------

    Doubly Occupied:

       1A    -20.544578     2A    -11.286486     3A    -11.269327
       4A    -11.220430     5A    -11.211589     6A    -11.206566
       7A    -11.203070     8A     -1.333130     9A     -1.065117
      10A     -1.013987    11A     -0.937692    12A     -0.929092
      13A     -0.794342    14A     -0.782972    15A     -0.667978
      16A     -0.628732    17A     -0.611442    18A     -0.579868
      19A     -0.577367    20A     -0.557793    21A     -0.540069
      22A     -0.532626    23A     -0.513587    24A     -0.503561
      25A     -0.500868    26A     -0.484356    27A     -0.470658
      28A     -0.449174    29A     -0.410914

  @DF-RHF Final Energy:  -310.31623366597063

   => Energetics <=

    Nuclear Repulsion Energy =            336.0957027138157400
    One-Electron Energy =               -1087.1691370598641697
    Two-Electron Energy =                 440.7572006800778013
    Total Energy =                       -310.3162336659706284
  Basis Set: (AUG-CC-PVTZ AUX)
    Blend: AUG-CC-PVTZ-RI
    Molecular point group: c1

    Geometry (in Angstrom), charge = 0, multiplicity = 1:

       Center              X                  Y                   Z               Mass
    ------------   -----------------  -----------------  -----------------  -----------------
         O           -0.069771740811    -0.063575392697    -0.606358149489    15.994914619570
         C            1.210615659189    -0.121745792697     0.270792550511    12.000000000000
         C           -1.184705340811     0.145344207303     0.270792550511    12.000000000000
         C            2.181465659189    -0.921197792697    -0.578616449489    12.000000000000
         C            1.752564659189     1.254678207303     0.631849550511    12.000000000000
         C           -2.155517340811     0.944845207303    -0.578619449489    12.000000000000
         C           -1.726668340811    -1.231073792697     0.631838550511    12.000000000000
         H            0.990028659189    -0.682499792697     1.191767550511     1.007825032230
         H           -0.964065340811     0.706072207303     1.191766550511     1.007825032230
         H            3.136269659189    -1.054984792697    -0.061156449489     1.007825032230
         H            1.761186659189    -1.902801792697    -0.809521449489     1.007825032230
         H            2.363009659189    -0.393607792697    -1.519149449489     1.007825032230
         H            2.668717659189     1.172575207303     1.225683550511     1.007825032230
         H            1.022075659189     1.826500207303     1.211054550511     1.007825032230
         H            1.974287659189     1.807859207303    -0.285022449489     1.007825032230
         H           -3.110309340811     1.078685207303    -0.061152449489     1.007825032230
         H           -1.735190340811     1.926429207303    -0.809527449489     1.007825032230
         H           -2.337103340811     0.417271207303    -1.519152449489     1.007825032230
         H           -2.642802340811    -1.148959792697     1.225696550511     1.007825032230
         H           -0.996166340811    -1.802908792697     1.211019550511     1.007825032230
         H           -1.948425340811    -1.784243792697    -0.285031449489     1.007825032230

  Basis Set: AUG-CC-PVTZ
    Blend: AUG-CC-PVTZ
  Basis Set: (AUG-CC-PVTZ AUX)
    Blend: AUG-CC-PVTZ-JKFIT
	 Reference Energy          =    -310.3162336659706284 [Eh]
	 Singles Energy            =      -0.0000000000000000 [Eh]
	 Same-Spin Energy          =      -0.3197235393819323 [Eh]
	 Opposite-Spin Energy      =      -1.1398543091936877 [Eh]
	 Correlation Energy        =      -1.4595778485756199 [Eh]
	 Total Energy              =    -311.7758115145462625 [Eh]

	 ================> DF-SCS-MP2 Energies <==================
	-----------------------------------------------------------
	 SCS Same-Spin Scale       =       0.3333333333333333 [-]
	 SCS Opposite-Spin Scale   =       1.2000000000000000 [-]
	 SCS Same-Spin Energy      =      -0.1065745131273108 [Eh]
	 SCS Opposite-Spin Energy  =      -1.3678251710324252 [Eh]
	 SCS Correlation Energy    =      -1.4743996841597360 [Eh]
	 SCS Total Energy          =    -311.7906333501303493 [Eh]
	-----------------------------------------------------------

  Dipole Moment: [D]
     X:     0.4879      Y:     0.1733      Z:     1.5050     Total:     1.5916

*** Psi4 exiting successfully. Buy a developer a beer!
