                               Psi4 1.3.2 release

  ==> Input File <==

--------------------------------------------------------------------------
#psi4
#
memory 32 gb

molecule  {
0 1
  O        0.0046959     0.1499148    -0.5404328
  C        1.1976560    -0.1335480     0.2407060
  C       -1.1976650     0.1335420     0.2407060
  C        2.1685060    -0.9330000    -0.6087030
  C        1.7396050     1.2428760     0.6017630
  C       -2.1684770     0.9330430    -0.6087060
  C       -1.7396280    -1.2428760     0.6017520
  H        0.9770690    -0.6943020     1.1616810
  H       -0.9770250     0.6942700     1.1616800
  H        3.1233100    -1.0667870    -0.0912430
  H        1.7482270    -1.9146040    -0.8396080
  H        2.3500500    -0.4054100    -1.5492360
  H        2.6557580     1.1607730     1.1955970
  H        1.0091160     1.8146980     1.1809680
  H        1.9613280     1.7960570    -0.3151090
  H       -3.1232690     1.0668830    -0.0912390
  H       -1.7481500     1.9146270    -0.8396140
  H       -2.3500630     0.4054690    -1.5492390
  H       -2.6557620    -1.1607620     1.1956100
  H       -1.0091260    -1.8147110     1.1809330
  H       -1.9613850    -1.7960460    -0.3151180
units angstrom
no_reorient  #important for SAPT in psi4, default
symmetry c1  #important for SAPT in psi4, default
}

set PROPERTIES_ORIGIN ["COM"]
properties('MP2/aug-cc-pvtz', properties = ['dipole'])
--------------------------------------------------------------------------

    Molecular point group: c1
  Charge       = 0
  Multiplicity = 1
  Basis Set: AUG-CC-PVTZ
    Blend: AUG-CC-PVTZ
  Basis Set: (AUG-CC-PVTZ AUX)
    Blend: AUG-CC-PVTZ-JKFIT

    Orbital Energies [Eh]
    ---------------------

    Doubly Occupied:

       1A    -20.542281     2A    -11.276013     3A    -11.274349
       4A    -11.214995     5A    -11.210933     6A    -11.208480
       7A    -11.205685     8A     -1.355206     9A     -1.068288
      10A     -1.013283    11A     -0.935243    12A     -0.931862
      13A     -0.804076    14A     -0.780908    15A     -0.674613
      16A     -0.632888    17A     -0.617690    18A     -0.580102
      19A     -0.576234    20A     -0.560224    21A     -0.536709
      22A     -0.535759    23A     -0.517617    24A     -0.508188
      25A     -0.504608    26A     -0.483050    27A     -0.468138
      28A     -0.452310    29A     -0.406882

  @DF-RHF Final Energy:  -310.32766027519011

   => Energetics <=

    Nuclear Repulsion Energy =            337.7687835567800789
    One-Electron Energy =               -1090.4396582991323612
    Two-Electron Energy =                 442.3432144671621131
    Total Energy =                       -310.3276602751901123
  Basis Set: (AUG-CC-PVTZ AUX)
    Blend: AUG-CC-PVTZ-RI
    Molecular point group: c1

    Geometry (in Angstrom), charge = 0, multiplicity = 1:

       Center              X                  Y                   Z               Mass
    ------------   -----------------  -----------------  -----------------  -----------------
         O            0.003959858438     0.126424400854    -0.525386748863    15.994914619570
         C            1.196919958438    -0.157038399146     0.255752051137    12.000000000000
         C           -1.198401041562     0.110051600854     0.255752051137    12.000000000000
         C            2.167769958438    -0.956490399146    -0.593656948863    12.000000000000
         C            1.738868958438     1.219385600854     0.616809051137    12.000000000000
         C           -2.169213041562     0.909552600854    -0.593659948863    12.000000000000
         C           -1.740364041562    -1.266366399146     0.616798051137    12.000000000000
         H            0.976332958438    -0.717792399146     1.176727051137     1.007825032230
         H           -0.977761041562     0.670779600854     1.176726051137     1.007825032230
         H            3.122573958438    -1.090277399146    -0.076196948863     1.007825032230
         H            1.747490958438    -1.938094399146    -0.824561948863     1.007825032230
         H            2.349313958438    -0.428900399146    -1.534189948863     1.007825032230
         H            2.655021958438     1.137282600854     1.210643051137     1.007825032230
         H            1.008379958438     1.791207600854     1.196014051137     1.007825032230
         H            1.960591958438     1.772566600854    -0.300062948863     1.007825032230
         H           -3.124005041562     1.043392600854    -0.076192948863     1.007825032230
         H           -1.748886041562     1.891136600854    -0.824567948863     1.007825032230
         H           -2.350799041562     0.381978600854    -1.534192948863     1.007825032230
         H           -2.656498041562    -1.184252399146     1.210656051137     1.007825032230
         H           -1.009862041562    -1.838201399146     1.195979051137     1.007825032230
         H           -1.962121041562    -1.819536399146    -0.300071948863     1.007825032230

  Basis Set: AUG-CC-PVTZ
    Blend: AUG-CC-PVTZ
  Basis Set: (AUG-CC-PVTZ AUX)
    Blend: AUG-CC-PVTZ-JKFIT
	 Reference Energy          =    -310.3276602751901123 [Eh]
	 Singles Energy            =      -0.0000000000000000 [Eh]
	 Same-Spin Energy          =      -0.3188295642159306 [Eh]
	 Opposite-Spin Energy      =      -1.1364130036121027 [Eh]
	 Correlation Energy        =      -1.4552425678280334 [Eh]
	 Total Energy              =    -311.7829028430181211 [Eh]

	 ================> DF-SCS-MP2 Energies <==================
	-----------------------------------------------------------
	 SCS Same-Spin Scale       =       0.3333333333333333 [-]
	 SCS Opposite-Spin Scale   =       1.2000000000000000 [-]
	 SCS Same-Spin Energy      =      -0.1062765214053102 [Eh]
	 SCS Opposite-Spin Energy  =      -1.3636956043345232 [Eh]
	 SCS Correlation Energy    =      -1.4699721257398335 [Eh]
	 SCS Total Energy          =    -311.7976324009299560 [Eh]
	-----------------------------------------------------------

  Dipole Moment: [D]
     X:     0.0147      Y:    -0.3336      Z:     1.2876     Total:     1.3302

*** Psi4 exiting successfully. Buy a developer a beer!
