                               Psi4 1.3.2 release

  ==> Input File <==

--------------------------------------------------------------------------
#psi4
#
memory 32 gb

molecule  {
0 1
  O       -0.0000080    -0.0000480    -0.5363970
  C        1.2109522    -0.1350318     0.2195561
  C       -1.1976650     0.1335420     0.2407060
  C        2.1685060    -0.9330000    -0.6087030
  C        1.7396050     1.2428760     0.6017630
  C       -2.1684770     0.9330430    -0.6087060
  C       -1.7396280    -1.2428760     0.6017520
  H        0.9770690    -0.6943020     1.1616810
  H       -0.9770250     0.6942700     1.1616800
  H        3.1233100    -1.0667870    -0.0912430
  H        1.7482270    -1.9146040    -0.8396080
  H        2.3500500    -0.4054100    -1.5492360
  H        2.6557580     1.1607730     1.1955970
  H        1.0091160     1.8146980     1.1809680
  H        1.9613280     1.7960570    -0.3151090
  H       -3.1232690     1.0668830    -0.0912390
  H       -1.7481500     1.9146270    -0.8396140
  H       -2.3500630     0.4054690    -1.5492390
  H       -2.6557620    -1.1607620     1.1956100
  H       -1.0091260    -1.8147110     1.1809330
  H       -1.9613850    -1.7960460    -0.3151180
units angstrom
no_reorient  #important for SAPT in psi4, default
symmetry c1  #important for SAPT in psi4, default
}

set PROPERTIES_ORIGIN ["COM"]
properties('MP2/aug-cc-pvtz', properties = ['dipole'])
--------------------------------------------------------------------------

    Molecular point group: c1
  Charge       = 0
  Multiplicity = 1
  Basis Set: AUG-CC-PVTZ
    Blend: AUG-CC-PVTZ
  Basis Set: (AUG-CC-PVTZ AUX)
    Blend: AUG-CC-PVTZ-JKFIT

    Orbital Energies [Eh]
    ---------------------

    Doubly Occupied:

       1A    -20.540599     2A    -11.275954     3A    -11.275098
       4A    -11.211391     5A    -11.210984     6A    -11.208328
       7A    -11.208315     8A     -1.359019     9A     -1.070829
      10A     -1.013629    11A     -0.937032    12A     -0.932376
      13A     -0.806572    14A     -0.777082    15A     -0.675292
      16A     -0.633040    17A     -0.621434    18A     -0.580324
      19A     -0.576367    20A     -0.561664    21A     -0.536618
      22A     -0.535945    23A     -0.516475    24A     -0.510240
      25A     -0.505402    26A     -0.483673    27A     -0.471973
      28A     -0.448309    29A     -0.405939

  @DF-RHF Final Energy:  -310.33226773565156

   => Energetics <=

    Nuclear Repulsion Energy =            338.1165418812888106
    One-Electron Energy =               -1091.1178121216000818
    Two-Electron Energy =                 442.6690025046596588
    Total Energy =                       -310.3322677356515555
  Basis Set: (AUG-CC-PVTZ AUX)
    Blend: AUG-CC-PVTZ-RI
    Molecular point group: c1

    Geometry (in Angstrom), charge = 0, multiplicity = 1:

       Center              X                  Y                   Z               Mass
    ------------   -----------------  -----------------  -----------------  -----------------
         O           -0.001569822501     0.000128027003    -0.519497489042    15.994914619570
         C            1.209390377499    -0.134855772997     0.236455610958    12.000000000000
         C           -1.199226822501     0.133718027003     0.257605510958    12.000000000000
         C            2.166944177499    -0.932823972997    -0.591803489042    12.000000000000
         C            1.738043177499     1.243052027003     0.618662510958    12.000000000000
         C           -2.170038822501     0.933219027003    -0.591806489042    12.000000000000
         C           -1.741189822501    -1.242699972997     0.618651510958    12.000000000000
         H            0.975507177499    -0.694125972997     1.178580510958     1.007825032230
         H           -0.978586822501     0.694446027003     1.178579510958     1.007825032230
         H            3.121748177499    -1.066610972997    -0.074343489042     1.007825032230
         H            1.746665177499    -1.914427972997    -0.822708489042     1.007825032230
         H            2.348488177499    -0.405233972997    -1.532336489042     1.007825032230
         H            2.654196177499     1.160949027003     1.212496510958     1.007825032230
         H            1.007554177499     1.814874027003     1.197867510958     1.007825032230
         H            1.959766177499     1.796233027003    -0.298209489042     1.007825032230
         H           -3.124830822501     1.067059027003    -0.074339489042     1.007825032230
         H           -1.749711822501     1.914803027003    -0.822714489042     1.007825032230
         H           -2.351624822501     0.405645027003    -1.532339489042     1.007825032230
         H           -2.657323822501    -1.160585972997     1.212509510958     1.007825032230
         H           -1.010687822501    -1.814534972997     1.197832510958     1.007825032230
         H           -1.962946822501    -1.795869972997    -0.298218489042     1.007825032230

  Basis Set: AUG-CC-PVTZ
    Blend: AUG-CC-PVTZ
  Basis Set: (AUG-CC-PVTZ AUX)
    Blend: AUG-CC-PVTZ-JKFIT
	 Reference Energy          =    -310.3322677356515555 [Eh]
	 Singles Energy            =      -0.0000000000000000 [Eh]
	 Same-Spin Energy          =      -0.3185882369394386 [Eh]
	 Opposite-Spin Energy      =      -1.1354531687214116 [Eh]
	 Correlation Energy        =      -1.4540414056608502 [Eh]
	 Total Energy              =    -311.7863091413124152 [Eh]

	 ================> DF-SCS-MP2 Energies <==================
	-----------------------------------------------------------
	 SCS Same-Spin Scale       =       0.3333333333333333 [-]
	 SCS Opposite-Spin Scale   =       1.2000000000000000 [-]
	 SCS Same-Spin Energy      =      -0.1061960789798129 [Eh]
	 SCS Opposite-Spin Energy  =      -1.3625438024656937 [Eh]
	 SCS Correlation Energy    =      -1.4687398814455066 [Eh]
	 SCS Total Energy          =    -311.8010076170970706 [Eh]
	-----------------------------------------------------------

  Dipole Moment: [D]
     X:     0.0293      Y:    -0.0090      Z:     1.2540     Total:     1.2544

*** Psi4 exiting successfully. Buy a developer a beer!
