                               Psi4 1.3.2 release

  ==> Input File <==

--------------------------------------------------------------------------
#psi4
#
memory 32 gb

molecule  {
0 1
  O       -0.0000080    -0.0000480    -0.5363970
  C        1.0306078    -0.1149276     0.1323170
  C       -1.1976650     0.1335420     0.2407060
  C        2.1685060    -0.9330000    -0.6087030
  C        1.7396050     1.2428760     0.6017630
  C       -2.1684770     0.9330430    -0.6087060
  C       -1.7396280    -1.2428760     0.6017520
  H        0.9770690    -0.6943020     1.1616810
  H       -0.9770250     0.6942700     1.1616800
  H        3.1233100    -1.0667870    -0.0912430
  H        1.7482270    -1.9146040    -0.8396080
  H        2.3500500    -0.4054100    -1.5492360
  H        2.6557580     1.1607730     1.1955970
  H        1.0091160     1.8146980     1.1809680
  H        1.9613280     1.7960570    -0.3151090
  H       -3.1232690     1.0668830    -0.0912390
  H       -1.7481500     1.9146270    -0.8396140
  H       -2.3500630     0.4054690    -1.5492390
  H       -2.6557620    -1.1607620     1.1956100
  H       -1.0091260    -1.8147110     1.1809330
  H       -1.9613850    -1.7960460    -0.3151180
units angstrom
no_reorient  #important for SAPT in psi4, default
symmetry c1  #important for SAPT in psi4, default
}

set PROPERTIES_ORIGIN ["COM"]
properties('MP2/aug-cc-pvtz', properties = ['dipole'])
--------------------------------------------------------------------------

    Molecular point group: c1
  Charge       = 0
  Multiplicity = 1
  Basis Set: AUG-CC-PVTZ
    Blend: AUG-CC-PVTZ
  Basis Set: (AUG-CC-PVTZ AUX)
    Blend: AUG-CC-PVTZ-JKFIT

    Orbital Energies [Eh]
    ---------------------

    Doubly Occupied:

       1A    -20.562772     2A    -11.290459     3A    -11.280206
       4A    -11.219399     5A    -11.217713     6A    -11.202480
       7A    -11.201976     8A     -1.452011     9A     -1.079168
      10A     -0.997501    11A     -0.943654    12A     -0.918044
      13A     -0.837523    14A     -0.782585    15A     -0.695863
      16A     -0.649751    17A     -0.638707    18A     -0.593740
      19A     -0.572910    20A     -0.561762    21A     -0.546414
      22A     -0.537637    23A     -0.526522    24A     -0.523275
      25A     -0.511194    26A     -0.483142    27A     -0.479677
      28A     -0.414966    29A     -0.380815

  @DF-RHF Final Energy:  -310.29249743660313

   => Energetics <=

    Nuclear Repulsion Energy =            340.7411294113951499
    One-Electron Energy =               -1095.8635196152829394
    Two-Electron Energy =                 444.8298927672846617
    Total Energy =                       -310.2924974366031279
  Basis Set: (AUG-CC-PVTZ AUX)
    Blend: AUG-CC-PVTZ-RI
    Molecular point group: c1

    Geometry (in Angstrom), charge = 0, multiplicity = 1:

       Center              X                  Y                   Z               Mass
    ------------   -----------------  -----------------  -----------------  -----------------
         O            0.019625458219    -0.002234753114    -0.509244566222    15.994914619570
         C            1.050241258219    -0.117114353114     0.159469433778    12.000000000000
         C           -1.178031541781     0.131355246886     0.267858433778    12.000000000000
         C            2.188139458219    -0.935186753114    -0.581550566222    12.000000000000
         C            1.759238458219     1.240689246886     0.628915433778    12.000000000000
         C           -2.148843541781     0.930856246886    -0.581553566222    12.000000000000
         C           -1.719994541781    -1.245062753114     0.628904433778    12.000000000000
         H            0.996702458219    -0.696488753114     1.188833433778     1.007825032230
         H           -0.957391541781     0.692083246886     1.188832433778     1.007825032230
         H            3.142943458219    -1.068973753114    -0.064090566222     1.007825032230
         H            1.767860458219    -1.916790753114    -0.812455566222     1.007825032230
         H            2.369683458219    -0.407596753114    -1.522083566222     1.007825032230
         H            2.675391458219     1.158586246886     1.222749433778     1.007825032230
         H            1.028749458219     1.812511246886     1.208120433778     1.007825032230
         H            1.980961458219     1.793870246886    -0.287956566222     1.007825032230
         H           -3.103635541781     1.064696246886    -0.064086566222     1.007825032230
         H           -1.728516541781     1.912440246886    -0.812461566222     1.007825032230
         H           -2.330429541781     0.403282246886    -1.522086566222     1.007825032230
         H           -2.636128541781    -1.162948753114     1.222762433778     1.007825032230
         H           -0.989492541781    -1.816897753114     1.208085433778     1.007825032230
         H           -1.941751541781    -1.798232753114    -0.287965566222     1.007825032230

  Basis Set: AUG-CC-PVTZ
    Blend: AUG-CC-PVTZ
  Basis Set: (AUG-CC-PVTZ AUX)
    Blend: AUG-CC-PVTZ-JKFIT
	 Reference Energy          =    -310.2924974366031279 [Eh]
	 Singles Energy            =      -0.0000000000000000 [Eh]
	 Same-Spin Energy          =      -0.3191949878522441 [Eh]
	 Opposite-Spin Energy      =      -1.1346953581388277 [Eh]
	 Correlation Energy        =      -1.4538903459910719 [Eh]
	 Total Energy              =    -311.7463877825941836 [Eh]

	 ================> DF-SCS-MP2 Energies <==================
	-----------------------------------------------------------
	 SCS Same-Spin Scale       =       0.3333333333333333 [-]
	 SCS Opposite-Spin Scale   =       1.2000000000000000 [-]
	 SCS Same-Spin Energy      =      -0.1063983292840814 [Eh]
	 SCS Opposite-Spin Energy  =      -1.3616344297665932 [Eh]
	 SCS Correlation Energy    =      -1.4680327590506745 [Eh]
	 SCS Total Energy          =    -311.7605301956538142 [Eh]
	-----------------------------------------------------------

  Dipole Moment: [D]
     X:    -1.0274      Y:    -0.0282      Z:     0.9814     Total:     1.4211

*** Psi4 exiting successfully. Buy a developer a beer!
