                               Psi4 1.3.2 release

  ==> Input File <==

--------------------------------------------------------------------------
#psi4
#
memory 32 gb

molecule  {
0 1
  O       -0.0261664    -0.0253617    -0.5707484
  C        1.1976560    -0.1335480     0.2407060
  C       -1.1976650     0.1335420     0.2407060
  C        2.1685060    -0.9330000    -0.6087030
  C        1.7396050     1.2428760     0.6017630
  C       -2.1684770     0.9330430    -0.6087060
  C       -1.7396280    -1.2428760     0.6017520
  H        0.9770690    -0.6943020     1.1616810
  H       -0.9770250     0.6942700     1.1616800
  H        3.1233100    -1.0667870    -0.0912430
  H        1.7482270    -1.9146040    -0.8396080
  H        2.3500500    -0.4054100    -1.5492360
  H        2.6557580     1.1607730     1.1955970
  H        1.0091160     1.8146980     1.1809680
  H        1.9613280     1.7960570    -0.3151090
  H       -3.1232690     1.0668830    -0.0912390
  H       -1.7481500     1.9146270    -0.8396140
  H       -2.3500630     0.4054690    -1.5492390
  H       -2.6557620    -1.1607620     1.1956100
  H       -1.0091260    -1.8147110     1.1809330
  H       -1.9613850    -1.7960460    -0.3151180
units angstrom
no_reorient  #important for SAPT in psi4, default
symmetry c1  #important for SAPT in psi4, default
}

set PROPERTIES_ORIGIN ["COM"]
properties('MP2/aug-cc-pvtz', properties = ['dipole'])
--------------------------------------------------------------------------

    Molecular point group: c1
  Charge       = 0
  Multiplicity = 1
  Basis Set: AUG-CC-PVTZ
    Blend: AUG-CC-PVTZ
  Basis Set: (AUG-CC-PVTZ AUX)
    Blend: AUG-CC-PVTZ-JKFIT

    Orbital Energies [Eh]
    ---------------------

    Doubly Occupied:

       1A    -20.542799     2A    -11.278635     3A    -11.272905
       4A    -11.214368     5A    -11.209684     6A    -11.209362
       7A    -11.206554     8A     -1.350089     9A     -1.067337
      10A     -1.013414    11A     -0.936055    12A     -0.931079
      13A     -0.801591    14A     -0.781539    15A     -0.673788
      16A     -0.630001    17A     -0.617745    18A     -0.579492
      19A     -0.576504    20A     -0.559316    21A     -0.537616
      22A     -0.534963    23A     -0.515676    24A     -0.508062
      25A     -0.504361    26A     -0.483322    27A     -0.468020
      28A     -0.453625    29A     -0.409106

  @DF-RHF Final Energy:  -310.32976194614139

   => Energetics <=

    Nuclear Repulsion Energy =            337.4035143566821375
    One-Electron Energy =               -1089.7325345796757574
    Two-Electron Energy =                 441.9992582768522880
    Total Energy =                       -310.3297619461413888
  Basis Set: (AUG-CC-PVTZ AUX)
    Blend: AUG-CC-PVTZ-RI
    Molecular point group: c1

    Geometry (in Angstrom), charge = 0, multiplicity = 1:

       Center              X                  Y                   Z               Mass
    ------------   -----------------  -----------------  -----------------  -----------------
         O           -0.022067786651    -0.021394605976    -0.550953335847    15.994914619570
         C            1.201754613349    -0.129580905976     0.260501064153    12.000000000000
         C           -1.193566386651     0.137509094024     0.260501064153    12.000000000000
         C            2.172604613349    -0.929032905976    -0.588907935847    12.000000000000
         C            1.743703613349     1.246843094024     0.621558064153    12.000000000000
         C           -2.164378386651     0.937010094024    -0.588910935847    12.000000000000
         C           -1.735529386651    -1.238908905976     0.621547064153    12.000000000000
         H            0.981167613349    -0.690334905976     1.181476064153     1.007825032230
         H           -0.972926386651     0.698237094024     1.181475064153     1.007825032230
         H            3.127408613349    -1.062819905976    -0.071447935847     1.007825032230
         H            1.752325613349    -1.910636905976    -0.819812935847     1.007825032230
         H            2.354148613349    -0.401442905976    -1.529440935847     1.007825032230
         H            2.659856613349     1.164740094024     1.215392064153     1.007825032230
         H            1.013214613349     1.818665094024     1.200763064153     1.007825032230
         H            1.965426613349     1.800024094024    -0.295313935847     1.007825032230
         H           -3.119170386651     1.070850094024    -0.071443935847     1.007825032230
         H           -1.744051386651     1.918594094024    -0.819818935847     1.007825032230
         H           -2.345964386651     0.409436094024    -1.529443935847     1.007825032230
         H           -2.651663386651    -1.156794905976     1.215405064153     1.007825032230
         H           -1.005027386651    -1.810743905976     1.200728064153     1.007825032230
         H           -1.957286386651    -1.792078905976    -0.295322935847     1.007825032230

  Basis Set: AUG-CC-PVTZ
    Blend: AUG-CC-PVTZ
  Basis Set: (AUG-CC-PVTZ AUX)
    Blend: AUG-CC-PVTZ-JKFIT
	 Reference Energy          =    -310.3297619461413888 [Eh]
	 Singles Energy            =      -0.0000000000000000 [Eh]
	 Same-Spin Energy          =      -0.3188069741456429 [Eh]
	 Opposite-Spin Energy      =      -1.1367221901331241 [Eh]
	 Correlation Energy        =      -1.4555291642787671 [Eh]
	 Total Energy              =    -311.7852911104201326 [Eh]

	 ================> DF-SCS-MP2 Energies <==================
	-----------------------------------------------------------
	 SCS Same-Spin Scale       =       0.3333333333333333 [-]
	 SCS Opposite-Spin Scale   =       1.2000000000000000 [-]
	 SCS Same-Spin Energy      =      -0.1062689913818810 [Eh]
	 SCS Opposite-Spin Energy  =      -1.3640666281597489 [Eh]
	 SCS Correlation Energy    =      -1.4703356195416299 [Eh]
	 SCS Total Energy          =    -311.8000975656830178 [Eh]
	-----------------------------------------------------------

  Dipole Moment: [D]
     X:     0.1654      Y:     0.0591      Z:     1.3611     Total:     1.3724

*** Psi4 exiting successfully. Buy a developer a beer!
