                               Psi4 1.4a3.dev225

  ==> Input File <==

--------------------------------------------------------------------------
#psi4
#
memory 32 gb

molecule  {
0 1
  O        0.0000010    -0.0000260    -0.5363470
  C        1.2143383    -0.1354186     0.2514981
  C       -1.1976320     0.1335480     0.2406540
  C        2.1684970    -0.9329740    -0.6087930
  C        1.7395900     1.2428280     0.6018540
  C       -2.1684690     0.9329960    -0.6088010
  C       -1.7396210    -1.2428230     0.6018460
  H        0.9770390    -0.6943630     1.1616340
  H       -0.9770220     0.6943450     1.1616300
  H        3.1233080    -1.0666500    -0.0913170
  H        1.7483500    -1.9146320    -0.8396930
  H        2.3499780    -0.4053470    -1.5493110
  H        2.6556380     1.1606780     1.1958460
  H        1.0090380     1.8146880     1.1809540
  H        1.9615120     1.7960330    -0.3149540
  H       -3.1232800     1.0666960    -0.0913310
  H       -1.7482940     1.9146450    -0.8396930
  H       -2.3499590     0.4053800    -1.5493220
  H       -2.6556690    -1.1606550     1.1958380
  H       -1.0090800    -1.8146970     1.1809440
  H       -1.9615540    -1.7960230    -0.3149630
units angstrom
no_reorient  #important for SAPT in psi4, default
symmetry c1  #important for SAPT in psi4, default
}

set PROPERTIES_ORIGIN ["COM"]
properties('MP2/aug-cc-pvtz', properties = ['dipole'])
--------------------------------------------------------------------------

    Molecular point group: c1
  Charge       = 0
  Multiplicity = 1
  Basis Set: AUG-CC-PVTZ
    Blend: AUG-CC-PVTZ
  Basis Set: (AUG-CC-PVTZ AUX)
    Blend: AUG-CC-PVTZ-JKFIT

    Orbital Energies [Eh]
    ---------------------

    Doubly Occupied:

       1A    -20.539254     2A    -11.275178     3A    -11.273590
       4A    -11.212079     5A    -11.210560     6A    -11.208978
       7A    -11.207516     8A     -1.352958     9A     -1.069418
      10A     -1.013141    11A     -0.936566    12A     -0.931664
      13A     -0.804981    14A     -0.780158    15A     -0.674766
      16A     -0.631615    17A     -0.618983    18A     -0.580172
      19A     -0.575843    20A     -0.559977    21A     -0.537388
      22A     -0.535344    23A     -0.515470    24A     -0.508759
      25A     -0.504966    26A     -0.484631    27A     -0.471273
      28A     -0.449963    29A     -0.407122

  @DF-RHF Final Energy:  -310.33216071897812

   => Energetics <=

    Nuclear Repulsion Energy =            337.8424472649436439
    One-Electron Energy =               -1090.6045914798762624
    Two-Electron Energy =                 442.4299834959545024
    Total Energy =                       -310.3321607189781162
  Basis Set: (AUG-CC-PVTZ AUX)
    Blend: AUG-CC-PVTZ-RI
    Molecular point group: c1

    Geometry (in Angstrom), charge = 0, multiplicity = 1:

       Center              X                  Y                   Z               Mass
    ------------   -----------------  -----------------  -----------------  -----------------
         O           -0.001962289597     0.000193777861    -0.523205212102    15.994914619570
         C            1.212375010403    -0.135198822139     0.264639887898    12.000000000000
         C           -1.199595289597     0.133767777861     0.253795787898    12.000000000000
         C            2.166533710403    -0.932754222139    -0.595651212102    12.000000000000
         C            1.737626710403     1.243047777861     0.614995787898    12.000000000000
         C           -2.170432289597     0.933215777861    -0.595659212102    12.000000000000
         C           -1.741584289597    -1.242603222139     0.614987787898    12.000000000000
         H            0.975075710403    -0.694143222139     1.174775787898     1.007825032230
         H           -0.978985289597     0.694564777861     1.174771787898     1.007825032230
         H            3.121344710403    -1.066430222139    -0.078175212102     1.007825032230
         H            1.746386710403    -1.914412222139    -0.826551212102     1.007825032230
         H            2.348014710403    -0.405127222139    -1.536169212102     1.007825032230
         H            2.653674710403     1.160897777861     1.208987787898     1.007825032230
         H            1.007074710403     1.814907777861     1.194095787898     1.007825032230
         H            1.959548710403     1.796252777861    -0.301812212102     1.007825032230
         H           -3.125243289597     1.066915777861    -0.078189212102     1.007825032230
         H           -1.750257289597     1.914864777861    -0.826551212102     1.007825032230
         H           -2.351922289597     0.405599777861    -1.536180212102     1.007825032230
         H           -2.657632289597    -1.160435222139     1.208979787898     1.007825032230
         H           -1.011043289597    -1.814477222139     1.194085787898     1.007825032230
         H           -1.963517289597    -1.795803222139    -0.301821212102     1.007825032230

  Basis Set: AUG-CC-PVTZ
    Blend: AUG-CC-PVTZ
  Basis Set: (AUG-CC-PVTZ AUX)
    Blend: AUG-CC-PVTZ-JKFIT
	 Reference Energy          =    -310.3321607189781162 [Eh]
	 Singles Energy            =      -0.0000000000000000 [Eh]
	 Same-Spin Energy          =      -0.3185993181981080 [Eh]
	 Opposite-Spin Energy      =      -1.1357963866930660 [Eh]
	 Correlation Energy        =      -1.4543957048911740 [Eh]
	 Total Energy              =    -311.7865564238692855 [Eh]

	 ================> DF-SCS-MP2 Energies <==================
	-----------------------------------------------------------
	 SCS Same-Spin Scale       =       0.3333333333333333 [-]
	 SCS Opposite-Spin Scale   =       1.2000000000000000 [-]
	 SCS Same-Spin Energy      =      -0.1061997727327027 [Eh]
	 SCS Opposite-Spin Energy  =      -1.3629556640316791 [Eh]
	 SCS Correlation Energy    =      -1.4691554367643818 [Eh]
	 SCS Total Energy          =    -311.8013161557424837 [Eh]
	-----------------------------------------------------------

  Dipole Moment: [D]
     X:     0.0837      Y:     0.0024      Z:     1.3021     Total:     1.3048

*** Psi4 exiting successfully. Buy a developer a beer!
