                               Psi4 1.4a3.dev225

  ==> Input File <==

--------------------------------------------------------------------------
#psi4
#
memory 32 gb

molecule  {
0 1
  O        0.0000010    -0.0000260    -0.5363470
  C        1.1809277    -0.1316934     0.2298219
  C       -1.1976320     0.1335480     0.2406540
  C        2.1684970    -0.9329740    -0.6087930
  C        1.7395900     1.2428280     0.6018540
  C       -2.1684690     0.9329960    -0.6088010
  C       -1.7396210    -1.2428230     0.6018460
  H        0.9770390    -0.6943630     1.1616340
  H       -0.9770220     0.6943450     1.1616300
  H        3.1233080    -1.0666500    -0.0913170
  H        1.7483500    -1.9146320    -0.8396930
  H        2.3499780    -0.4053470    -1.5493110
  H        2.6556380     1.1606780     1.1958460
  H        1.0090380     1.8146880     1.1809540
  H        1.9615120     1.7960330    -0.3149540
  H       -3.1232800     1.0666960    -0.0913310
  H       -1.7482940     1.9146450    -0.8396930
  H       -2.3499590     0.4053800    -1.5493220
  H       -2.6556690    -1.1606550     1.1958380
  H       -1.0090800    -1.8146970     1.1809440
  H       -1.9615540    -1.7960230    -0.3149630
units angstrom
no_reorient  #important for SAPT in psi4, default
symmetry c1  #important for SAPT in psi4, default
}

set PROPERTIES_ORIGIN ["COM"]
properties('MP2/aug-cc-pvtz', properties = ['dipole'])
--------------------------------------------------------------------------

    Molecular point group: c1
  Charge       = 0
  Multiplicity = 1
  Basis Set: AUG-CC-PVTZ
    Blend: AUG-CC-PVTZ
  Basis Set: (AUG-CC-PVTZ AUX)
    Blend: AUG-CC-PVTZ-JKFIT

    Orbital Energies [Eh]
    ---------------------

    Doubly Occupied:

       1A    -20.543430     2A    -11.276292     3A    -11.274831
       4A    -11.211977     5A    -11.210450     6A    -11.209170
       7A    -11.207726     8A     -1.366917     9A     -1.069073
      10A     -1.011851    11A     -0.935864    12A     -0.930830
      13A     -0.808874    14A     -0.780046    15A     -0.678527
      16A     -0.631623    17A     -0.622663    18A     -0.579759
      19A     -0.576806    20A     -0.560571    21A     -0.537117
      22A     -0.534975    23A     -0.518503    24A     -0.512079
      25A     -0.506329    26A     -0.481998    27A     -0.470510
      28A     -0.449930    29A     -0.406152

  @DF-RHF Final Energy:  -310.33317089501105

   => Energetics <=

    Nuclear Repulsion Energy =            338.3195639546693769
    One-Electron Energy =               -1091.4957178262343405
    Two-Electron Energy =                 442.8429829765539694
    Total Energy =                       -310.3331708950110510
  Basis Set: (AUG-CC-PVTZ AUX)
    Blend: AUG-CC-PVTZ-RI
    Molecular point group: c1

    Geometry (in Angstrom), charge = 0, multiplicity = 1:

       Center              X                  Y                   Z               Mass
    ------------   -----------------  -----------------  -----------------  -----------------
         O            0.001964347693    -0.000244032571    -0.520657680025    15.994914619570
         C            1.182891047693    -0.131911432571     0.245511219975    12.000000000000
         C           -1.195668652307     0.133329967429     0.256343319975    12.000000000000
         C            2.170460347693    -0.933192032571    -0.593103680025    12.000000000000
         C            1.741553347693     1.242609967429     0.617543319975    12.000000000000
         C           -2.166505652307     0.932777967429    -0.593111680025    12.000000000000
         C           -1.737657652307    -1.243041032571     0.617535319975    12.000000000000
         H            0.979002347693    -0.694581032571     1.177323319975     1.007825032230
         H           -0.975058652307     0.694126967429     1.177319319975     1.007825032230
         H            3.125271347693    -1.066868032571    -0.075627680025     1.007825032230
         H            1.750313347693    -1.914850032571    -0.824003680025     1.007825032230
         H            2.351941347693    -0.405565032571    -1.533621680025     1.007825032230
         H            2.657601347693     1.160459967429     1.211535319975     1.007825032230
         H            1.011001347693     1.814469967429     1.196643319975     1.007825032230
         H            1.963475347693     1.795814967429    -0.299264680025     1.007825032230
         H           -3.121316652307     1.066477967429    -0.075641680025     1.007825032230
         H           -1.746330652307     1.914426967429    -0.824003680025     1.007825032230
         H           -2.347995652307     0.405161967429    -1.533632680025     1.007825032230
         H           -2.653705652307    -1.160873032571     1.211527319975     1.007825032230
         H           -1.007116652307    -1.814915032571     1.196633319975     1.007825032230
         H           -1.959590652307    -1.796241032571    -0.299273680025     1.007825032230

  Basis Set: AUG-CC-PVTZ
    Blend: AUG-CC-PVTZ
  Basis Set: (AUG-CC-PVTZ AUX)
    Blend: AUG-CC-PVTZ-JKFIT
	 Reference Energy          =    -310.3331708950110510 [Eh]
	 Singles Energy            =      -0.0000000000000000 [Eh]
	 Same-Spin Energy          =      -0.3183989927228679 [Eh]
	 Opposite-Spin Energy      =      -1.1350894589505958 [Eh]
	 Correlation Energy        =      -1.4534884516734636 [Eh]
	 Total Energy              =    -311.7866593466845302 [Eh]

	 ================> DF-SCS-MP2 Energies <==================
	-----------------------------------------------------------
	 SCS Same-Spin Scale       =       0.3333333333333333 [-]
	 SCS Opposite-Spin Scale   =       1.2000000000000000 [-]
	 SCS Same-Spin Energy      =      -0.1061329975742893 [Eh]
	 SCS Opposite-Spin Energy  =      -1.3621073507407149 [Eh]
	 SCS Correlation Energy    =      -1.4682403483150042 [Eh]
	 SCS Total Energy          =    -311.8014112433260721 [Eh]
	-----------------------------------------------------------

  Dipole Moment: [D]
     X:    -0.0862      Y:    -0.0024      Z:     1.2584     Total:     1.2614

*** Psi4 exiting successfully. Buy a developer a beer!
