                               Psi4 1.3.2 release

  ==> Input File <==

--------------------------------------------------------------------------
#psi4
#
memory 32 gb

molecule  {
0 1
  O       -0.0000080    -0.0000480    -0.5363970
  C        1.1103668    -0.1238077     0.3624143
  C       -1.1976650     0.1335420     0.2407060
  C        2.1685060    -0.9330000    -0.6087030
  C        1.7396050     1.2428760     0.6017630
  C       -2.1684770     0.9330430    -0.6087060
  C       -1.7396280    -1.2428760     0.6017520
  H        0.9770690    -0.6943020     1.1616810
  H       -0.9770250     0.6942700     1.1616800
  H        3.1233100    -1.0667870    -0.0912430
  H        1.7482270    -1.9146040    -0.8396080
  H        2.3500500    -0.4054100    -1.5492360
  H        2.6557580     1.1607730     1.1955970
  H        1.0091160     1.8146980     1.1809680
  H        1.9613280     1.7960570    -0.3151090
  H       -3.1232690     1.0668830    -0.0912390
  H       -1.7481500     1.9146270    -0.8396140
  H       -2.3500630     0.4054690    -1.5492390
  H       -2.6557620    -1.1607620     1.1956100
  H       -1.0091260    -1.8147110     1.1809330
  H       -1.9613850    -1.7960460    -0.3151180
units angstrom
no_reorient  #important for SAPT in psi4, default
symmetry c1  #important for SAPT in psi4, default
}

set PROPERTIES_ORIGIN ["COM"]
properties('MP2/aug-cc-pvtz', properties = ['dipole'])
--------------------------------------------------------------------------

    Molecular point group: c1
  Charge       = 0
  Multiplicity = 1
  Basis Set: AUG-CC-PVTZ
    Blend: AUG-CC-PVTZ
  Basis Set: (AUG-CC-PVTZ AUX)
    Blend: AUG-CC-PVTZ-JKFIT

    Orbital Energies [Eh]
    ---------------------

    Doubly Occupied:

       1A    -20.547318     2A    -11.275018     3A    -11.272432
       4A    -11.213201     5A    -11.212631     6A    -11.208831
       7A    -11.207933     8A     -1.365251     9A     -1.062133
      10A     -1.008542    11A     -0.936079    12A     -0.919374
      13A     -0.816545    14A     -0.794442    15A     -0.686100
      16A     -0.625830    17A     -0.617078    18A     -0.578801
      19A     -0.576125    20A     -0.554352    21A     -0.538057
      22A     -0.535521    23A     -0.520560    24A     -0.517881
      25A     -0.505694    26A     -0.491263    27A     -0.463270
      28A     -0.443198    29A     -0.400065

  @DF-RHF Final Energy:  -310.30745369154931

   => Energetics <=

    Nuclear Repulsion Energy =            337.8707745699359748
    One-Electron Energy =               -1090.5694069309454335
    Two-Electron Energy =                 442.3911786694601460
    Total Energy =                       -310.3074536915493127
  Basis Set: (AUG-CC-PVTZ AUX)
    Blend: AUG-CC-PVTZ-RI
    Molecular point group: c1

    Geometry (in Angstrom), charge = 0, multiplicity = 1:

       Center              X                  Y                   Z               Mass
    ------------   -----------------  -----------------  -----------------  -----------------
         O            0.010251646806    -0.001191104338    -0.536287140688    15.994914619570
         C            1.120626446806    -0.124950804338     0.362524159312    12.000000000000
         C           -1.187405353194     0.132398895662     0.240815859312    12.000000000000
         C            2.178765646806    -0.934143104338    -0.608593140688    12.000000000000
         C            1.749864646806     1.241732895662     0.601872859312    12.000000000000
         C           -2.158217353194     0.931899895662    -0.608596140688    12.000000000000
         C           -1.729368353194    -1.244019104338     0.601861859312    12.000000000000
         H            0.987328646806    -0.695445104338     1.161790859312     1.007825032230
         H           -0.966765353194     0.693126895662     1.161789859312     1.007825032230
         H            3.133569646806    -1.067930104338    -0.091133140688     1.007825032230
         H            1.758486646806    -1.915747104338    -0.839498140688     1.007825032230
         H            2.360309646806    -0.406553104338    -1.549126140688     1.007825032230
         H            2.666017646806     1.159629895662     1.195706859312     1.007825032230
         H            1.019375646806     1.813554895662     1.181077859312     1.007825032230
         H            1.971587646806     1.794913895662    -0.314999140688     1.007825032230
         H           -3.113009353194     1.065739895662    -0.091129140688     1.007825032230
         H           -1.737890353194     1.913483895662    -0.839504140688     1.007825032230
         H           -2.339803353194     0.404325895662    -1.549129140688     1.007825032230
         H           -2.645502353194    -1.161905104338     1.195719859312     1.007825032230
         H           -0.998866353194    -1.815854104338     1.181042859312     1.007825032230
         H           -1.951125353194    -1.797189104338    -0.315008140688     1.007825032230

  Basis Set: AUG-CC-PVTZ
    Blend: AUG-CC-PVTZ
  Basis Set: (AUG-CC-PVTZ AUX)
    Blend: AUG-CC-PVTZ-JKFIT
	 Reference Energy          =    -310.3074536915493127 [Eh]
	 Singles Energy            =      -0.0000000000000000 [Eh]
	 Same-Spin Energy          =      -0.3187674119559515 [Eh]
	 Opposite-Spin Energy      =      -1.1372059357943813 [Eh]
	 Correlation Energy        =      -1.4559733477503329 [Eh]
	 Total Energy              =    -311.7634270392996427 [Eh]

	 ================> DF-SCS-MP2 Energies <==================
	-----------------------------------------------------------
	 SCS Same-Spin Scale       =       0.3333333333333333 [-]
	 SCS Opposite-Spin Scale   =       1.2000000000000000 [-]
	 SCS Same-Spin Energy      =      -0.1062558039853172 [Eh]
	 SCS Opposite-Spin Energy  =      -1.3646471229532575 [Eh]
	 SCS Correlation Energy    =      -1.4709029269385747 [Eh]
	 SCS Total Energy          =    -311.7783566184878623 [Eh]
	-----------------------------------------------------------

  Dipole Moment: [D]
     X:    -0.2022      Y:     0.0603      Z:     1.3998     Total:     1.4156

*** Psi4 exiting successfully. Buy a developer a beer!
