                               Psi4 1.3.2 release

  ==> Input File <==

--------------------------------------------------------------------------
#psi4
#
memory 32 gb

molecule  {
0 1
  O       -0.0000080    -0.0000480    -0.5363970
  C        1.2486121    -0.1392349     0.1547508
  C       -1.1976650     0.1335420     0.2407060
  C        2.1685060    -0.9330000    -0.6087030
  C        1.7396050     1.2428760     0.6017630
  C       -2.1684770     0.9330430    -0.6087060
  C       -1.7396280    -1.2428760     0.6017520
  H        0.9770690    -0.6943020     1.1616810
  H       -0.9770250     0.6942700     1.1616800
  H        3.1233100    -1.0667870    -0.0912430
  H        1.7482270    -1.9146040    -0.8396080
  H        2.3500500    -0.4054100    -1.5492360
  H        2.6557580     1.1607730     1.1955970
  H        1.0091160     1.8146980     1.1809680
  H        1.9613280     1.7960570    -0.3151090
  H       -3.1232690     1.0668830    -0.0912390
  H       -1.7481500     1.9146270    -0.8396140
  H       -2.3500630     0.4054690    -1.5492390
  H       -2.6557620    -1.1607620     1.1956100
  H       -1.0091260    -1.8147110     1.1809330
  H       -1.9613850    -1.7960460    -0.3151180
units angstrom
no_reorient  #important for SAPT in psi4, default
symmetry c1  #important for SAPT in psi4, default
}

set PROPERTIES_ORIGIN ["COM"]
properties('MP2/aug-cc-pvtz', properties = ['dipole'])
--------------------------------------------------------------------------

    Molecular point group: c1
  Charge       = 0
  Multiplicity = 1
  Basis Set: AUG-CC-PVTZ
    Blend: AUG-CC-PVTZ
  Basis Set: (AUG-CC-PVTZ AUX)
    Blend: AUG-CC-PVTZ-JKFIT

    Orbital Energies [Eh]
    ---------------------

    Doubly Occupied:

       1A    -20.538746     2A    -11.280021     3A    -11.275878
       4A    -11.212371     5A    -11.210196     6A    -11.208401
       7A    -11.208213     8A     -1.357321     9A     -1.077299
      10A     -1.017390    11A     -0.942016    12A     -0.932699
      13A     -0.806906    14A     -0.768453    15A     -0.671917
      16A     -0.638529    17A     -0.623655    18A     -0.581646
      19A     -0.577248    20A     -0.566092    21A     -0.537876
      22A     -0.535502    23A     -0.517647    24A     -0.509696
      25A     -0.506066    26A     -0.490047    27A     -0.468056
      28A     -0.440171    29A     -0.399882

  @DF-RHF Final Energy:  -310.32126159391657

   => Energetics <=

    Nuclear Repulsion Energy =            338.2436313888022710
    One-Electron Energy =               -1091.3299091790295279
    Two-Electron Energy =                 442.7650161963107394
    Total Energy =                       -310.3212615939165744
  Basis Set: (AUG-CC-PVTZ AUX)
    Blend: AUG-CC-PVTZ-RI
    Molecular point group: c1

    Geometry (in Angstrom), charge = 0, multiplicity = 1:

       Center              X                  Y                   Z               Mass
    ------------   -----------------  -----------------  -----------------  -----------------
         O           -0.005995865963     0.000622003442    -0.511881136521    15.994914619570
         C            1.242624234037    -0.138564896558     0.179266663479    12.000000000000
         C           -1.203652865963     0.134212003442     0.265221863479    12.000000000000
         C            2.162518134037    -0.932329996558    -0.584187136521    12.000000000000
         C            1.733617134037     1.243546003442     0.626278863479    12.000000000000
         C           -2.174464865963     0.933713003442    -0.584190136521    12.000000000000
         C           -1.745615865963    -1.242205996558     0.626267863479    12.000000000000
         H            0.971081134037    -0.693631996558     1.186196863479     1.007825032230
         H           -0.983012865963     0.694940003442     1.186195863479     1.007825032230
         H            3.117322134037    -1.066116996558    -0.066727136521     1.007825032230
         H            1.742239134037    -1.913933996558    -0.815092136521     1.007825032230
         H            2.344062134037    -0.404739996558    -1.524720136521     1.007825032230
         H            2.649770134037     1.161443003442     1.220112863479     1.007825032230
         H            1.003128134037     1.815368003442     1.205483863479     1.007825032230
         H            1.955340134037     1.796727003442    -0.290593136521     1.007825032230
         H           -3.129256865963     1.067553003442    -0.066723136521     1.007825032230
         H           -1.754137865963     1.915297003442    -0.815098136521     1.007825032230
         H           -2.356050865963     0.406139003442    -1.524723136521     1.007825032230
         H           -2.661749865963    -1.160091996558     1.220125863479     1.007825032230
         H           -1.015113865963    -1.814040996558     1.205448863479     1.007825032230
         H           -1.967372865963    -1.795375996558    -0.290602136521     1.007825032230

  Basis Set: AUG-CC-PVTZ
    Blend: AUG-CC-PVTZ
  Basis Set: (AUG-CC-PVTZ AUX)
    Blend: AUG-CC-PVTZ-JKFIT
	 Reference Energy          =    -310.3212615939165744 [Eh]
	 Singles Energy            =      -0.0000000000000000 [Eh]
	 Same-Spin Energy          =      -0.3191551616125410 [Eh]
	 Opposite-Spin Energy      =      -1.1360736811677614 [Eh]
	 Correlation Energy        =      -1.4552288427803024 [Eh]
	 Total Energy              =    -311.7764904366968608 [Eh]

	 ================> DF-SCS-MP2 Energies <==================
	-----------------------------------------------------------
	 SCS Same-Spin Scale       =       0.3333333333333333 [-]
	 SCS Opposite-Spin Scale   =       1.2000000000000000 [-]
	 SCS Same-Spin Energy      =      -0.1063850538708470 [Eh]
	 SCS Opposite-Spin Energy  =      -1.3632884174013136 [Eh]
	 SCS Correlation Energy    =      -1.4696734712721606 [Eh]
	 SCS Total Energy          =    -311.7909350651887621 [Eh]
	-----------------------------------------------------------

  Dipole Moment: [D]
     X:     0.1108      Y:    -0.0341      Z:     1.1582     Total:     1.1640

*** Psi4 exiting successfully. Buy a developer a beer!
