                               Psi4 1.3.2 release

  ==> Input File <==

--------------------------------------------------------------------------
#psi4
#
memory 32 gb

molecule  {
0 1
  O       -0.0000080    -0.0000480    -0.5363970
  C        1.2238796    -0.1364745     0.1981759
  C       -1.1976650     0.1335420     0.2407060
  C        2.1685060    -0.9330000    -0.6087030
  C        1.7396050     1.2428760     0.6017630
  C       -2.1684770     0.9330430    -0.6087060
  C       -1.7396280    -1.2428760     0.6017520
  H        0.9770690    -0.6943020     1.1616810
  H       -0.9770250     0.6942700     1.1616800
  H        3.1233100    -1.0667870    -0.0912430
  H        1.7482270    -1.9146040    -0.8396080
  H        2.3500500    -0.4054100    -1.5492360
  H        2.6557580     1.1607730     1.1955970
  H        1.0091160     1.8146980     1.1809680
  H        1.9613280     1.7960570    -0.3151090
  H       -3.1232690     1.0668830    -0.0912390
  H       -1.7481500     1.9146270    -0.8396140
  H       -2.3500630     0.4054690    -1.5492390
  H       -2.6557620    -1.1607620     1.1956100
  H       -1.0091260    -1.8147110     1.1809330
  H       -1.9613850    -1.7960460    -0.3151180
units angstrom
no_reorient  #important for SAPT in psi4, default
symmetry c1  #important for SAPT in psi4, default
}

set PROPERTIES_ORIGIN ["COM"]
properties('MP2/aug-cc-pvtz', properties = ['dipole'])
--------------------------------------------------------------------------

    Molecular point group: c1
  Charge       = 0
  Multiplicity = 1
  Basis Set: AUG-CC-PVTZ
    Blend: AUG-CC-PVTZ
  Basis Set: (AUG-CC-PVTZ AUX)
    Blend: AUG-CC-PVTZ-JKFIT

    Orbital Energies [Eh]
    ---------------------

    Doubly Occupied:

       1A    -20.539911     2A    -11.277145     3A    -11.275313
       4A    -11.211618     5A    -11.210714     6A    -11.208335
       7A    -11.208282     8A     -1.358389     9A     -1.072740
      10A     -1.014777    11A     -0.938617    12A     -0.932672
      13A     -0.806552    14A     -0.774089    15A     -0.674053
      16A     -0.634737    17A     -0.622129    18A     -0.580702
      19A     -0.576538    20A     -0.563135    21A     -0.536987
      22A     -0.535803    23A     -0.516478    24A     -0.510077
      25A     -0.505342    26A     -0.485632    27A     -0.471418
      28A     -0.445747    29A     -0.404521

  @DF-RHF Final Energy:  -310.33006394498335

   => Energetics <=

    Nuclear Repulsion Energy =            338.1575834268072640
    One-Electron Energy =               -1091.1903913409184952
    Two-Electron Energy =                 442.7027439691278801
    Total Energy =                       -310.3300639449833511
  Basis Set: (AUG-CC-PVTZ AUX)
    Blend: AUG-CC-PVTZ-RI
    Molecular point group: c1

    Geometry (in Angstrom), charge = 0, multiplicity = 1:

       Center              X                  Y                   Z               Mass
    ------------   -----------------  -----------------  -----------------  -----------------
         O           -0.003089137057     0.000297582762    -0.516984744866    15.994914619570
         C            1.220798462943    -0.136128917238     0.217588155134    12.000000000000
         C           -1.200746137057     0.133887582762     0.260118255134    12.000000000000
         C            2.165424862943    -0.932654417238    -0.589290744866    12.000000000000
         C            1.736523862943     1.243221582762     0.621175255134    12.000000000000
         C           -2.171558137057     0.933388582762    -0.589293744866    12.000000000000
         C           -1.742709137057    -1.242530417238     0.621164255134    12.000000000000
         H            0.973987862943    -0.693956417238     1.181093255134     1.007825032230
         H           -0.980106137057     0.694615582762     1.181092255134     1.007825032230
         H            3.120228862943    -1.066441417238    -0.071830744866     1.007825032230
         H            1.745145862943    -1.914258417238    -0.820195744866     1.007825032230
         H            2.346968862943    -0.405064417238    -1.529823744866     1.007825032230
         H            2.652676862943     1.161118582762     1.215009255134     1.007825032230
         H            1.006034862943     1.815043582762     1.200380255134     1.007825032230
         H            1.958246862943     1.796402582762    -0.295696744866     1.007825032230
         H           -3.126350137057     1.067228582762    -0.071826744866     1.007825032230
         H           -1.751231137057     1.914972582762    -0.820201744866     1.007825032230
         H           -2.353144137057     0.405814582762    -1.529826744866     1.007825032230
         H           -2.658843137057    -1.160416417238     1.215022255134     1.007825032230
         H           -1.012207137057    -1.814365417238     1.200345255134     1.007825032230
         H           -1.964466137057    -1.795700417238    -0.295705744866     1.007825032230

  Basis Set: AUG-CC-PVTZ
    Blend: AUG-CC-PVTZ
  Basis Set: (AUG-CC-PVTZ AUX)
    Blend: AUG-CC-PVTZ-JKFIT
	 Reference Energy          =    -310.3300639449833511 [Eh]
	 Singles Energy            =      -0.0000000000000000 [Eh]
	 Same-Spin Energy          =      -0.3187348362288471 [Eh]
	 Opposite-Spin Energy      =      -1.1355730496806826 [Eh]
	 Correlation Energy        =      -1.4543078859095298 [Eh]
	 Total Energy              =    -311.7843718308928942 [Eh]

	 ================> DF-SCS-MP2 Energies <==================
	-----------------------------------------------------------
	 SCS Same-Spin Scale       =       0.3333333333333333 [-]
	 SCS Opposite-Spin Scale   =       1.2000000000000000 [-]
	 SCS Same-Spin Energy      =      -0.1062449454096157 [Eh]
	 SCS Opposite-Spin Energy  =      -1.3626876596168191 [Eh]
	 SCS Correlation Energy    =      -1.4689326050264349 [Eh]
	 SCS Total Energy          =    -311.7989965500098037 [Eh]
	-----------------------------------------------------------

  Dipole Moment: [D]
     X:     0.0574      Y:    -0.0177      Z:     1.2245     Total:     1.2260

*** Psi4 exiting successfully. Buy a developer a beer!
