                               Psi4 1.3.2 release

  ==> Input File <==

--------------------------------------------------------------------------
#psi4
#
memory 32 gb

molecule  {
0 1
  O       -0.0104429    -0.0993110    -0.5289698
  C        1.1976560    -0.1335480     0.2407060
  C       -1.1976650     0.1335420     0.2407060
  C        2.1685060    -0.9330000    -0.6087030
  C        1.7396050     1.2428760     0.6017630
  C       -2.1684770     0.9330430    -0.6087060
  C       -1.7396280    -1.2428760     0.6017520
  H        0.9770690    -0.6943020     1.1616810
  H       -0.9770250     0.6942700     1.1616800
  H        3.1233100    -1.0667870    -0.0912430
  H        1.7482270    -1.9146040    -0.8396080
  H        2.3500500    -0.4054100    -1.5492360
  H        2.6557580     1.1607730     1.1955970
  H        1.0091160     1.8146980     1.1809680
  H        1.9613280     1.7960570    -0.3151090
  H       -3.1232690     1.0668830    -0.0912390
  H       -1.7481500     1.9146270    -0.8396140
  H       -2.3500630     0.4054690    -1.5492390
  H       -2.6557620    -1.1607620     1.1956100
  H       -1.0091260    -1.8147110     1.1809330
  H       -1.9613850    -1.7960460    -0.3151180
units angstrom
no_reorient  #important for SAPT in psi4, default
symmetry c1  #important for SAPT in psi4, default
}

set PROPERTIES_ORIGIN ["COM"]
properties('MP2/aug-cc-pvtz', properties = ['dipole'])
--------------------------------------------------------------------------

    Molecular point group: c1
  Charge       = 0
  Multiplicity = 1
  Basis Set: AUG-CC-PVTZ
    Blend: AUG-CC-PVTZ
  Basis Set: (AUG-CC-PVTZ AUX)
    Blend: AUG-CC-PVTZ-JKFIT

    Orbital Energies [Eh]
    ---------------------

    Doubly Occupied:

       1A    -20.541326     2A    -11.275169     3A    -11.274517
       4A    -11.213948     5A    -11.209622     6A    -11.208590
       7A    -11.207235     8A     -1.360266     9A     -1.069261
      10A     -1.012635    11A     -0.935718    12A     -0.931672
      13A     -0.807026    14A     -0.780080    15A     -0.676431
      16A     -0.632795    17A     -0.619890    18A     -0.580312
      19A     -0.576288    20A     -0.560391    21A     -0.536870
      22A     -0.535464    23A     -0.517470    24A     -0.510066
      25A     -0.505386    26A     -0.483205    27A     -0.470057
      28A     -0.450798    29A     -0.405977

  @DF-RHF Final Energy:  -310.33119638553296

   => Energetics <=

    Nuclear Repulsion Energy =            338.1172419549549772
    One-Electron Energy =               -1091.1199434563643536
    Two-Electron Energy =                 442.6715051158763572
    Total Energy =                       -310.3311963855329623
  Basis Set: (AUG-CC-PVTZ AUX)
    Blend: AUG-CC-PVTZ-RI
    Molecular point group: c1

    Geometry (in Angstrom), charge = 0, multiplicity = 1:

       Center              X                  Y                   Z               Mass
    ------------   -----------------  -----------------  -----------------  -----------------
         O           -0.008807411450    -0.083759566948    -0.515719455899    15.994914619570
         C            1.199291488550    -0.117996566948     0.253956344101    12.000000000000
         C           -1.196029511450     0.149093433052     0.253956344101    12.000000000000
         C            2.170141488550    -0.917448566948    -0.595452655899    12.000000000000
         C            1.741240488550     1.258427433052     0.615013344101    12.000000000000
         C           -2.166841511450     0.948594433052    -0.595455655899    12.000000000000
         C           -1.737992511450    -1.227324566948     0.615002344101    12.000000000000
         H            0.978704488550    -0.678750566948     1.174931344101     1.007825032230
         H           -0.975389511450     0.709821433052     1.174930344101     1.007825032230
         H            3.124945488550    -1.051235566948    -0.077992655899     1.007825032230
         H            1.749862488550    -1.899052566948    -0.826357655899     1.007825032230
         H            2.351685488550    -0.389858566948    -1.535985655899     1.007825032230
         H            2.657393488550     1.176324433052     1.208847344101     1.007825032230
         H            1.010751488550     1.830249433052     1.194218344101     1.007825032230
         H            1.962963488550     1.811608433052    -0.301858655899     1.007825032230
         H           -3.121633511450     1.082434433052    -0.077988655899     1.007825032230
         H           -1.746514511450     1.930178433052    -0.826363655899     1.007825032230
         H           -2.348427511450     0.421020433052    -1.535988655899     1.007825032230
         H           -2.654126511450    -1.145210566948     1.208860344101     1.007825032230
         H           -1.007490511450    -1.799159566948     1.194183344101     1.007825032230
         H           -1.959749511450    -1.780494566948    -0.301867655899     1.007825032230

  Basis Set: AUG-CC-PVTZ
    Blend: AUG-CC-PVTZ
  Basis Set: (AUG-CC-PVTZ AUX)
    Blend: AUG-CC-PVTZ-JKFIT
	 Reference Energy          =    -310.3311963855329623 [Eh]
	 Singles Energy            =      -0.0000000000000000 [Eh]
	 Same-Spin Energy          =      -0.3185610953239584 [Eh]
	 Opposite-Spin Energy      =      -1.1355364113132189 [Eh]
	 Correlation Energy        =      -1.4540975066371773 [Eh]
	 Total Energy              =    -311.7852938921701593 [Eh]

	 ================> DF-SCS-MP2 Energies <==================
	-----------------------------------------------------------
	 SCS Same-Spin Scale       =       0.3333333333333333 [-]
	 SCS Opposite-Spin Scale   =       1.2000000000000000 [-]
	 SCS Same-Spin Energy      =      -0.1061870317746528 [Eh]
	 SCS Opposite-Spin Energy  =      -1.3626436935758626 [Eh]
	 SCS Correlation Energy    =      -1.4688307253505153 [Eh]
	 SCS Total Energy          =    -311.8000271108834909 [Eh]
	-----------------------------------------------------------

  Dipole Moment: [D]
     X:     0.0392      Y:     0.2224      Z:     1.2628     Total:     1.2828

*** Psi4 exiting successfully. Buy a developer a beer!
