                               Psi4 1.4a3.dev225

  ==> Input File <==

--------------------------------------------------------------------------
#psi4
#
memory 32 gb

molecule  {
0 1
  O        0.0000010    -0.0000260    -0.5363470
  C        1.1558699    -0.1288996     0.2135647
  C       -1.1976320     0.1335480     0.2406540
  C        2.1684970    -0.9329740    -0.6087930
  C        1.7395900     1.2428280     0.6018540
  C       -2.1684690     0.9329960    -0.6088010
  C       -1.7396210    -1.2428230     0.6018460
  H        0.9770390    -0.6943630     1.1616340
  H       -0.9770220     0.6943450     1.1616300
  H        3.1233080    -1.0666500    -0.0913170
  H        1.7483500    -1.9146320    -0.8396930
  H        2.3499780    -0.4053470    -1.5493110
  H        2.6556380     1.1606780     1.1958460
  H        1.0090380     1.8146880     1.1809540
  H        1.9615120     1.7960330    -0.3149540
  H       -3.1232800     1.0666960    -0.0913310
  H       -1.7482940     1.9146450    -0.8396930
  H       -2.3499590     0.4053800    -1.5493220
  H       -2.6556690    -1.1606550     1.1958380
  H       -1.0090800    -1.8146970     1.1809440
  H       -1.9615540    -1.7960230    -0.3149630
units angstrom
no_reorient  #important for SAPT in psi4, default
symmetry c1  #important for SAPT in psi4, default
}

set PROPERTIES_ORIGIN ["COM"]
properties('MP2/aug-cc-pvtz', properties = ['dipole'])
--------------------------------------------------------------------------

    Molecular point group: c1
  Charge       = 0
  Multiplicity = 1
  Basis Set: AUG-CC-PVTZ
    Blend: AUG-CC-PVTZ
  Basis Set: (AUG-CC-PVTZ AUX)
    Blend: AUG-CC-PVTZ-JKFIT

    Orbital Energies [Eh]
    ---------------------

    Doubly Occupied:

       1A    -20.546497     2A    -11.278382     3A    -11.274950
       4A    -11.213071     5A    -11.210437     6A    -11.209218
       7A    -11.206844     8A     -1.378381     9A     -1.069434
      10A     -1.010384    11A     -0.936616    12A     -0.929000
      13A     -0.812457    14A     -0.779915    15A     -0.681370
      16A     -0.632314    17A     -0.625611    18A     -0.579914
      19A     -0.577278    20A     -0.561044    21A     -0.538459
      22A     -0.533270    23A     -0.521639    24A     -0.514395
      25A     -0.507251    26A     -0.480300    27A     -0.471499
      28A     -0.447009    29A     -0.404380

  @DF-RHF Final Energy:  -310.33196219656043

   => Energetics <=

    Nuclear Repulsion Energy =            338.6886015815085216
    One-Electron Energy =               -1092.1784884983771917
    Two-Electron Energy =                 443.1579247203083014
    Total Energy =                       -310.3319621965604256
  Basis Set: (AUG-CC-PVTZ AUX)
    Blend: AUG-CC-PVTZ-RI
    Molecular point group: c1

    Geometry (in Angstrom), charge = 0, multiplicity = 1:

       Center              X                  Y                   Z               Mass
    ------------   -----------------  -----------------  -----------------  -----------------
         O            0.004909308032    -0.000572378643    -0.518747025090    15.994914619570
         C            1.160778208032    -0.129445978643     0.231164674910    12.000000000000
         C           -1.192723691968     0.133001621357     0.258253974910    12.000000000000
         C            2.173405308032    -0.933520378643    -0.591193025090    12.000000000000
         C            1.744498308032     1.242281621357     0.619453974910    12.000000000000
         C           -2.163560691968     0.932449621357    -0.591201025090    12.000000000000
         C           -1.734712691968    -1.243369378643     0.619445974910    12.000000000000
         H            0.981947308032    -0.694909378643     1.179233974910     1.007825032230
         H           -0.972113691968     0.693798621357     1.179229974910     1.007825032230
         H            3.128216308032    -1.067196378643    -0.073717025090     1.007825032230
         H            1.753258308032    -1.915178378643    -0.822093025090     1.007825032230
         H            2.354886308032    -0.405893378643    -1.531711025090     1.007825032230
         H            2.660546308032     1.160131621357     1.213445974910     1.007825032230
         H            1.013946308032     1.814141621357     1.198553974910     1.007825032230
         H            1.966420308032     1.795486621357    -0.297354025090     1.007825032230
         H           -3.118371691968     1.066149621357    -0.073731025090     1.007825032230
         H           -1.743385691968     1.914098621357    -0.822093025090     1.007825032230
         H           -2.345050691968     0.404833621357    -1.531722025090     1.007825032230
         H           -2.650760691968    -1.161201378643     1.213437974910     1.007825032230
         H           -1.004171691968    -1.815243378643     1.198543974910     1.007825032230
         H           -1.956645691968    -1.796569378643    -0.297363025090     1.007825032230

  Basis Set: AUG-CC-PVTZ
    Blend: AUG-CC-PVTZ
  Basis Set: (AUG-CC-PVTZ AUX)
    Blend: AUG-CC-PVTZ-JKFIT
	 Reference Energy          =    -310.3319621965604256 [Eh]
	 Singles Energy            =      -0.0000000000000000 [Eh]
	 Same-Spin Energy          =      -0.3183331404240995 [Eh]
	 Opposite-Spin Energy      =      -1.1346914037818530 [Eh]
	 Correlation Energy        =      -1.4530245442059524 [Eh]
	 Total Energy              =    -311.7849867407663851 [Eh]

	 ================> DF-SCS-MP2 Energies <==================
	-----------------------------------------------------------
	 SCS Same-Spin Scale       =       0.3333333333333333 [-]
	 SCS Opposite-Spin Scale   =       1.2000000000000000 [-]
	 SCS Same-Spin Energy      =      -0.1061110468080332 [Eh]
	 SCS Opposite-Spin Energy  =      -1.3616296845382234 [Eh]
	 SCS Correlation Energy    =      -1.4677407313462565 [Eh]
	 SCS Total Energy          =    -311.7997029279067078 [Eh]
	-----------------------------------------------------------

  Dipole Moment: [D]
     X:    -0.2207      Y:    -0.0061      Z:     1.2222     Total:     1.2420

*** Psi4 exiting successfully. Buy a developer a beer!
