                               Psi4 1.3.2 release

  ==> Input File <==

--------------------------------------------------------------------------
#psi4
#
memory 32 gb

molecule  {
0 1
  O        0.0246912     0.0254284    -0.5010988
  C        1.1976560    -0.1335480     0.2407060
  C       -1.1976650     0.1335420     0.2407060
  C        2.1685060    -0.9330000    -0.6087030
  C        1.7396050     1.2428760     0.6017630
  C       -2.1684770     0.9330430    -0.6087060
  C       -1.7396280    -1.2428760     0.6017520
  H        0.9770690    -0.6943020     1.1616810
  H       -0.9770250     0.6942700     1.1616800
  H        3.1233100    -1.0667870    -0.0912430
  H        1.7482270    -1.9146040    -0.8396080
  H        2.3500500    -0.4054100    -1.5492360
  H        2.6557580     1.1607730     1.1955970
  H        1.0091160     1.8146980     1.1809680
  H        1.9613280     1.7960570    -0.3151090
  H       -3.1232690     1.0668830    -0.0912390
  H       -1.7481500     1.9146270    -0.8396140
  H       -2.3500630     0.4054690    -1.5492390
  H       -2.6557620    -1.1607620     1.1956100
  H       -1.0091260    -1.8147110     1.1809330
  H       -1.9613850    -1.7960460    -0.3151180
units angstrom
no_reorient  #important for SAPT in psi4, default
symmetry c1  #important for SAPT in psi4, default
}

set PROPERTIES_ORIGIN ["COM"]
properties('MP2/aug-cc-pvtz', properties = ['dipole'])
--------------------------------------------------------------------------

    Molecular point group: c1
  Charge       = 0
  Multiplicity = 1
  Basis Set: AUG-CC-PVTZ
    Blend: AUG-CC-PVTZ
  Basis Set: (AUG-CC-PVTZ AUX)
    Blend: AUG-CC-PVTZ-JKFIT

    Orbital Energies [Eh]
    ---------------------

    Doubly Occupied:

       1A    -20.539607     2A    -11.277122     3A    -11.271411
       4A    -11.212860     5A    -11.210157     6A    -11.208128
       7A    -11.207341     8A     -1.370079     9A     -1.071282
      10A     -1.011517    11A     -0.936387    12A     -0.931459
      13A     -0.812614    14A     -0.778634    15A     -0.679375
      16A     -0.633716    17A     -0.623509    18A     -0.581240
      19A     -0.576080    20A     -0.561101    21A     -0.537465
      22A     -0.534661    23A     -0.518119    24A     -0.512745
      25A     -0.506572    26A     -0.483542    27A     -0.473831
      28A     -0.445894    29A     -0.403648

  @DF-RHF Final Energy:  -310.33355478925614

   => Energetics <=

    Nuclear Repulsion Energy =            338.7584975119178807
    One-Electron Energy =               -1092.3639117173768227
    Two-Electron Energy =                 443.2718594162028012
    Total Energy =                       -310.3335547892561408
  Basis Set: (AUG-CC-PVTZ AUX)
    Blend: AUG-CC-PVTZ-RI
    Molecular point group: c1

    Geometry (in Angstrom), charge = 0, multiplicity = 1:

       Center              X                  Y                   Z               Mass
    ------------   -----------------  -----------------  -----------------  -----------------
         O            0.020822845703     0.021439100418    -0.492214516336    15.994914619570
         C            1.193787645703    -0.137537299582     0.249590283664    12.000000000000
         C           -1.201533354297     0.129552700418     0.249590283664    12.000000000000
         C            2.164637645703    -0.936989299582    -0.599818716336    12.000000000000
         C            1.735736645703     1.238886700418     0.610647283664    12.000000000000
         C           -2.172345354297     0.929053700418    -0.599821716336    12.000000000000
         C           -1.743496354297    -1.246865299582     0.610636283664    12.000000000000
         H            0.973200645703    -0.698291299582     1.170565283664     1.007825032230
         H           -0.980893354297     0.690280700418     1.170564283664     1.007825032230
         H            3.119441645703    -1.070776299582    -0.082358716336     1.007825032230
         H            1.744358645703    -1.918593299582    -0.830723716336     1.007825032230
         H            2.346181645703    -0.409399299582    -1.540351716336     1.007825032230
         H            2.651889645703     1.156783700418     1.204481283664     1.007825032230
         H            1.005247645703     1.810708700418     1.189852283664     1.007825032230
         H            1.957459645703     1.792067700418    -0.306224716336     1.007825032230
         H           -3.127137354297     1.062893700418    -0.082354716336     1.007825032230
         H           -1.752018354297     1.910637700418    -0.830729716336     1.007825032230
         H           -2.353931354297     0.401479700418    -1.540354716336     1.007825032230
         H           -2.659630354297    -1.164751299582     1.204494283664     1.007825032230
         H           -1.012994354297    -1.818700299582     1.189817283664     1.007825032230
         H           -1.965253354297    -1.800035299582    -0.306233716336     1.007825032230

  Basis Set: AUG-CC-PVTZ
    Blend: AUG-CC-PVTZ
  Basis Set: (AUG-CC-PVTZ AUX)
    Blend: AUG-CC-PVTZ-JKFIT
	 Reference Energy          =    -310.3335547892561408 [Eh]
	 Singles Energy            =      -0.0000000000000000 [Eh]
	 Same-Spin Energy          =      -0.3182598103152166 [Eh]
	 Opposite-Spin Energy      =      -1.1343187020611558 [Eh]
	 Correlation Energy        =      -1.4525785123763724 [Eh]
	 Total Energy              =    -311.7861333016325034 [Eh]

	 ================> DF-SCS-MP2 Energies <==================
	-----------------------------------------------------------
	 SCS Same-Spin Scale       =       0.3333333333333333 [-]
	 SCS Opposite-Spin Scale   =       1.2000000000000000 [-]
	 SCS Same-Spin Energy      =      -0.1060866034384055 [Eh]
	 SCS Opposite-Spin Energy  =      -1.3611824424733869 [Eh]
	 SCS Correlation Energy    =      -1.4672690459117925 [Eh]
	 SCS Total Energy          =    -311.8008238351679324 [Eh]
	-----------------------------------------------------------

  Dipole Moment: [D]
     X:    -0.1684      Y:    -0.0593      Z:     1.1961     Total:     1.2094

*** Psi4 exiting successfully. Buy a developer a beer!
