                               Psi4 1.3.2 release

  ==> Input File <==

--------------------------------------------------------------------------
#psi4
#
memory 32 gb

molecule  {
0 1
  O        0.3703410     1.7406370     0.1509160
  O       -2.1946130     0.9173750    -0.9921890
  N       -2.7109060    -0.4412560     0.7761490
  C       -0.4510660    -0.4506100    -0.0514270
  C        0.6599990     0.4108460     0.0342650
  C       -0.2507290    -1.8313420    -0.1181570
  C        1.9527030    -0.1242260     0.0401840
  C        1.0395390    -2.3670290    -0.1196300
  C        2.1335050    -1.5087060    -0.0439110
  C       -1.8374474     0.1114691    -0.1882842
  C        1.4719710     2.6442150     0.1686120
  H       -1.1182000    -2.4830940    -0.1949200
  H        2.8227340     0.5195950     0.1104450
  H        1.1860280    -3.4416730    -0.1864270
  H        3.1441970    -1.9102760    -0.0447980
  H        2.0722720     2.5548100    -0.7428660
  H        2.1083110     2.4835370     1.0460470
  H        1.0258210     3.6366650     0.2171830
  H       -2.3391320    -0.8271260     1.6334900
  H       -3.6232280    -0.0028870     0.8299490
units angstrom
no_reorient  #important for SAPT in psi4, default
symmetry c1  #important for SAPT in psi4, default
}

set PROPERTIES_ORIGIN ["COM"]
properties('MP2/aug-cc-pvtz', properties = ['dipole'])
--------------------------------------------------------------------------

    Molecular point group: c1
  Charge       = 0
  Multiplicity = 1
  Basis Set: AUG-CC-PVTZ
    Blend: AUG-CC-PVTZ
  Basis Set: (AUG-CC-PVTZ AUX)
    Blend: AUG-CC-PVTZ-JKFIT

    Orbital Energies [Eh]
    ---------------------

    Doubly Occupied:

       1A    -20.591129     2A    -20.525094     3A    -15.574166
       4A    -11.354688     5A    -11.317657     6A    -11.288279
       7A    -11.255227     8A    -11.254296     9A    -11.247591
      10A    -11.242864    11A    -11.238378    12A     -1.415295
      13A     -1.392802    14A     -1.195122    15A     -1.156799
      16A     -1.042666    17A     -1.024804    18A     -0.949918
      19A     -0.875984    20A     -0.823938    21A     -0.784512
      22A     -0.731258    23A     -0.705498    24A     -0.681505
      25A     -0.663845    26A     -0.656625    27A     -0.642687
      28A     -0.627071    29A     -0.602356    30A     -0.584980
      31A     -0.562118    32A     -0.545776    33A     -0.530597
      34A     -0.519017    35A     -0.501901    36A     -0.476180
      37A     -0.428497    38A     -0.410554    39A     -0.352760
      40A     -0.323179

  @DF-RHF Final Energy:  -512.54522797507354

   => Energetics <=

    Nuclear Repulsion Energy =            592.7725825310768641
    One-Electron Energy =               -1874.4403929422708188
    Two-Electron Energy =                 769.1225824361202967
    Total Energy =                       -512.5452279750735443
  Basis Set: (AUG-CC-PVTZ AUX)
    Blend: AUG-CC-PVTZ-RI
    Molecular point group: c1

    Geometry (in Angstrom), charge = 0, multiplicity = 1:

       Center              X                  Y                   Z               Mass
    ------------   -----------------  -----------------  -----------------  -----------------
         O            0.404752311248     1.744047261620     0.172356116279    15.994914619570
         O           -2.160201688752     0.920785261620    -0.970748883721    15.994914619570
         N           -2.676494688752    -0.437845738380     0.797589116279    14.003074004430
         C           -0.416654688752    -0.447199738380    -0.029986883721    12.000000000000
         C            0.694410311248     0.414256261620     0.055705116279    12.000000000000
         C           -0.216317688752    -1.827931738380    -0.096716883721    12.000000000000
         C            1.987114311248    -0.120815738380     0.061624116279    12.000000000000
         C            1.073950311248    -2.363618738380    -0.098189883721    12.000000000000
         C            2.167916311248    -1.505295738380    -0.022470883721    12.000000000000
         C           -1.803036088752     0.114879361620    -0.166844083721    12.000000000000
         C            1.506382311248     2.647625261620     0.190052116279    12.000000000000
         H           -1.083788688752    -2.479683738380    -0.173479883721     1.007825032230
         H            2.857145311248     0.523005261620     0.131885116279     1.007825032230
         H            1.220439311248    -3.438262738380    -0.164986883721     1.007825032230
         H            3.178608311248    -1.906865738380    -0.023357883721     1.007825032230
         H            2.106683311248     2.558220261620    -0.721425883721     1.007825032230
         H            2.142722311248     2.486947261620     1.067487116279     1.007825032230
         H            1.060232311248     3.640075261620     0.238623116279     1.007825032230
         H           -2.304720688752    -0.823715738380     1.654930116279     1.007825032230
         H           -3.588816688752     0.000523261620     0.851389116279     1.007825032230

  Basis Set: AUG-CC-PVTZ
    Blend: AUG-CC-PVTZ
  Basis Set: (AUG-CC-PVTZ AUX)
    Blend: AUG-CC-PVTZ-JKFIT
	 Reference Energy          =    -512.5452279750735443 [Eh]
	 Singles Energy            =      -0.0000000000000000 [Eh]
	 Same-Spin Energy          =      -0.5349740329181716 [Eh]
	 Opposite-Spin Energy      =      -1.6439916467675628 [Eh]
	 Correlation Energy        =      -2.1789656796857342 [Eh]
	 Total Energy              =    -514.7241936547592331 [Eh]

	 ================> DF-SCS-MP2 Energies <==================
	-----------------------------------------------------------
	 SCS Same-Spin Scale       =       0.3333333333333333 [-]
	 SCS Opposite-Spin Scale   =       1.2000000000000000 [-]
	 SCS Same-Spin Energy      =      -0.1783246776393905 [Eh]
	 SCS Opposite-Spin Energy  =      -1.9727899761210752 [Eh]
	 SCS Correlation Energy    =      -2.1511146537604660 [Eh]
	 SCS Total Energy          =    -514.6963426288340315 [Eh]
	-----------------------------------------------------------

  Dipole Moment: [D]
     X:     2.1295      Y:    -0.7591      Z:     2.6074     Total:     3.4510

*** Psi4 exiting successfully. Buy a developer a beer!
