                               Psi4 1.3.2 release

  ==> Input File <==

--------------------------------------------------------------------------
#psi4
#
memory 32 gb

molecule  {
0 1
  O        0.3703410     1.7406370     0.1509160
  O       -2.1946130     0.9173750    -0.9921890
  N       -2.7109060    -0.4412560     0.7761490
  C       -0.4510660    -0.4506100    -0.0514270
  C        0.6599990     0.4108460     0.0342650
  C       -0.2507290    -1.8313420    -0.1181570
  C        1.9513608    -0.1283227     0.0899978
  C        1.0395390    -2.3670290    -0.1196300
  C        2.1335050    -1.5087060    -0.0439110
  C       -1.8406380     0.1093760    -0.1384300
  C        1.4719710     2.6442150     0.1686120
  H       -1.1182000    -2.4830940    -0.1949200
  H        2.8227340     0.5195950     0.1104450
  H        1.1860280    -3.4416730    -0.1864270
  H        3.1441970    -1.9102760    -0.0447980
  H        2.0722720     2.5548100    -0.7428660
  H        2.1083110     2.4835370     1.0460470
  H        1.0258210     3.6366650     0.2171830
  H       -2.3391320    -0.8271260     1.6334900
  H       -3.6232280    -0.0028870     0.8299490
units angstrom
no_reorient  #important for SAPT in psi4, default
symmetry c1  #important for SAPT in psi4, default
}

set PROPERTIES_ORIGIN ["COM"]
properties('MP2/aug-cc-pvtz', properties = ['dipole'])
--------------------------------------------------------------------------

    Molecular point group: c1
  Charge       = 0
  Multiplicity = 1
  Basis Set: AUG-CC-PVTZ
    Blend: AUG-CC-PVTZ
  Basis Set: (AUG-CC-PVTZ AUX)
    Blend: AUG-CC-PVTZ-JKFIT

    Orbital Energies [Eh]
    ---------------------

    Doubly Occupied:

       1A    -20.590392     2A    -20.517336     3A    -15.582850
       4A    -11.355027     5A    -11.317725     6A    -11.287665
       7A    -11.255433     8A    -11.254171     9A    -11.248321
      10A    -11.242913    11A    -11.238409    12A     -1.413945
      13A     -1.369645    14A     -1.207902    15A     -1.157881
      16A     -1.042863    17A     -1.024567    18A     -0.949461
      19A     -0.877108    20A     -0.824289    21A     -0.789232
      22A     -0.735468    23A     -0.708973    24A     -0.681730
      25A     -0.665498    26A     -0.657382    27A     -0.639316
      28A     -0.623093    29A     -0.596538    30A     -0.582107
      31A     -0.558403    32A     -0.543783    33A     -0.530549
      34A     -0.518280    35A     -0.500289    36A     -0.475760
      37A     -0.424008    38A     -0.411643    39A     -0.352392
      40A     -0.322806

  @DF-RHF Final Energy:  -512.54468047244745

   => Energetics <=

    Nuclear Repulsion Energy =            592.6305942649696590
    One-Electron Energy =               -1874.2002477238550000
    Two-Electron Energy =                 769.0249729864378878
    Total Energy =                       -512.5446804724474532
  Basis Set: (AUG-CC-PVTZ AUX)
    Blend: AUG-CC-PVTZ-RI
    Molecular point group: c1

    Geometry (in Angstrom), charge = 0, multiplicity = 1:

       Center              X                  Y                   Z               Mass
    ------------   -----------------  -----------------  -----------------  -----------------
         O            0.405112382753     1.744538960040     0.164438800994    15.994914619570
         O           -2.159841617247     0.921276960040    -0.978666199006    15.994914619570
         N           -2.676134617247    -0.437354039960     0.789671800994    14.003074004430
         C           -0.416294617247    -0.446708039960    -0.037904199006    12.000000000000
         C            0.694770382753     0.414747960040     0.047787800994    12.000000000000
         C           -0.215957617247    -1.827440039960    -0.104634199006    12.000000000000
         C            1.986132182753    -0.124420739960     0.103520600994    12.000000000000
         C            1.074310382753    -2.363127039960    -0.106107199006    12.000000000000
         C            2.168276382753    -1.504804039960    -0.030388199006    12.000000000000
         C           -1.805866617247     0.113277960040    -0.124907199006    12.000000000000
         C            1.506742382753     2.648116960040     0.182134800994    12.000000000000
         H           -1.083428617247    -2.479192039960    -0.181397199006     1.007825032230
         H            2.857505382753     0.523496960040     0.123967800994     1.007825032230
         H            1.220799382753    -3.437771039960    -0.172904199006     1.007825032230
         H            3.178968382753    -1.906374039960    -0.031275199006     1.007825032230
         H            2.107043382753     2.558711960040    -0.729343199006     1.007825032230
         H            2.143082382753     2.487438960040     1.059569800994     1.007825032230
         H            1.060592382753     3.640566960040     0.230705800994     1.007825032230
         H           -2.304360617247    -0.823224039960     1.647012800994     1.007825032230
         H           -3.588456617247     0.001014960040     0.843471800994     1.007825032230

  Basis Set: AUG-CC-PVTZ
    Blend: AUG-CC-PVTZ
  Basis Set: (AUG-CC-PVTZ AUX)
    Blend: AUG-CC-PVTZ-JKFIT
	 Reference Energy          =    -512.5446804724474532 [Eh]
	 Singles Energy            =      -0.0000000000000000 [Eh]
	 Same-Spin Energy          =      -0.5357246006091516 [Eh]
	 Opposite-Spin Energy      =      -1.6452913248252621 [Eh]
	 Correlation Energy        =      -2.1810159254344139 [Eh]
	 Total Energy              =    -514.7256963978818476 [Eh]

	 ================> DF-SCS-MP2 Energies <==================
	-----------------------------------------------------------
	 SCS Same-Spin Scale       =       0.3333333333333333 [-]
	 SCS Opposite-Spin Scale   =       1.2000000000000000 [-]
	 SCS Same-Spin Energy      =      -0.1785748668697172 [Eh]
	 SCS Opposite-Spin Energy  =      -1.9743495897903145 [Eh]
	 SCS Correlation Energy    =      -2.1529244566600316 [Eh]
	 SCS Total Energy          =    -514.6976049291074560 [Eh]
	-----------------------------------------------------------

  Dipole Moment: [D]
     X:     1.9939      Y:    -0.9164      Z:     2.8658     Total:     3.6095

*** Psi4 exiting successfully. Buy a developer a beer!
