                               Psi4 1.3.2 release

  ==> Input File <==

--------------------------------------------------------------------------
#psi4
#
memory 32 gb

molecule  {
0 1
  O        0.3703410     1.7406370     0.1509160
  O       -2.1946130     0.9173750    -0.9921890
  N       -2.7109060    -0.4412560     0.7761490
  C       -0.4510660    -0.4506100    -0.0514270
  C        0.6599990     0.4108460     0.0342650
  C       -0.2507290    -1.8313420    -0.1181570
  C        1.9527030    -0.1242260     0.0401840
  C        1.0395390    -2.3670290    -0.1196300
  C        2.1335050    -1.5087060    -0.0439110
  C       -1.8310662     0.1156553    -0.2879925
  C        1.4719710     2.6442150     0.1686120
  H       -1.1182000    -2.4830940    -0.1949200
  H        2.8227340     0.5195950     0.1104450
  H        1.1860280    -3.4416730    -0.1864270
  H        3.1441970    -1.9102760    -0.0447980
  H        2.0722720     2.5548100    -0.7428660
  H        2.1083110     2.4835370     1.0460470
  H        1.0258210     3.6366650     0.2171830
  H       -2.3391320    -0.8271260     1.6334900
  H       -3.6232280    -0.0028870     0.8299490
units angstrom
no_reorient  #important for SAPT in psi4, default
symmetry c1  #important for SAPT in psi4, default
}

set PROPERTIES_ORIGIN ["COM"]
properties('MP2/aug-cc-pvtz', properties = ['dipole'])
--------------------------------------------------------------------------

    Molecular point group: c1
  Charge       = 0
  Multiplicity = 1
  Basis Set: AUG-CC-PVTZ
    Blend: AUG-CC-PVTZ
  Basis Set: (AUG-CC-PVTZ AUX)
    Blend: AUG-CC-PVTZ-JKFIT

    Orbital Energies [Eh]
    ---------------------

    Doubly Occupied:

       1A    -20.592742     2A    -20.540810     3A    -15.555627
       4A    -11.354376     5A    -11.318245     6A    -11.289546
       7A    -11.255041     8A    -11.254706     9A    -11.247742
      10A    -11.243295    11A    -11.238441    12A     -1.448763
      13A     -1.414817    14A     -1.172736    15A     -1.149333
      16A     -1.042068    17A     -1.025139    18A     -0.950764
      19A     -0.873665    20A     -0.823567    21A     -0.777188
      22A     -0.726272    23A     -0.700871    24A     -0.682323
      25A     -0.663682    26A     -0.656134    27A     -0.650900
      28A     -0.631649    29A     -0.611274    30A     -0.589221
      31A     -0.578026    32A     -0.548508    33A     -0.531620
      34A     -0.520504    35A     -0.504390    36A     -0.477302
      37A     -0.430923    38A     -0.401333    39A     -0.352609
      40A     -0.323670

  @DF-RHF Final Energy:  -512.52700539752152

   => Energetics <=

    Nuclear Repulsion Energy =            592.9969382177246189
    One-Electron Energy =               -1874.7482416437312622
    Two-Electron Energy =                 769.2242980284851228
    Total Energy =                       -512.5270053975215205
  Basis Set: (AUG-CC-PVTZ AUX)
    Blend: AUG-CC-PVTZ-RI
    Molecular point group: c1

    Geometry (in Angstrom), charge = 0, multiplicity = 1:

       Center              X                  Y                   Z               Mass
    ------------   -----------------  -----------------  -----------------  -----------------
         O            0.404245408608     1.743714722939     0.180276632871    15.994914619570
         O           -2.160708591392     0.920452722939    -0.962828367129    15.994914619570
         N           -2.677001591392    -0.438178277061     0.805509632871    14.003074004430
         C           -0.417161591392    -0.447532277061    -0.022066367129    12.000000000000
         C            0.693903408608     0.413923722939     0.063625632871    12.000000000000
         C           -0.216824591392    -1.828264277061    -0.088796367129    12.000000000000
         C            1.986607408608    -0.121148277061     0.069544632871    12.000000000000
         C            1.073443408608    -2.363951277061    -0.090269367129    12.000000000000
         C            2.167409408608    -1.505628277061    -0.014550367129    12.000000000000
         C           -1.797161791392     0.118733022939    -0.258631867129    12.000000000000
         C            1.505875408608     2.647292722939     0.197972632871    12.000000000000
         H           -1.084295591392    -2.480016277061    -0.165559367129     1.007825032230
         H            2.856638408608     0.522672722939     0.139805632871     1.007825032230
         H            1.219932408608    -3.438595277061    -0.157066367129     1.007825032230
         H            3.178101408608    -1.907198277061    -0.015437367129     1.007825032230
         H            2.106176408608     2.557887722939    -0.713505367129     1.007825032230
         H            2.142215408608     2.486614722939     1.075407632871     1.007825032230
         H            1.059725408608     3.639742722939     0.246543632871     1.007825032230
         H           -2.305227591392    -0.824048277061     1.662850632871     1.007825032230
         H           -3.589323591392     0.000190722939     0.859309632871     1.007825032230

  Basis Set: AUG-CC-PVTZ
    Blend: AUG-CC-PVTZ
  Basis Set: (AUG-CC-PVTZ AUX)
    Blend: AUG-CC-PVTZ-JKFIT
	 Reference Energy          =    -512.5270053975215205 [Eh]
	 Singles Energy            =      -0.0000000000000000 [Eh]
	 Same-Spin Energy          =      -0.5338824604903876 [Eh]
	 Opposite-Spin Energy      =      -1.6421882237946468 [Eh]
	 Correlation Energy        =      -2.1760706842850341 [Eh]
	 Total Energy              =    -514.7030760818065573 [Eh]

	 ================> DF-SCS-MP2 Energies <==================
	-----------------------------------------------------------
	 SCS Same-Spin Scale       =       0.3333333333333333 [-]
	 SCS Opposite-Spin Scale   =       1.2000000000000000 [-]
	 SCS Same-Spin Energy      =      -0.1779608201634625 [Eh]
	 SCS Opposite-Spin Energy  =      -1.9706258685535760 [Eh]
	 SCS Correlation Energy    =      -2.1485866887170384 [Eh]
	 SCS Total Energy          =    -514.6755920862385665 [Eh]
	-----------------------------------------------------------

  Dipole Moment: [D]
     X:     2.4124      Y:    -0.4294      Z:     1.9653     Total:     3.1411

*** Psi4 exiting successfully. Buy a developer a beer!
