                               Psi4 1.3.2 release

  ==> Input File <==

--------------------------------------------------------------------------
#psi4
#
memory 32 gb

molecule  {
0 1
  O        0.3703410     1.7406370     0.1509160
  O       -2.1946130     0.9173750    -0.9921890
  N       -2.7109060    -0.4412560     0.7761490
  C       -0.4510660    -0.4506100    -0.0514270
  C        0.6599990     0.4108460     0.0342650
  C       -0.2507290    -1.8313420    -0.1181570
  C        1.9527030    -0.1242260     0.0401840
  C        1.0395390    -2.3670290    -0.1196300
  C        2.1335050    -1.5087060    -0.0439110
  C       -1.8278755     0.1177483    -0.3378467
  C        1.4719710     2.6442150     0.1686120
  H       -1.1182000    -2.4830940    -0.1949200
  H        2.8227340     0.5195950     0.1104450
  H        1.1860280    -3.4416730    -0.1864270
  H        3.1441970    -1.9102760    -0.0447980
  H        2.0722720     2.5548100    -0.7428660
  H        2.1083110     2.4835370     1.0460470
  H        1.0258210     3.6366650     0.2171830
  H       -2.3391320    -0.8271260     1.6334900
  H       -3.6232280    -0.0028870     0.8299490
units angstrom
no_reorient  #important for SAPT in psi4, default
symmetry c1  #important for SAPT in psi4, default
}

set PROPERTIES_ORIGIN ["COM"]
properties('MP2/aug-cc-pvtz', properties = ['dipole'])
--------------------------------------------------------------------------

    Molecular point group: c1
  Charge       = 0
  Multiplicity = 1
  Basis Set: AUG-CC-PVTZ
    Blend: AUG-CC-PVTZ
  Basis Set: (AUG-CC-PVTZ AUX)
    Blend: AUG-CC-PVTZ-JKFIT

    Orbital Energies [Eh]
    ---------------------

    Doubly Occupied:

       1A    -20.593617     2A    -20.549011     3A    -15.545563
       4A    -11.354628     5A    -11.318657     6A    -11.290222
       7A    -11.255032     8A    -11.254969     9A    -11.248717
      10A    -11.243621    11A    -11.238577    12A     -1.476942
      13A     -1.416014    14A     -1.167451    15A     -1.139732
      16A     -1.041648    17A     -1.025388    18A     -0.951229
      19A     -0.872555    20A     -0.823555    21A     -0.774734
      22A     -0.725922    23A     -0.700798    24A     -0.684163
      25A     -0.667915    26A     -0.659975    27A     -0.647339
      28A     -0.632372    29A     -0.614649    30A     -0.596949
      31A     -0.583899    32A     -0.549295    33A     -0.532307
      34A     -0.521266    35A     -0.505285    36A     -0.477971
      37A     -0.428762    38A     -0.394295    39A     -0.351961
      40A     -0.323785

  @DF-RHF Final Energy:  -512.50870053852918

   => Energetics <=

    Nuclear Repulsion Energy =            593.1055332724703248
    One-Electron Energy =               -1874.8669309321785477
    Two-Electron Energy =                 769.2526971211789260
    Total Energy =                       -512.5087005385291832
  Basis Set: (AUG-CC-PVTZ AUX)
    Blend: AUG-CC-PVTZ-RI
    Molecular point group: c1

    Geometry (in Angstrom), charge = 0, multiplicity = 1:

       Center              X                  Y                   Z               Mass
    ------------   -----------------  -----------------  -----------------  -----------------
         O            0.403991949345     1.743548461542     0.184236895138    15.994914619570
         O           -2.160962050655     0.920286461542    -0.958868104862    15.994914619570
         N           -2.677255050655    -0.438344538458     0.809469895138    14.003074004430
         C           -0.417415050655    -0.447698538458    -0.018106104862    12.000000000000
         C            0.693649949345     0.413757461542     0.067585895138    12.000000000000
         C           -0.217078050655    -1.828430538458    -0.084836104862    12.000000000000
         C            1.986353949345    -0.121314538458     0.073504895138    12.000000000000
         C            1.073189949345    -2.364117538458    -0.086309104862    12.000000000000
         C            2.167155949345    -1.505794538458    -0.010590104862    12.000000000000
         C           -1.794224550655     0.120659761542    -0.304525804862    12.000000000000
         C            1.505621949345     2.647126461542     0.201932895138    12.000000000000
         H           -1.084549050655    -2.480182538458    -0.161599104862     1.007825032230
         H            2.856384949345     0.522506461542     0.143765895138     1.007825032230
         H            1.219678949345    -3.438761538458    -0.153106104862     1.007825032230
         H            3.177847949345    -1.907364538458    -0.011477104862     1.007825032230
         H            2.105922949345     2.557721461542    -0.709545104862     1.007825032230
         H            2.141961949345     2.486448461542     1.079367895138     1.007825032230
         H            1.059471949345     3.639576461542     0.250503895138     1.007825032230
         H           -2.305481050655    -0.824214538458     1.666810895138     1.007825032230
         H           -3.589577050655     0.000024461542     0.863269895138     1.007825032230

  Basis Set: AUG-CC-PVTZ
    Blend: AUG-CC-PVTZ
  Basis Set: (AUG-CC-PVTZ AUX)
    Blend: AUG-CC-PVTZ-JKFIT
	 Reference Energy          =    -512.5087005385291832 [Eh]
	 Singles Energy            =      -0.0000000000000000 [Eh]
	 Same-Spin Energy          =      -0.5335344753990228 [Eh]
	 Opposite-Spin Energy      =      -1.6416999916901378 [Eh]
	 Correlation Energy        =      -2.1752344670891608 [Eh]
	 Total Energy              =    -514.6839350056183093 [Eh]

	 ================> DF-SCS-MP2 Energies <==================
	-----------------------------------------------------------
	 SCS Same-Spin Scale       =       0.3333333333333333 [-]
	 SCS Opposite-Spin Scale   =       1.2000000000000000 [-]
	 SCS Same-Spin Energy      =      -0.1778448251330076 [Eh]
	 SCS Opposite-Spin Energy  =      -1.9700399900281653 [Eh]
	 SCS Correlation Energy    =      -2.1478848151611727 [Eh]
	 SCS Total Energy          =    -514.6565853536903887 [Eh]
	-----------------------------------------------------------

  Dipole Moment: [D]
     X:     2.5657      Y:    -0.2560      Z:     1.6169     Total:     3.0435

*** Psi4 exiting successfully. Buy a developer a beer!
