                               Psi4 1.3.2 release

  ==> Input File <==

--------------------------------------------------------------------------
#psi4
#
memory 32 gb

molecule  {
0 1
  O        0.3703410     1.7406370     0.1509160
  O       -2.1946130     0.9173750    -0.9921890
  N       -2.7109060    -0.4412560     0.7761490
  C       -0.4510660    -0.4506100    -0.0514270
  C        0.6599990     0.4108460     0.0342650
  C       -0.2507290    -1.8313420    -0.1181570
  C        1.9527030    -0.1242260     0.0401840
  C        1.0395390    -2.3670290    -0.1196300
  C        2.1335050    -1.5087060    -0.0439110
  C       -1.8342568     0.1135622    -0.2381384
  C        1.4719710     2.6442150     0.1686120
  H       -1.1182000    -2.4830940    -0.1949200
  H        2.8227340     0.5195950     0.1104450
  H        1.1860280    -3.4416730    -0.1864270
  H        3.1441970    -1.9102760    -0.0447980
  H        2.0722720     2.5548100    -0.7428660
  H        2.1083110     2.4835370     1.0460470
  H        1.0258210     3.6366650     0.2171830
  H       -2.3391320    -0.8271260     1.6334900
  H       -3.6232280    -0.0028870     0.8299490
units angstrom
no_reorient  #important for SAPT in psi4, default
symmetry c1  #important for SAPT in psi4, default
}

set PROPERTIES_ORIGIN ["COM"]
properties('MP2/aug-cc-pvtz', properties = ['dipole'])
--------------------------------------------------------------------------

    Molecular point group: c1
  Charge       = 0
  Multiplicity = 1
  Basis Set: AUG-CC-PVTZ
    Blend: AUG-CC-PVTZ
  Basis Set: (AUG-CC-PVTZ AUX)
    Blend: AUG-CC-PVTZ-JKFIT

    Orbital Energies [Eh]
    ---------------------

    Doubly Occupied:

       1A    -20.591919     2A    -20.532871     3A    -15.565135
       4A    -11.354427     5A    -11.317924     6A    -11.288902
       7A    -11.255117     8A    -11.254490     9A    -11.247391
      10A    -11.243051    11A    -11.238381    12A     -1.423351
      13A     -1.411733    14A     -1.182587    15A     -1.154522
      16A     -1.042413    17A     -1.024952    18A     -0.950333
      19A     -0.874812    20A     -0.823696    21A     -0.780461
      22A     -0.728128    23A     -0.702619    24A     -0.681615
      25A     -0.662864    26A     -0.654800    27A     -0.648498
      28A     -0.629949    29A     -0.607350    30A     -0.586695
      31A     -0.569081    32A     -0.547355    33A     -0.531061
      34A     -0.519711    35A     -0.503244    36A     -0.476692
      37A     -0.430855    38A     -0.406949    39A     -0.352862
      40A     -0.323468

  @DF-RHF Final Energy:  -512.53915098444838

   => Energetics <=

    Nuclear Repulsion Energy =            592.8850667629196778
    One-Electron Energy =               -1874.6039146516422988
    Two-Electron Energy =                 769.1796969042742376
    Total Energy =                       -512.5391509844483835
  Basis Set: (AUG-CC-PVTZ AUX)
    Blend: AUG-CC-PVTZ-RI
    Molecular point group: c1

    Geometry (in Angstrom), charge = 0, multiplicity = 1:

       Center              X                  Y                   Z               Mass
    ------------   -----------------  -----------------  -----------------  -----------------
         O            0.404498859928     1.743880992279     0.176316378547    15.994914619570
         O           -2.160455140072     0.920618992279    -0.966788621453    15.994914619570
         N           -2.676748140072    -0.438012007721     0.801549378547    14.003074004430
         C           -0.416908140072    -0.447366007721    -0.026026621453    12.000000000000
         C            0.694156859928     0.414089992279     0.059665378547    12.000000000000
         C           -0.216571140072    -1.828098007721    -0.092756621453    12.000000000000
         C            1.986860859928    -0.120982007721     0.065584378547    12.000000000000
         C            1.073696859928    -2.363785007721    -0.094229621453    12.000000000000
         C            2.167662859928    -1.505462007721    -0.018510621453    12.000000000000
         C           -1.800098940072     0.116806192279    -0.212738021453    12.000000000000
         C            1.506128859928     2.647458992279     0.194012378547    12.000000000000
         H           -1.084042140072    -2.479850007721    -0.169519621453     1.007825032230
         H            2.856891859928     0.522838992279     0.135845378547     1.007825032230
         H            1.220185859928    -3.438429007721    -0.161026621453     1.007825032230
         H            3.178354859928    -1.907032007721    -0.019397621453     1.007825032230
         H            2.106429859928     2.558053992279    -0.717465621453     1.007825032230
         H            2.142468859928     2.486780992279     1.071447378547     1.007825032230
         H            1.059978859928     3.639908992279     0.242583378547     1.007825032230
         H           -2.304974140072    -0.823882007721     1.658890378547     1.007825032230
         H           -3.589070140072     0.000356992279     0.855349378547     1.007825032230

  Basis Set: AUG-CC-PVTZ
    Blend: AUG-CC-PVTZ
  Basis Set: (AUG-CC-PVTZ AUX)
    Blend: AUG-CC-PVTZ-JKFIT
	 Reference Energy          =    -512.5391509844483835 [Eh]
	 Singles Energy            =      -0.0000000000000000 [Eh]
	 Same-Spin Energy          =      -0.5343620567597449 [Eh]
	 Opposite-Spin Energy      =      -1.6429508655388061 [Eh]
	 Correlation Energy        =      -2.1773129222985510 [Eh]
	 Total Energy              =    -514.7164639067469807 [Eh]

	 ================> DF-SCS-MP2 Energies <==================
	-----------------------------------------------------------
	 SCS Same-Spin Scale       =       0.3333333333333333 [-]
	 SCS Opposite-Spin Scale   =       1.2000000000000000 [-]
	 SCS Same-Spin Energy      =      -0.1781206855865816 [Eh]
	 SCS Opposite-Spin Energy  =      -1.9715410386465673 [Eh]
	 SCS Correlation Energy    =      -2.1496617242331491 [Eh]
	 SCS Total Energy          =    -514.6888127086815530 [Eh]
	-----------------------------------------------------------

  Dipole Moment: [D]
     X:     2.2676      Y:    -0.5974      Z:     2.2958     Total:     3.2817

*** Psi4 exiting successfully. Buy a developer a beer!
