                               Psi4 1.3.2 release

  ==> Input File <==

--------------------------------------------------------------------------
#psi4
#
memory 32 gb

molecule  {
0 1
  O        0.3703410     1.7406370     0.1509160
  O       -2.1946130     0.9173750    -0.9921890
  N       -2.7109060    -0.4412560     0.7761490
  C       -0.4039906    -0.3033532     0.0754562
  C        0.6599990     0.4108460     0.0342650
  C       -0.2507290    -1.8313420    -0.1181570
  C        1.9527030    -0.1242260     0.0401840
  C        1.0395390    -2.3670290    -0.1196300
  C        2.1335050    -1.5087060    -0.0439110
  C       -1.8406380     0.1093760    -0.1384300
  C        1.4719710     2.6442150     0.1686120
  H       -1.1182000    -2.4830940    -0.1949200
  H        2.8227340     0.5195950     0.1104450
  H        1.1860280    -3.4416730    -0.1864270
  H        3.1441970    -1.9102760    -0.0447980
  H        2.0722720     2.5548100    -0.7428660
  H        2.1083110     2.4835370     1.0460470
  H        1.0258210     3.6366650     0.2171830
  H       -2.3391320    -0.8271260     1.6334900
  H       -3.6232280    -0.0028870     0.8299490
units angstrom
no_reorient  #important for SAPT in psi4, default
symmetry c1  #important for SAPT in psi4, default
}

set PROPERTIES_ORIGIN ["COM"]
properties('MP2/aug-cc-pvtz', properties = ['dipole'])
--------------------------------------------------------------------------

    Molecular point group: c1
  Charge       = 0
  Multiplicity = 1
  Basis Set: AUG-CC-PVTZ
    Blend: AUG-CC-PVTZ
  Basis Set: (AUG-CC-PVTZ AUX)
    Blend: AUG-CC-PVTZ-JKFIT

    Orbital Energies [Eh]
    ---------------------

    Doubly Occupied:

       1A    -20.581292     2A    -20.516903     3A    -15.581577
       4A    -11.357276     5A    -11.299506     6A    -11.283797
       7A    -11.269567     8A    -11.257471     9A    -11.247218
      10A    -11.243929    11A    -11.242638    12A     -1.411875
      13A     -1.368675    14A     -1.206462    15A     -1.158529
      16A     -1.054279    17A     -1.017113    18A     -0.944070
      19A     -0.877392    20A     -0.836721    21A     -0.781323
      22A     -0.734841    23A     -0.710210    24A     -0.675973
      25A     -0.664412    26A     -0.654760    27A     -0.645673
      28A     -0.620334    29A     -0.596021    30A     -0.571197
      31A     -0.562296    32A     -0.544667    33A     -0.531624
      34A     -0.510383    35A     -0.501927    36A     -0.471145
      37A     -0.421657    38A     -0.409750    39A     -0.342754
      40A     -0.335531

  @DF-RHF Final Energy:  -512.50952841934361

   => Energetics <=

    Nuclear Repulsion Energy =            593.3942717623923500
    One-Electron Energy =               -1875.7220668259831200
    Two-Electron Energy =                 769.8182666442470463
    Total Energy =                       -512.5095284193436100
  Basis Set: (AUG-CC-PVTZ AUX)
    Blend: AUG-CC-PVTZ-RI
    Molecular point group: c1

    Geometry (in Angstrom), charge = 0, multiplicity = 1:

       Center              X                  Y                   Z               Mass
    ------------   -----------------  -----------------  -----------------  -----------------
         O            0.401266239512     1.732515909723     0.158316648060    15.994914619570
         O           -2.163687760488     0.909253909723    -0.984788351940    15.994914619570
         N           -2.679980760488    -0.449377090277     0.783549648060    14.003074004430
         C           -0.373065360488    -0.311474290277     0.082856848060    12.000000000000
         C            0.690924239512     0.402724909723     0.041665648060    12.000000000000
         C           -0.219803760488    -1.839463090277    -0.110756351940    12.000000000000
         C            1.983628239512    -0.132347090277     0.047584648060    12.000000000000
         C            1.070464239512    -2.375150090277    -0.112229351940    12.000000000000
         C            2.164430239512    -1.516827090277    -0.036510351940    12.000000000000
         C           -1.809712760488     0.101254909723    -0.131029351940    12.000000000000
         C            1.502896239512     2.636093909723     0.176012648060    12.000000000000
         H           -1.087274760488    -2.491215090277    -0.187519351940     1.007825032230
         H            2.853659239512     0.511473909723     0.117845648060     1.007825032230
         H            1.216953239512    -3.449794090277    -0.179026351940     1.007825032230
         H            3.175122239512    -1.918397090277    -0.037397351940     1.007825032230
         H            2.103197239512     2.546688909723    -0.735465351940     1.007825032230
         H            2.139236239512     2.475415909723     1.053447648060     1.007825032230
         H            1.056746239512     3.628543909723     0.224583648060     1.007825032230
         H           -2.308206760488    -0.835247090277     1.640890648060     1.007825032230
         H           -3.592302760488    -0.011008090277     0.837349648060     1.007825032230

  Basis Set: AUG-CC-PVTZ
    Blend: AUG-CC-PVTZ
  Basis Set: (AUG-CC-PVTZ AUX)
    Blend: AUG-CC-PVTZ-JKFIT
	 Reference Energy          =    -512.5095284193436100 [Eh]
	 Singles Energy            =      -0.0000000000000000 [Eh]
	 Same-Spin Energy          =      -0.5356796617215556 [Eh]
	 Opposite-Spin Energy      =      -1.6471498957274420 [Eh]
	 Correlation Energy        =      -2.1828295574489975 [Eh]
	 Total Energy              =    -514.6923579767926640 [Eh]

	 ================> DF-SCS-MP2 Energies <==================
	-----------------------------------------------------------
	 SCS Same-Spin Scale       =       0.3333333333333333 [-]
	 SCS Opposite-Spin Scale   =       1.2000000000000000 [-]
	 SCS Same-Spin Energy      =      -0.1785598872405185 [Eh]
	 SCS Opposite-Spin Energy  =      -1.9765798748729302 [Eh]
	 SCS Correlation Energy    =      -2.1551397621134489 [Eh]
	 SCS Total Energy          =    -514.6646681814570456 [Eh]
	-----------------------------------------------------------

  Dipole Moment: [D]
     X:     2.1103      Y:    -1.1292      Z:     2.8538     Total:     3.7246

*** Psi4 exiting successfully. Buy a developer a beer!
