                               Psi4 1.3.2 release

  ==> Input File <==

--------------------------------------------------------------------------
#psi4
#
memory 32 gb

molecule  {
0 1
  O        0.3703410     1.7406370     0.1509160
  O       -2.1946130     0.9173750    -0.9921890
  N       -2.7109060    -0.4412560     0.7761490
  C       -0.4510660    -0.4506100    -0.0514270
  C        0.6599990     0.4108460     0.0342650
  C       -0.2507290    -1.8313420    -0.1181570
  C        1.9459919    -0.1447097     0.2892530
  C        1.0395390    -2.3670290    -0.1196300
  C        2.1335050    -1.5087060    -0.0439110
  C       -1.8406380     0.1093760    -0.1384300
  C        1.4719710     2.6442150     0.1686120
  H       -1.1182000    -2.4830940    -0.1949200
  H        2.8227340     0.5195950     0.1104450
  H        1.1860280    -3.4416730    -0.1864270
  H        3.1441970    -1.9102760    -0.0447980
  H        2.0722720     2.5548100    -0.7428660
  H        2.1083110     2.4835370     1.0460470
  H        1.0258210     3.6366650     0.2171830
  H       -2.3391320    -0.8271260     1.6334900
  H       -3.6232280    -0.0028870     0.8299490
units angstrom
no_reorient  #important for SAPT in psi4, default
symmetry c1  #important for SAPT in psi4, default
}

set PROPERTIES_ORIGIN ["COM"]
properties('MP2/aug-cc-pvtz', properties = ['dipole'])
--------------------------------------------------------------------------

    Molecular point group: c1
  Charge       = 0
  Multiplicity = 1
  Basis Set: AUG-CC-PVTZ
    Blend: AUG-CC-PVTZ
  Basis Set: (AUG-CC-PVTZ AUX)
    Blend: AUG-CC-PVTZ-JKFIT

    Orbital Energies [Eh]
    ---------------------

    Doubly Occupied:

       1A    -20.591940     2A    -20.517350     3A    -15.583339
       4A    -11.355212     5A    -11.323094     6A    -11.287580
       7A    -11.258397     8A    -11.258193     9A    -11.248473
      10A    -11.247357    11A    -11.238258    12A     -1.415050
      13A     -1.369862    14A     -1.208327    15A     -1.156654
      16A     -1.042236    17A     -1.022523    18A     -0.949081
      19A     -0.875483    20A     -0.823257    21A     -0.787837
      22A     -0.734577    23A     -0.708976    24A     -0.680392
      25A     -0.663172    26A     -0.658132    27A     -0.639097
      28A     -0.617072    29A     -0.596799    30A     -0.579495
      31A     -0.558876    32A     -0.543612    33A     -0.531425
      34A     -0.515801    35A     -0.495980    36A     -0.474477
      37A     -0.423690    38A     -0.412022    39A     -0.352773
      40A     -0.322734

  @DF-RHF Final Energy:  -512.52719568283464

   => Energetics <=

    Nuclear Repulsion Energy =            591.9204653263726641
    One-Electron Energy =               -1872.7581113574897245
    Two-Electron Energy =                 768.3104503482823020
    Total Energy =                       -512.5271956828346447
  Basis Set: (AUG-CC-PVTZ AUX)
    Blend: AUG-CC-PVTZ-RI
    Molecular point group: c1

    Geometry (in Angstrom), charge = 0, multiplicity = 1:

       Center              X                  Y                   Z               Mass
    ------------   -----------------  -----------------  -----------------  -----------------
         O            0.405538871435     1.745840692247     0.148610588925    15.994914619570
         O           -2.159415128565     0.922578692247    -0.994494411075    15.994914619570
         N           -2.675708128565    -0.436052307753     0.773843588925    14.003074004430
         C           -0.415868128565    -0.445406307753    -0.053732411075    12.000000000000
         C            0.695196871435     0.416049692247     0.031959588925    12.000000000000
         C           -0.215531128565    -1.826138307753    -0.120462411075    12.000000000000
         C            1.981189771435    -0.139506007753     0.286947588925    12.000000000000
         C            1.074736871435    -2.361825307753    -0.121935411075    12.000000000000
         C            2.168702871435    -1.503502307753    -0.046216411075    12.000000000000
         C           -1.805440128565     0.114579692247    -0.140735411075    12.000000000000
         C            1.507168871435     2.649418692247     0.166306588925    12.000000000000
         H           -1.083002128565    -2.477890307753    -0.197225411075     1.007825032230
         H            2.857931871435     0.524798692247     0.108139588925     1.007825032230
         H            1.221225871435    -3.436469307753    -0.188732411075     1.007825032230
         H            3.179394871435    -1.905072307753    -0.047103411075     1.007825032230
         H            2.107469871435     2.560013692247    -0.745171411075     1.007825032230
         H            2.143508871435     2.488740692247     1.043741588925     1.007825032230
         H            1.061018871435     3.641868692247     0.214877588925     1.007825032230
         H           -2.303934128565    -0.821922307753     1.631184588925     1.007825032230
         H           -3.588030128565     0.002316692247     0.827643588925     1.007825032230

  Basis Set: AUG-CC-PVTZ
    Blend: AUG-CC-PVTZ
  Basis Set: (AUG-CC-PVTZ AUX)
    Blend: AUG-CC-PVTZ-JKFIT
	 Reference Energy          =    -512.5271956828346447 [Eh]
	 Singles Energy            =      -0.0000000000000000 [Eh]
	 Same-Spin Energy          =      -0.5364394777388722 [Eh]
	 Opposite-Spin Energy      =      -1.6476015719208448 [Eh]
	 Correlation Energy        =      -2.1840410496597169 [Eh]
	 Total Energy              =    -514.7112367324943989 [Eh]

	 ================> DF-SCS-MP2 Energies <==================
	-----------------------------------------------------------
	 SCS Same-Spin Scale       =       0.3333333333333333 [-]
	 SCS Opposite-Spin Scale   =       1.2000000000000000 [-]
	 SCS Same-Spin Energy      =      -0.1788131592462907 [Eh]
	 SCS Opposite-Spin Energy  =      -1.9771218863050137 [Eh]
	 SCS Correlation Energy    =      -2.1559350455513044 [Eh]
	 SCS Total Energy          =    -514.6831307283860042 [Eh]
	-----------------------------------------------------------

  Dipole Moment: [D]
     X:     1.8815      Y:    -0.9584      Z:     2.7203     Total:     3.4437

*** Psi4 exiting successfully. Buy a developer a beer!
