                               Psi4 1.3.2 release

  ==> Input File <==

--------------------------------------------------------------------------
#psi4
#
memory 32 gb

molecule  {
0 1
  O        0.3703410     1.7406370     0.1509160
  O       -2.1946130     0.9173750    -0.9921890
  N       -2.7109060    -0.4412560     0.7761490
  C       -0.4510660    -0.4506100    -0.0514270
  C        0.6599990     0.4108460     0.0342650
  C       -0.2507290    -1.8313420    -0.1181570
  C        1.9486763    -0.1365162     0.1896254
  C        1.0395390    -2.3670290    -0.1196300
  C        2.1335050    -1.5087060    -0.0439110
  C       -1.8406380     0.1093760    -0.1384300
  C        1.4719710     2.6442150     0.1686120
  H       -1.1182000    -2.4830940    -0.1949200
  H        2.8227340     0.5195950     0.1104450
  H        1.1860280    -3.4416730    -0.1864270
  H        3.1441970    -1.9102760    -0.0447980
  H        2.0722720     2.5548100    -0.7428660
  H        2.1083110     2.4835370     1.0460470
  H        1.0258210     3.6366650     0.2171830
  H       -2.3391320    -0.8271260     1.6334900
  H       -3.6232280    -0.0028870     0.8299490
units angstrom
no_reorient  #important for SAPT in psi4, default
symmetry c1  #important for SAPT in psi4, default
}

set PROPERTIES_ORIGIN ["COM"]
properties('MP2/aug-cc-pvtz', properties = ['dipole'])
--------------------------------------------------------------------------

    Molecular point group: c1
  Charge       = 0
  Multiplicity = 1
  Basis Set: AUG-CC-PVTZ
    Blend: AUG-CC-PVTZ
  Basis Set: (AUG-CC-PVTZ AUX)
    Blend: AUG-CC-PVTZ-JKFIT

    Orbital Energies [Eh]
    ---------------------

    Doubly Occupied:

       1A    -20.590887     2A    -20.517286     3A    -15.583029
       4A    -11.355058     5A    -11.319622     6A    -11.287638
       7A    -11.256382     8A    -11.255456     9A    -11.248388
      10A    -11.244436    11A    -11.238345    12A     -1.414313
      13A     -1.369689    14A     -1.208048    15A     -1.157489
      16A     -1.042691    17A     -1.023887    18A     -0.949318
      19A     -0.876519    20A     -0.823938    21A     -0.788742
      22A     -0.735118    23A     -0.708959    24A     -0.681266
      25A     -0.664482    26A     -0.657791    27A     -0.639235
      28A     -0.620867    29A     -0.596615    30A     -0.581252
      31A     -0.558622    32A     -0.543864    33A     -0.531065
      34A     -0.517138    35A     -0.498955    36A     -0.475354
      37A     -0.423833    38A     -0.411775    39A     -0.352546
      40A     -0.322781

  @DF-RHF Final Energy:  -512.53892116237250

   => Energetics <=

    Nuclear Repulsion Energy =            592.3904961631650394
    One-Electron Energy =               -1873.7134708535254504
    Two-Electron Energy =                 768.7840535279877940
    Total Energy =                       -512.5389211623725032
  Basis Set: (AUG-CC-PVTZ AUX)
    Blend: AUG-CC-PVTZ-RI
    Molecular point group: c1

    Geometry (in Angstrom), charge = 0, multiplicity = 1:

       Center              X                  Y                   Z               Mass
    ------------   -----------------  -----------------  -----------------  -----------------
         O            0.405325631066     1.745189826143     0.156524694960    15.994914619570
         O           -2.159628368934     0.921927826143    -0.986580305040    15.994914619570
         N           -2.675921368934    -0.436703173857     0.781757694960    14.003074004430
         C           -0.416081368934    -0.446057173857    -0.045818305040    12.000000000000
         C            0.694983631066     0.415398826143     0.039873694960    12.000000000000
         C           -0.215744368934    -1.826789173857    -0.112548305040    12.000000000000
         C            1.983660931066    -0.131963373857     0.195234094960    12.000000000000
         C            1.074523631066    -2.362476173857    -0.114021305040    12.000000000000
         C            2.168489631066    -1.504153173857    -0.038302305040    12.000000000000
         C           -1.805653368934     0.113928826143    -0.132821305040    12.000000000000
         C            1.506955631066     2.648767826143     0.174220694960    12.000000000000
         H           -1.083215368934    -2.478541173857    -0.189311305040     1.007825032230
         H            2.857718631066     0.524147826143     0.116053694960     1.007825032230
         H            1.221012631066    -3.437120173857    -0.180818305040     1.007825032230
         H            3.179181631066    -1.905723173857    -0.039189305040     1.007825032230
         H            2.107256631066     2.559362826143    -0.737257305040     1.007825032230
         H            2.143295631066     2.488089826143     1.051655694960     1.007825032230
         H            1.060805631066     3.641217826143     0.222791694960     1.007825032230
         H           -2.304147368934    -0.822573173857     1.639098694960     1.007825032230
         H           -3.588243368934     0.001665826143     0.835557694960     1.007825032230

  Basis Set: AUG-CC-PVTZ
    Blend: AUG-CC-PVTZ
  Basis Set: (AUG-CC-PVTZ AUX)
    Blend: AUG-CC-PVTZ-JKFIT
	 Reference Energy          =    -512.5389211623725032 [Eh]
	 Singles Energy            =      -0.0000000000000000 [Eh]
	 Same-Spin Energy          =      -0.5359591887302909 [Eh]
	 Opposite-Spin Energy      =      -1.6459791639459453 [Eh]
	 Correlation Energy        =      -2.1819383526762364 [Eh]
	 Total Energy              =    -514.7208595150486872 [Eh]

	 ================> DF-SCS-MP2 Energies <==================
	-----------------------------------------------------------
	 SCS Same-Spin Scale       =       0.3333333333333333 [-]
	 SCS Opposite-Spin Scale   =       1.2000000000000000 [-]
	 SCS Same-Spin Energy      =      -0.1786530629100970 [Eh]
	 SCS Opposite-Spin Energy  =      -1.9751749967351344 [Eh]
	 SCS Correlation Energy    =      -2.1538280596452313 [Eh]
	 SCS Total Energy          =    -514.6927492220177101 [Eh]
	-----------------------------------------------------------

  Dipole Moment: [D]
     X:     1.9574      Y:    -0.9312      Z:     2.7956     Total:     3.5375

*** Psi4 exiting successfully. Buy a developer a beer!
