                               Psi4 1.3.2 release

  ==> Input File <==

--------------------------------------------------------------------------
#psi4
#
memory 32 gb

molecule  {
0 1
  O        0.3703410     1.7406370     0.1509160
  O       -2.1946130     0.9173750    -0.9921890
  N       -2.7109060    -0.4412560     0.7761490
  C       -0.4510660    -0.4506100    -0.0514270
  C        0.6599990     0.4108460     0.0342650
  C       -0.2507290    -1.8313420    -0.1181570
  C        1.9500186    -0.1324195     0.1398116
  C        1.0395390    -2.3670290    -0.1196300
  C        2.1335050    -1.5087060    -0.0439110
  C       -1.8406380     0.1093760    -0.1384300
  C        1.4719710     2.6442150     0.1686120
  H       -1.1182000    -2.4830940    -0.1949200
  H        2.8227340     0.5195950     0.1104450
  H        1.1860280    -3.4416730    -0.1864270
  H        3.1441970    -1.9102760    -0.0447980
  H        2.0722720     2.5548100    -0.7428660
  H        2.1083110     2.4835370     1.0460470
  H        1.0258210     3.6366650     0.2171830
  H       -2.3391320    -0.8271260     1.6334900
  H       -3.6232280    -0.0028870     0.8299490
units angstrom
no_reorient  #important for SAPT in psi4, default
symmetry c1  #important for SAPT in psi4, default
}

set PROPERTIES_ORIGIN ["COM"]
properties('MP2/aug-cc-pvtz', properties = ['dipole'])
--------------------------------------------------------------------------

    Molecular point group: c1
  Charge       = 0
  Multiplicity = 1
  Basis Set: AUG-CC-PVTZ
    Blend: AUG-CC-PVTZ
  Basis Set: (AUG-CC-PVTZ AUX)
    Blend: AUG-CC-PVTZ-JKFIT

    Orbital Energies [Eh]
    ---------------------

    Doubly Occupied:

       1A    -20.590568     2A    -20.517298     3A    -15.582924
       4A    -11.355029     5A    -11.318465     6A    -11.287655
       7A    -11.255776     8A    -11.254623     9A    -11.248355
      10A    -11.243489    11A    -11.238385    12A     -1.414082
      13A     -1.369652    14A     -1.207959    15A     -1.157746
      16A     -1.042820    17A     -1.024305    18A     -0.949400
      19A     -0.876879    20A     -0.824161    21A     -0.789047
      22A     -0.735330    23A     -0.708970    24A     -0.681558
      25A     -0.665034    26A     -0.657599    27A     -0.639281
      28A     -0.622202    29A     -0.596560    30A     -0.581794
      31A     -0.558512    32A     -0.543854    33A     -0.530823
      34A     -0.517743    35A     -0.499805    36A     -0.475615
      37A     -0.423916    38A     -0.411696    39A     -0.352466
      40A     -0.322802

  @DF-RHF Final Energy:  -512.54253190403779

   => Energetics <=

    Nuclear Repulsion Energy =            592.5400321186940573
    One-Electron Energy =               -1874.0167669443681007
    Two-Electron Energy =                 768.9342029216363699
    Total Energy =                       -512.5425319040377872
  Basis Set: (AUG-CC-PVTZ AUX)
    Blend: AUG-CC-PVTZ-RI
    Molecular point group: c1

    Geometry (in Angstrom), charge = 0, multiplicity = 1:

       Center              X                  Y                   Z               Mass
    ------------   -----------------  -----------------  -----------------  -----------------
         O            0.405219002937     1.744864397064     0.160481747977    15.994914619570
         O           -2.159734997063     0.921602397064    -0.982623252023    15.994914619570
         N           -2.676027997063    -0.437028602936     0.785714747977    14.003074004430
         C           -0.416187997063    -0.446382602936    -0.041861252023    12.000000000000
         C            0.694877002937     0.415073397064     0.043830747977    12.000000000000
         C           -0.215850997063    -1.827114602936    -0.108591252023    12.000000000000
         C            1.984896602937    -0.128192102936     0.149377347977    12.000000000000
         C            1.074417002937    -2.362801602936    -0.110064252023    12.000000000000
         C            2.168383002937    -1.504478602936    -0.034345252023    12.000000000000
         C           -1.805759997063     0.113603397064    -0.128864252023    12.000000000000
         C            1.506849002937     2.648442397064     0.178177747977    12.000000000000
         H           -1.083321997063    -2.478866602936    -0.185354252023     1.007825032230
         H            2.857612002937     0.523822397064     0.120010747977     1.007825032230
         H            1.220906002937    -3.437445602936    -0.176861252023     1.007825032230
         H            3.179075002937    -1.906048602936    -0.035232252023     1.007825032230
         H            2.107150002937     2.559037397064    -0.733300252023     1.007825032230
         H            2.143189002937     2.487764397064     1.055612747977     1.007825032230
         H            1.060699002937     3.640892397064     0.226748747977     1.007825032230
         H           -2.304253997063    -0.822898602936     1.643055747977     1.007825032230
         H           -3.588349997063     0.001340397064     0.839514747977     1.007825032230

  Basis Set: AUG-CC-PVTZ
    Blend: AUG-CC-PVTZ
  Basis Set: (AUG-CC-PVTZ AUX)
    Blend: AUG-CC-PVTZ-JKFIT
	 Reference Energy          =    -512.5425319040377872 [Eh]
	 Singles Energy            =      -0.0000000000000000 [Eh]
	 Same-Spin Energy          =      -0.5358090583442930 [Eh]
	 Opposite-Spin Energy      =      -1.6455078714025066 [Eh]
	 Correlation Energy        =      -2.1813169297467998 [Eh]
	 Total Energy              =    -514.7238488337845865 [Eh]

	 ================> DF-SCS-MP2 Energies <==================
	-----------------------------------------------------------
	 SCS Same-Spin Scale       =       0.3333333333333333 [-]
	 SCS Opposite-Spin Scale   =       1.2000000000000000 [-]
	 SCS Same-Spin Energy      =      -0.1786030194480977 [Eh]
	 SCS Opposite-Spin Energy  =      -1.9746094456830079 [Eh]
	 SCS Correlation Energy    =      -2.1532124651311055 [Eh]
	 SCS Total Energy          =    -514.6957443691688923 [Eh]
	-----------------------------------------------------------

  Dipole Moment: [D]
     X:     1.9807      Y:    -0.9222      Z:     2.8313     Total:     3.5763

*** Psi4 exiting successfully. Buy a developer a beer!
