                               Psi4 1.3.2 release

  ==> Input File <==

--------------------------------------------------------------------------
#psi4
#
memory 32 gb

molecule  {
0 1
  O        0.3703410     1.7406370     0.1509160
  O       -2.1946130     0.9173750    -0.9921890
  N       -2.7109060    -0.4412560     0.7761490
  C       -0.4510660    -0.4506100    -0.0514270
  C        0.6599990     0.4108460     0.0342650
  C       -0.2507290    -1.8313420    -0.1181570
  C        1.9527030    -0.1242260     0.0401840
  C        1.0395390    -2.3670290    -0.1196300
  C        2.1335050    -1.5087060    -0.0439110
  C       -1.8406380     0.1093760    -0.1384300
  C        1.4719710     2.6442150     0.1686120
  H       -1.1118837    -2.4710798    -0.3944589
  H        2.8227340     0.5195950     0.1104450
  H        1.1860280    -3.4416730    -0.1864270
  H        3.1441970    -1.9102760    -0.0447980
  H        2.0722720     2.5548100    -0.7428660
  H        2.1083110     2.4835370     1.0460470
  H        1.0258210     3.6366650     0.2171830
  H       -2.3391320    -0.8271260     1.6334900
  H       -3.6232280    -0.0028870     0.8299490
units angstrom
no_reorient  #important for SAPT in psi4, default
symmetry c1  #important for SAPT in psi4, default
}

set PROPERTIES_ORIGIN ["COM"]
properties('MP2/aug-cc-pvtz', properties = ['dipole'])
--------------------------------------------------------------------------

    Molecular point group: c1
  Charge       = 0
  Multiplicity = 1
  Basis Set: AUG-CC-PVTZ
    Blend: AUG-CC-PVTZ
  Basis Set: (AUG-CC-PVTZ AUX)
    Blend: AUG-CC-PVTZ-JKFIT

    Orbital Energies [Eh]
    ---------------------

    Doubly Occupied:

       1A    -20.590403     2A    -20.517144     3A    -15.582551
       4A    -11.354757     5A    -11.317553     6A    -11.287749
       7A    -11.256793     8A    -11.254203     9A    -11.248609
      10A    -11.243246    11A    -11.238856    12A     -1.413975
      13A     -1.369498    14A     -1.207467    15A     -1.157975
      16A     -1.042834    17A     -1.024370    18A     -0.949616
      19A     -0.876886    20A     -0.823079    21A     -0.789245
      22A     -0.734687    23A     -0.708603    24A     -0.681776
      25A     -0.665666    26A     -0.657245    27A     -0.638686
      28A     -0.621570    29A     -0.596616    30A     -0.582166
      31A     -0.556549    32A     -0.543030    33A     -0.532559
      34A     -0.516963    35A     -0.499766    36A     -0.475598
      37A     -0.423998    38A     -0.411469    39A     -0.352058
      40A     -0.322898

  @DF-RHF Final Energy:  -512.54253036773093

   => Energetics <=

    Nuclear Repulsion Energy =            592.5592956894631698
    One-Electron Energy =               -1874.0662280804453985
    Two-Electron Energy =                 768.9644020232512958
    Total Energy =                       -512.5425303677309330
  Basis Set: (AUG-CC-PVTZ AUX)
    Blend: AUG-CC-PVTZ-RI
    Molecular point group: c1

    Geometry (in Angstrom), charge = 0, multiplicity = 1:

       Center              X                  Y                   Z               Mass
    ------------   -----------------  -----------------  -----------------  -----------------
         O            0.404963623120     1.744133377745     0.169727085756    15.994914619570
         O           -2.159990376880     0.920871377745    -0.973377914244    15.994914619570
         N           -2.676283376880    -0.437759622255     0.794960085756    14.003074004430
         C           -0.416443376880    -0.447113622255    -0.032615914244    12.000000000000
         C            0.694621623120     0.414342377745     0.053076085756    12.000000000000
         C           -0.216106376880    -1.827845622255    -0.099345914244    12.000000000000
         C            1.987325623120    -0.120729622255     0.058995085756    12.000000000000
         C            1.074161623120    -2.363532622255    -0.100818914244    12.000000000000
         C            2.168127623120    -1.505209622255    -0.025099914244    12.000000000000
         C           -1.806015376880     0.112872377745    -0.119618914244    12.000000000000
         C            1.506593623120     2.647711377745     0.187423085756    12.000000000000
         H           -1.077261076880    -2.467583422255    -0.375647814244     1.007825032230
         H            2.857356623120     0.523091377745     0.129256085756     1.007825032230
         H            1.220650623120    -3.438176622255    -0.167615914244     1.007825032230
         H            3.178819623120    -1.906779622255    -0.025986914244     1.007825032230
         H            2.106894623120     2.558306377745    -0.724054914244     1.007825032230
         H            2.142933623120     2.487033377745     1.064858085756     1.007825032230
         H            1.060443623120     3.640161377745     0.235994085756     1.007825032230
         H           -2.304509376880    -0.823629622255     1.652301085756     1.007825032230
         H           -3.588605376880     0.000609377745     0.848760085756     1.007825032230

  Basis Set: AUG-CC-PVTZ
    Blend: AUG-CC-PVTZ
  Basis Set: (AUG-CC-PVTZ AUX)
    Blend: AUG-CC-PVTZ-JKFIT
	 Reference Energy          =    -512.5425303677309330 [Eh]
	 Singles Energy            =      -0.0000000000000000 [Eh]
	 Same-Spin Energy          =      -0.5358979770546417 [Eh]
	 Opposite-Spin Energy      =      -1.6456848046999091 [Eh]
	 Correlation Energy        =      -2.1815827817545506 [Eh]
	 Total Energy              =    -514.7241131494854471 [Eh]

	 ================> DF-SCS-MP2 Energies <==================
	-----------------------------------------------------------
	 SCS Same-Spin Scale       =       0.3333333333333333 [-]
	 SCS Opposite-Spin Scale   =       1.2000000000000000 [-]
	 SCS Same-Spin Energy      =      -0.1786326590182139 [Eh]
	 SCS Opposite-Spin Energy  =      -1.9748217656398908 [Eh]
	 SCS Correlation Energy    =      -2.1534544246581047 [Eh]
	 SCS Total Energy          =    -514.6959847923890266 [Eh]
	-----------------------------------------------------------

  Dipole Moment: [D]
     X:     2.0321      Y:    -0.8952      Z:     2.7868     Total:     3.5633

*** Psi4 exiting successfully. Buy a developer a beer!
