                               Psi4 1.3.2 release

  ==> Input File <==

--------------------------------------------------------------------------
#psi4
#
memory 32 gb

molecule  {
0 1
  O        0.3703410     1.7406370     0.1509160
  O       -2.1946130     0.9173750    -0.9921890
  N       -2.7109060    -0.4412560     0.7761490
  C       -0.4510660    -0.4506100    -0.0514270
  C        0.6599990     0.4108460     0.0342650
  C       -0.2507290    -1.8313420    -0.1181570
  C        1.9527030    -0.1242260     0.0401840
  C        1.0395390    -2.3670290    -0.1196300
  C        2.1335050    -1.5087060    -0.0439110
  C       -1.8406380     0.1093760    -0.1384300
  C        1.4719710     2.6442150     0.1686120
  H       -1.1182000    -2.4830940    -0.1949200
  H        2.8227340     0.5195950     0.1104450
  H        1.1860280    -3.4416730    -0.1864270
  H        3.1441970    -1.9102760    -0.0447980
  H        2.0722720     2.5548100    -0.7428660
  H        2.1083110     2.4835370     1.0460470
  H        1.0258210     3.6366650     0.2171830
  H       -2.3391320    -0.8271260     1.6334900
  H       -3.6232280    -0.0028870     0.8299490
units angstrom
no_reorient  #important for SAPT in psi4, default
symmetry c1  #important for SAPT in psi4, default
}

set PROPERTIES_ORIGIN ["COM"]
properties('MP2/aug-cc-pvtz', properties = ['dipole'])
--------------------------------------------------------------------------

    Molecular point group: c1
  Charge       = 0
  Multiplicity = 1
  Basis Set: AUG-CC-PVTZ
    Blend: AUG-CC-PVTZ
  Basis Set: (AUG-CC-PVTZ AUX)
    Blend: AUG-CC-PVTZ-JKFIT

    Orbital Energies [Eh]
    ---------------------

    Doubly Occupied:

       1A    -20.590358     2A    -20.517397     3A    -15.582805
       4A    -11.355048     5A    -11.317412     6A    -11.287667
       7A    -11.255346     8A    -11.254102     9A    -11.248278
      10A    -11.242715    11A    -11.238411    12A     -1.413905
      13A     -1.369664    14A     -1.207873    15A     -1.157883
      16A     -1.042811    17A     -1.024676    18A     -0.949504
      19A     -0.877193    20A     -0.824308    21A     -0.789287
      22A     -0.735514    23A     -0.708957    24A     -0.681768
      25A     -0.665870    26A     -0.657125    27A     -0.639341
      28A     -0.623514    29A     -0.596549    30A     -0.582191
      31A     -0.558291    32A     -0.543666    33A     -0.530249
      34A     -0.518717    35A     -0.500438    36A     -0.475786
      37A     -0.424107    38A     -0.411616    39A     -0.352314
      40A     -0.322786

  @DF-RHF Final Energy:  -512.54538762708091

   => Energetics <=

    Nuclear Repulsion Energy =            592.6613516971292484
    One-Electron Energy =               -1874.2625960010313975
    Two-Electron Energy =                 769.0558566768212359
    Total Energy =                       -512.5453876270809133
  Basis Set: (AUG-CC-PVTZ AUX)
    Blend: AUG-CC-PVTZ-RI
    Molecular point group: c1

    Geometry (in Angstrom), charge = 0, multiplicity = 1:

       Center              X                  Y                   Z               Mass
    ------------   -----------------  -----------------  -----------------  -----------------
         O            0.405005762568     1.744213530960     0.168395854012    15.994914619570
         O           -2.159948237432     0.920951530960    -0.974709145988    15.994914619570
         N           -2.676241237432    -0.437679469040     0.793628854012    14.003074004430
         C           -0.416401237432    -0.447033469040    -0.033947145988    12.000000000000
         C            0.694663762568     0.414422530960     0.051744854012    12.000000000000
         C           -0.216064237432    -1.827765469040    -0.100677145988    12.000000000000
         C            1.987367762568    -0.120649469040     0.057663854012    12.000000000000
         C            1.074203762568    -2.363452469040    -0.102150145988    12.000000000000
         C            2.168169762568    -1.505129469040    -0.026431145988    12.000000000000
         C           -1.805973237432     0.112952530960    -0.120950145988    12.000000000000
         C            1.506635762568     2.647791530960     0.186091854012    12.000000000000
         H           -1.083535237432    -2.479517469040    -0.177440145988     1.007825032230
         H            2.857398762568     0.523171530960     0.127924854012     1.007825032230
         H            1.220692762568    -3.438096469040    -0.168947145988     1.007825032230
         H            3.178861762568    -1.906699469040    -0.027318145988     1.007825032230
         H            2.106936762568     2.558386530960    -0.725386145988     1.007825032230
         H            2.142975762568     2.487113530960     1.063526854012     1.007825032230
         H            1.060485762568     3.640241530960     0.234662854012     1.007825032230
         H           -2.304467237432    -0.823549469040     1.650969854012     1.007825032230
         H           -3.588563237432     0.000689530960     0.847428854012     1.007825032230

  Basis Set: AUG-CC-PVTZ
    Blend: AUG-CC-PVTZ
  Basis Set: (AUG-CC-PVTZ AUX)
    Blend: AUG-CC-PVTZ-JKFIT
	 Reference Energy          =    -512.5453876270809133 [Eh]
	 Singles Energy            =      -0.0000000000000000 [Eh]
	 Same-Spin Energy          =      -0.5357070700237954 [Eh]
	 Opposite-Spin Energy      =      -1.6452898841791985 [Eh]
	 Correlation Energy        =      -2.1809969542029939 [Eh]
	 Total Energy              =    -514.7263845812839236 [Eh]

	 ================> DF-SCS-MP2 Energies <==================
	-----------------------------------------------------------
	 SCS Same-Spin Scale       =       0.3333333333333333 [-]
	 SCS Opposite-Spin Scale   =       1.2000000000000000 [-]
	 SCS Same-Spin Energy      =      -0.1785690233412651 [Eh]
	 SCS Opposite-Spin Energy  =      -1.9743478610150382 [Eh]
	 SCS Correlation Energy    =      -2.1529168843563031 [Eh]
	 SCS Total Energy          =    -514.6983045114371862 [Eh]
	-----------------------------------------------------------

  Dipole Moment: [D]
     X:     1.9971      Y:    -0.9140      Z:     2.8995     Total:     3.6374

*** Psi4 exiting successfully. Buy a developer a beer!
