                               Psi4 1.3.2 release

  ==> Input File <==

--------------------------------------------------------------------------
#psi4
#
memory 32 gb

molecule  {
0 1
  O        0.3703410     1.7406370     0.1509160
  O       -2.1946130     0.9173750    -0.9921890
  N       -2.7109060    -0.4412560     0.7761490
  C       -0.4392971    -0.4137958    -0.0197062
  C        0.6599990     0.4108460     0.0342650
  C       -0.2507290    -1.8313420    -0.1181570
  C        1.9527030    -0.1242260     0.0401840
  C        1.0395390    -2.3670290    -0.1196300
  C        2.1335050    -1.5087060    -0.0439110
  C       -1.8406380     0.1093760    -0.1384300
  C        1.4719710     2.6442150     0.1686120
  H       -1.1182000    -2.4830940    -0.1949200
  H        2.8227340     0.5195950     0.1104450
  H        1.1860280    -3.4416730    -0.1864270
  H        3.1441970    -1.9102760    -0.0447980
  H        2.0722720     2.5548100    -0.7428660
  H        2.1083110     2.4835370     1.0460470
  H        1.0258210     3.6366650     0.2171830
  H       -2.3391320    -0.8271260     1.6334900
  H       -3.6232280    -0.0028870     0.8299490
units angstrom
no_reorient  #important for SAPT in psi4, default
symmetry c1  #important for SAPT in psi4, default
}

set PROPERTIES_ORIGIN ["COM"]
properties('MP2/aug-cc-pvtz', properties = ['dipole'])
--------------------------------------------------------------------------

    Molecular point group: c1
  Charge       = 0
  Multiplicity = 1
  Basis Set: AUG-CC-PVTZ
    Blend: AUG-CC-PVTZ
  Basis Set: (AUG-CC-PVTZ AUX)
    Blend: AUG-CC-PVTZ-JKFIT

    Orbital Energies [Eh]
    ---------------------

    Doubly Occupied:

       1A    -20.588193     2A    -20.517008     3A    -15.582378
       4A    -11.355135     5A    -11.313291     6A    -11.286785
       7A    -11.259559     8A    -11.254902     9A    -11.247447
      10A    -11.243998    11A    -11.239556    12A     -1.413265
      13A     -1.369266    14A     -1.207426    15A     -1.157677
      16A     -1.043899    17A     -1.024094    18A     -0.948375
      19A     -0.877562    20A     -0.827229    21A     -0.787520
      22A     -0.735406    23A     -0.708690    24A     -0.680421
      25A     -0.665424    26A     -0.656669    27A     -0.641197
      28A     -0.622873    29A     -0.596493    30A     -0.579390
      31A     -0.559147    32A     -0.543690    33A     -0.530624
      34A     -0.518223    35A     -0.501716    36A     -0.474532
      37A     -0.423839    38A     -0.411131    39A     -0.348099
      40A     -0.326930

  @DF-RHF Final Energy:  -512.54292202239412

   => Energetics <=

    Nuclear Repulsion Energy =            592.8548133545700694
    One-Electron Energy =               -1874.6573520951815226
    Two-Electron Energy =                 769.2596167182173303
    Total Energy =                       -512.5429220223941229
  Basis Set: (AUG-CC-PVTZ AUX)
    Blend: AUG-CC-PVTZ-RI
    Molecular point group: c1

    Geometry (in Angstrom), charge = 0, multiplicity = 1:

       Center              X                  Y                   Z               Mass
    ------------   -----------------  -----------------  -----------------  -----------------
         O            0.404070877832     1.741289125651     0.165876052524    15.994914619570
         O           -2.160883122168     0.918027125651    -0.977228947476    15.994914619570
         N           -2.677176122168    -0.440603874349     0.791109052524    14.003074004430
         C           -0.405567222168    -0.413143674349    -0.004746147476    12.000000000000
         C            0.693728877832     0.411498125651     0.049225052524    12.000000000000
         C           -0.216999122168    -1.830689874349    -0.103196947476    12.000000000000
         C            1.986432877832    -0.123573874349     0.055144052524    12.000000000000
         C            1.073268877832    -2.366376874349    -0.104669947476    12.000000000000
         C            2.167234877832    -1.508053874349    -0.028950947476    12.000000000000
         C           -1.806908122168     0.110028125651    -0.123469947476    12.000000000000
         C            1.505700877832     2.644867125651     0.183572052524    12.000000000000
         H           -1.084470122168    -2.482441874349    -0.179959947476     1.007825032230
         H            2.856463877832     0.520247125651     0.125405052524     1.007825032230
         H            1.219757877832    -3.441020874349    -0.171466947476     1.007825032230
         H            3.177926877832    -1.909623874349    -0.029837947476     1.007825032230
         H            2.106001877832     2.555462125651    -0.727905947476     1.007825032230
         H            2.142040877832     2.484189125651     1.061007052524     1.007825032230
         H            1.059550877832     3.637317125651     0.232143052524     1.007825032230
         H           -2.305402122168    -0.826473874349     1.648450052524     1.007825032230
         H           -3.589498122168    -0.002234874349     0.844909052524     1.007825032230

  Basis Set: AUG-CC-PVTZ
    Blend: AUG-CC-PVTZ
  Basis Set: (AUG-CC-PVTZ AUX)
    Blend: AUG-CC-PVTZ-JKFIT
	 Reference Energy          =    -512.5429220223941229 [Eh]
	 Singles Energy            =      -0.0000000000000000 [Eh]
	 Same-Spin Energy          =      -0.5357812757355793 [Eh]
	 Opposite-Spin Energy      =      -1.6454760893546201 [Eh]
	 Correlation Energy        =      -2.1812573650901994 [Eh]
	 Total Energy              =    -514.7241793874843552 [Eh]

	 ================> DF-SCS-MP2 Energies <==================
	-----------------------------------------------------------
	 SCS Same-Spin Scale       =       0.3333333333333333 [-]
	 SCS Opposite-Spin Scale   =       1.2000000000000000 [-]
	 SCS Same-Spin Energy      =      -0.1785937585785264 [Eh]
	 SCS Opposite-Spin Energy  =      -1.9745713072255440 [Eh]
	 SCS Correlation Energy    =      -2.1531650658040702 [Eh]
	 SCS Total Energy          =    -514.6960870881981691 [Eh]
	-----------------------------------------------------------

  Dipole Moment: [D]
     X:     2.0298      Y:    -0.9639      Z:     2.8911     Total:     3.6616

*** Psi4 exiting successfully. Buy a developer a beer!
