                               Psi4 1.3.2 release

  ==> Input File <==

--------------------------------------------------------------------------
#psi4
#
memory 32 gb

molecule  {
0 1
  O        0.3703410     1.7406370     0.1509160
  O       -2.1946130     0.9173750    -0.9921890
  N       -2.7109060    -0.4412560     0.7761490
  C       -0.4510660    -0.4506100    -0.0514270
  C        0.6599990     0.4108460     0.0342650
  C       -0.2507290    -1.8313420    -0.1181570
  C        1.9473341    -0.1406130     0.2394392
  C        1.0395390    -2.3670290    -0.1196300
  C        2.1335050    -1.5087060    -0.0439110
  C       -1.8406380     0.1093760    -0.1384300
  C        1.4719710     2.6442150     0.1686120
  H       -1.1182000    -2.4830940    -0.1949200
  H        2.8227340     0.5195950     0.1104450
  H        1.1860280    -3.4416730    -0.1864270
  H        3.1441970    -1.9102760    -0.0447980
  H        2.0722720     2.5548100    -0.7428660
  H        2.1083110     2.4835370     1.0460470
  H        1.0258210     3.6366650     0.2171830
  H       -2.3391320    -0.8271260     1.6334900
  H       -3.6232280    -0.0028870     0.8299490
units angstrom
no_reorient  #important for SAPT in psi4, default
symmetry c1  #important for SAPT in psi4, default
}

set PROPERTIES_ORIGIN ["COM"]
properties('MP2/aug-cc-pvtz', properties = ['dipole'])
--------------------------------------------------------------------------

    Molecular point group: c1
  Charge       = 0
  Multiplicity = 1
  Basis Set: AUG-CC-PVTZ
    Blend: AUG-CC-PVTZ
  Basis Set: (AUG-CC-PVTZ AUX)
    Blend: AUG-CC-PVTZ-JKFIT

    Orbital Energies [Eh]
    ---------------------

    Doubly Occupied:

       1A    -20.591345     2A    -20.517302     3A    -15.583167
       4A    -11.355118     5A    -11.321174     6A    -11.287614
       7A    -11.257254     8A    -11.256654     9A    -11.248425
      10A    -11.245733    11A    -11.238300    12A     -1.414637
      13A     -1.369758    14A     -1.208170    15A     -1.157120
      16A     -1.042490    17A     -1.023300    18A     -0.949214
      19A     -0.876046    20A     -0.823631    21A     -0.788333
      22A     -0.734857    23A     -0.708955    24A     -0.680870
      25A     -0.663854    26A     -0.657967    27A     -0.639175
      28A     -0.619133    29A     -0.596699    30A     -0.580483
      31A     -0.558741    32A     -0.543791    33A     -0.531269
      34A     -0.516488    35A     -0.497696    36A     -0.474976
      37A     -0.423758    38A     -0.411884    39A     -0.352642
      40A     -0.322755

  @DF-RHF Final Energy:  -512.53381977600759

   => Energetics <=

    Nuclear Repulsion Energy =            592.1833521974166388
    One-Electron Energy =               -1873.2927951116573695
    Two-Electron Energy =                 768.5756231382332544
    Total Energy =                       -512.5338197760075900
  Basis Set: (AUG-CC-PVTZ AUX)
    Blend: AUG-CC-PVTZ-RI
    Molecular point group: c1

    Geometry (in Angstrom), charge = 0, multiplicity = 1:

       Center              X                  Y                   Z               Mass
    ------------   -----------------  -----------------  -----------------  -----------------
         O            0.405432251251     1.745515263167     0.152567641942    15.994914619570
         O           -2.159521748749     0.922253263167    -0.990537358058    15.994914619570
         N           -2.675814748749    -0.436377736833     0.777800641942    14.003074004430
         C           -0.415974748749    -0.445731736833    -0.049775358058    12.000000000000
         C            0.695090251251     0.415724263167     0.035916641942    12.000000000000
         C           -0.215637748749    -1.826463736833    -0.116505358058    12.000000000000
         C            1.982425351251    -0.135734736833     0.241090841942    12.000000000000
         C            1.074630251251    -2.362150736833    -0.117978358058    12.000000000000
         C            2.168596251251    -1.503827736833    -0.042259358058    12.000000000000
         C           -1.805546748749     0.114254263167    -0.136778358058    12.000000000000
         C            1.507062251251     2.649093263167     0.170263641942    12.000000000000
         H           -1.083108748749    -2.478215736833    -0.193268358058     1.007825032230
         H            2.857825251251     0.524473263167     0.112096641942     1.007825032230
         H            1.221119251251    -3.436794736833    -0.184775358058     1.007825032230
         H            3.179288251251    -1.905397736833    -0.043146358058     1.007825032230
         H            2.107363251251     2.559688263167    -0.741214358058     1.007825032230
         H            2.143402251251     2.488415263167     1.047698641942     1.007825032230
         H            1.060912251251     3.641543263167     0.218834641942     1.007825032230
         H           -2.304040748749    -0.822247736833     1.635141641942     1.007825032230
         H           -3.588136748749     0.001991263167     0.831600641942     1.007825032230

  Basis Set: AUG-CC-PVTZ
    Blend: AUG-CC-PVTZ
  Basis Set: (AUG-CC-PVTZ AUX)
    Blend: AUG-CC-PVTZ-JKFIT
	 Reference Energy          =    -512.5338197760075900 [Eh]
	 Singles Energy            =      -0.0000000000000000 [Eh]
	 Same-Spin Energy          =      -0.5361710113593601 [Eh]
	 Opposite-Spin Energy      =      -1.6466847209247097 [Eh]
	 Correlation Energy        =      -2.1828557322840698 [Eh]
	 Total Energy              =    -514.7166755082917007 [Eh]

	 ================> DF-SCS-MP2 Energies <==================
	-----------------------------------------------------------
	 SCS Same-Spin Scale       =       0.3333333333333333 [-]
	 SCS Opposite-Spin Scale   =       1.2000000000000000 [-]
	 SCS Same-Spin Energy      =      -0.1787236704531200 [Eh]
	 SCS Opposite-Spin Energy  =      -1.9760216651096516 [Eh]
	 SCS Correlation Energy    =      -2.1547453355627715 [Eh]
	 SCS Total Energy          =    -514.6885651115703695 [Eh]
	-----------------------------------------------------------

  Dipole Moment: [D]
     X:     1.9242      Y:    -0.9434      Z:     2.7587     Total:     3.4932

*** Psi4 exiting successfully. Buy a developer a beer!
