                               Psi4 1.3.2 release

  ==> Input File <==

--------------------------------------------------------------------------
#psi4
#
memory 32 gb

molecule  {
0 1
  O        0.3703410     1.7406370     0.1509160
  O       -2.1946130     0.9173750    -0.9921890
  N       -2.7109060    -0.4412560     0.7761490
  C       -0.4157594    -0.3401674     0.0437354
  C        0.6599990     0.4108460     0.0342650
  C       -0.2507290    -1.8313420    -0.1181570
  C        1.9527030    -0.1242260     0.0401840
  C        1.0395390    -2.3670290    -0.1196300
  C        2.1335050    -1.5087060    -0.0439110
  C       -1.8406380     0.1093760    -0.1384300
  C        1.4719710     2.6442150     0.1686120
  H       -1.1182000    -2.4830940    -0.1949200
  H        2.8227340     0.5195950     0.1104450
  H        1.1860280    -3.4416730    -0.1864270
  H        3.1441970    -1.9102760    -0.0447980
  H        2.0722720     2.5548100    -0.7428660
  H        2.1083110     2.4835370     1.0460470
  H        1.0258210     3.6366650     0.2171830
  H       -2.3391320    -0.8271260     1.6334900
  H       -3.6232280    -0.0028870     0.8299490
units angstrom
no_reorient  #important for SAPT in psi4, default
symmetry c1  #important for SAPT in psi4, default
}

set PROPERTIES_ORIGIN ["COM"]
properties('MP2/aug-cc-pvtz', properties = ['dipole'])
--------------------------------------------------------------------------

    Molecular point group: c1
  Charge       = 0
  Multiplicity = 1
  Basis Set: AUG-CC-PVTZ
    Blend: AUG-CC-PVTZ
  Basis Set: (AUG-CC-PVTZ AUX)
    Blend: AUG-CC-PVTZ-JKFIT

    Orbital Energies [Eh]
    ---------------------

    Doubly Occupied:

       1A    -20.583598     2A    -20.516746     3A    -15.581763
       4A    -11.356235     5A    -11.304228     6A    -11.284821
       7A    -11.266723     8A    -11.256603     9A    -11.246268
      10A    -11.245189    11A    -11.241704    12A     -1.412178
      13A     -1.368754    14A     -1.206718    15A     -1.158041
      16A     -1.050216    17A     -1.019740    18A     -0.945628
      19A     -0.877657    20A     -0.833652    21A     -0.783374
      22A     -0.735068    23A     -0.709388    24A     -0.677369
      25A     -0.664627    26A     -0.655496    27A     -0.644448
      28A     -0.621262    29A     -0.596221    30A     -0.573707
      31A     -0.561195    32A     -0.544128    33A     -0.531327
      34A     -0.514116    35A     -0.502408    36A     -0.472213
      37A     -0.422610    38A     -0.410220    39A     -0.341736
      40A     -0.334950

  @DF-RHF Final Energy:  -512.52493458507411

   => Energetics <=

    Nuclear Repulsion Energy =            593.2221524210839334
    One-Electron Energy =               -1875.3895192896504795
    Two-Electron Energy =                 769.6424322834925533
    Total Energy =                       -512.5249345850741065
  Basis Set: (AUG-CC-PVTZ AUX)
    Blend: AUG-CC-PVTZ-RI
    Molecular point group: c1

    Geometry (in Angstrom), charge = 0, multiplicity = 1:

       Center              X                  Y                   Z               Mass
    ------------   -----------------  -----------------  -----------------  -----------------
         O            0.402201116304     1.735440315032     0.160836449548    15.994914619570
         O           -2.162752883696     0.912178315032    -0.982268550452    15.994914619570
         N           -2.679045883696    -0.446452684968     0.786069449548    14.003074004430
         C           -0.383899283696    -0.345364084968     0.053655849548    12.000000000000
         C            0.691859116304     0.405649315032     0.044185449548    12.000000000000
         C           -0.218868883696    -1.836538684968    -0.108236550452    12.000000000000
         C            1.984563116304    -0.129422684968     0.050104449548    12.000000000000
         C            1.071399116304    -2.372225684968    -0.109709550452    12.000000000000
         C            2.165365116304    -1.513902684968    -0.033990550452    12.000000000000
         C           -1.808777883696     0.104179315032    -0.128509550452    12.000000000000
         C            1.503831116304     2.639018315032     0.178532449548    12.000000000000
         H           -1.086339883696    -2.488290684968    -0.184999550452     1.007825032230
         H            2.854594116304     0.514398315032     0.120365449548     1.007825032230
         H            1.217888116304    -3.446869684968    -0.176506550452     1.007825032230
         H            3.176057116304    -1.915472684968    -0.034877550452     1.007825032230
         H            2.104132116304     2.549613315032    -0.732945550452     1.007825032230
         H            2.140171116304     2.478340315032     1.055967449548     1.007825032230
         H            1.057681116304     3.631468315032     0.227103449548     1.007825032230
         H           -2.307271883696    -0.832322684968     1.643410449548     1.007825032230
         H           -3.591367883696    -0.008083684968     0.839869449548     1.007825032230

  Basis Set: AUG-CC-PVTZ
    Blend: AUG-CC-PVTZ
  Basis Set: (AUG-CC-PVTZ AUX)
    Blend: AUG-CC-PVTZ-JKFIT
	 Reference Energy          =    -512.5249345850741065 [Eh]
	 Singles Energy            =      -0.0000000000000000 [Eh]
	 Same-Spin Energy          =      -0.5357417109571097 [Eh]
	 Opposite-Spin Energy      =      -1.6463965200282642 [Eh]
	 Correlation Energy        =      -2.1821382309853741 [Eh]
	 Total Energy              =    -514.7070728160595081 [Eh]

	 ================> DF-SCS-MP2 Energies <==================
	-----------------------------------------------------------
	 SCS Same-Spin Scale       =       0.3333333333333333 [-]
	 SCS Opposite-Spin Scale   =       1.2000000000000000 [-]
	 SCS Same-Spin Energy      =      -0.1785805703190365 [Eh]
	 SCS Opposite-Spin Energy  =      -1.9756758240339169 [Eh]
	 SCS Correlation Energy    =      -2.1542563943529536 [Eh]
	 SCS Total Energy          =    -514.6791909794270623 [Eh]
	-----------------------------------------------------------

  Dipole Moment: [D]
     X:     2.0869      Y:    -1.0732      Z:     2.8681     Total:     3.7059

*** Psi4 exiting successfully. Buy a developer a beer!
