                               Psi4 1.3.2 release

  ==> Input File <==

--------------------------------------------------------------------------
#psi4
#
memory 32 gb

molecule  {
0 1
  O        0.3703410     1.7406370     0.1509160
  O       -2.1946130     0.9173750    -0.9921890
  N       -2.7109060    -0.4412560     0.7761490
  C       -0.4510660    -0.4506100    -0.0514270
  C        0.6599990     0.4108460     0.0342650
  C       -0.2507290    -1.8313420    -0.1181570
  C        1.9527030    -0.1242260     0.0401840
  C        1.0395390    -2.3670290    -0.1196300
  C        2.1335050    -1.5087060    -0.0439110
  C       -1.8246849     0.1198414    -0.3877009
  C        1.4719710     2.6442150     0.1686120
  H       -1.1182000    -2.4830940    -0.1949200
  H        2.8227340     0.5195950     0.1104450
  H        1.1860280    -3.4416730    -0.1864270
  H        3.1441970    -1.9102760    -0.0447980
  H        2.0722720     2.5548100    -0.7428660
  H        2.1083110     2.4835370     1.0460470
  H        1.0258210     3.6366650     0.2171830
  H       -2.3391320    -0.8271260     1.6334900
  H       -3.6232280    -0.0028870     0.8299490
units angstrom
no_reorient  #important for SAPT in psi4, default
symmetry c1  #important for SAPT in psi4, default
}

set PROPERTIES_ORIGIN ["COM"]
properties('MP2/aug-cc-pvtz', properties = ['dipole'])
--------------------------------------------------------------------------

    Molecular point group: c1
  Charge       = 0
  Multiplicity = 1
  Basis Set: AUG-CC-PVTZ
    Blend: AUG-CC-PVTZ
  Basis Set: (AUG-CC-PVTZ AUX)
    Blend: AUG-CC-PVTZ-JKFIT

    Orbital Energies [Eh]
    ---------------------

    Doubly Occupied:

       1A    -20.594564     2A    -20.557570     3A    -15.534879
       4A    -11.355250     5A    -11.319202     6A    -11.290945
       7A    -11.255318     8A    -11.255116     9A    -11.250385
      10A    -11.244055    11A    -11.238815    12A     -1.505668
      13A     -1.417057    14A     -1.165309    15A     -1.127353
      16A     -1.041162    17A     -1.025721    18A     -0.951747
      19A     -0.871503    20A     -0.823673    21A     -0.773185
      22A     -0.727436    23A     -0.702686    24A     -0.687702
      25A     -0.673622    26A     -0.661251    27A     -0.644384
      28A     -0.631803    29A     -0.619224    30A     -0.607968
      31A     -0.585805    32A     -0.549788    33A     -0.533137
      34A     -0.522001    35A     -0.505944    36A     -0.478674
      37A     -0.424596    38A     -0.386435    39A     -0.350821
      40A     -0.323783

  @DF-RHF Final Energy:  -512.48424646361195

   => Energetics <=

    Nuclear Repulsion Energy =            593.2073048913001685
    One-Electron Energy =               -1874.9520259338758024
    Two-Electron Energy =                 769.2604745789637946
    Total Energy =                       -512.4842464636119530
  Basis Set: (AUG-CC-PVTZ AUX)
    Blend: AUG-CC-PVTZ-RI
    Molecular point group: c1

    Geometry (in Angstrom), charge = 0, multiplicity = 1:

       Center              X                  Y                   Z               Mass
    ------------   -----------------  -----------------  -----------------  -----------------
         O            0.403738498025     1.743382192202     0.188197157406    15.994914619570
         O           -2.161215501975     0.920120192202    -0.954907842594    15.994914619570
         N           -2.677508501975    -0.438510807798     0.813430157406    14.003074004430
         C           -0.417668501975    -0.447864807798    -0.014145842594    12.000000000000
         C            0.693396498025     0.413591192202     0.071546157406    12.000000000000
         C           -0.217331501975    -1.828596807798    -0.080875842594    12.000000000000
         C            1.986100498025    -0.121480807798     0.077465157406    12.000000000000
         C            1.072936498025    -2.364283807798    -0.082348842594    12.000000000000
         C            2.166902498025    -1.505960807798    -0.006629842594    12.000000000000
         C           -1.791287401975     0.122586592202    -0.350419742594    12.000000000000
         C            1.505368498025     2.646960192202     0.205893157406    12.000000000000
         H           -1.084802501975    -2.480348807798    -0.157638842594     1.007825032230
         H            2.856131498025     0.522340192202     0.147726157406     1.007825032230
         H            1.219425498025    -3.438927807798    -0.149145842594     1.007825032230
         H            3.177594498025    -1.907530807798    -0.007516842594     1.007825032230
         H            2.105669498025     2.557555192202    -0.705584842594     1.007825032230
         H            2.141708498025     2.486282192202     1.083328157406     1.007825032230
         H            1.059218498025     3.639410192202     0.254464157406     1.007825032230
         H           -2.305734501975    -0.824380807798     1.670771157406     1.007825032230
         H           -3.589830501975    -0.000141807798     0.867230157406     1.007825032230

  Basis Set: AUG-CC-PVTZ
    Blend: AUG-CC-PVTZ
  Basis Set: (AUG-CC-PVTZ AUX)
    Blend: AUG-CC-PVTZ-JKFIT
	 Reference Energy          =    -512.4842464636119530 [Eh]
	 Singles Energy            =      -0.0000000000000000 [Eh]
	 Same-Spin Energy          =      -0.5333053984662572 [Eh]
	 Opposite-Spin Energy      =      -1.6414601272822740 [Eh]
	 Correlation Energy        =      -2.1747655257485312 [Eh]
	 Total Energy              =    -514.6590119893604651 [Eh]

	 ================> DF-SCS-MP2 Energies <==================
	-----------------------------------------------------------
	 SCS Same-Spin Scale       =       0.3333333333333333 [-]
	 SCS Opposite-Spin Scale   =       1.2000000000000000 [-]
	 SCS Same-Spin Energy      =      -0.1777684661554191 [Eh]
	 SCS Opposite-Spin Energy  =      -1.9697521527387287 [Eh]
	 SCS Correlation Energy    =      -2.1475206188941476 [Eh]
	 SCS Total Energy          =    -514.6317670825061441 [Eh]
	-----------------------------------------------------------

  Dipole Moment: [D]
     X:     2.7289      Y:    -0.0782      Z:     1.2526     Total:     3.0037

*** Psi4 exiting successfully. Buy a developer a beer!
