                               Psi4 1.3.2 release

  ==> Input File <==

--------------------------------------------------------------------------
#psi4
#
memory 32 gb

molecule  {
0 1
  O        0.3703410     1.7406370     0.1509160
  O       -2.1946130     0.9173750    -0.9921890
  N       -2.7109060    -0.4412560     0.7761490
  C       -0.3922217    -0.2665390     0.1071770
  C        0.6599990     0.4108460     0.0342650
  C       -0.2507290    -1.8313420    -0.1181570
  C        1.9527030    -0.1242260     0.0401840
  C        1.0395390    -2.3670290    -0.1196300
  C        2.1335050    -1.5087060    -0.0439110
  C       -1.8406380     0.1093760    -0.1384300
  C        1.4719710     2.6442150     0.1686120
  H       -1.1182000    -2.4830940    -0.1949200
  H        2.8227340     0.5195950     0.1104450
  H        1.1860280    -3.4416730    -0.1864270
  H        3.1441970    -1.9102760    -0.0447980
  H        2.0722720     2.5548100    -0.7428660
  H        2.1083110     2.4835370     1.0460470
  H        1.0258210     3.6366650     0.2171830
  H       -2.3391320    -0.8271260     1.6334900
  H       -3.6232280    -0.0028870     0.8299490
units angstrom
no_reorient  #important for SAPT in psi4, default
symmetry c1  #important for SAPT in psi4, default
}

set PROPERTIES_ORIGIN ["COM"]
properties('MP2/aug-cc-pvtz', properties = ['dipole'])
--------------------------------------------------------------------------

    Molecular point group: c1
  Charge       = 0
  Multiplicity = 1
  Basis Set: AUG-CC-PVTZ
    Blend: AUG-CC-PVTZ
  Basis Set: (AUG-CC-PVTZ AUX)
    Blend: AUG-CC-PVTZ-JKFIT

    Orbital Energies [Eh]
    ---------------------

    Doubly Occupied:

       1A    -20.579070     2A    -20.517268     3A    -15.581472
       4A    -11.358660     5A    -11.294814     6A    -11.282790
       7A    -11.271872     8A    -11.258331     9A    -11.248025
      10A    -11.243433    11A    -11.242708    12A     -1.411835
      13A     -1.368733    14A     -1.206272    15A     -1.159173
      16A     -1.058552    17A     -1.014532    18A     -0.942440
      19A     -0.876930    20A     -0.839482    21A     -0.779401
      22A     -0.734579    23A     -0.711234    24A     -0.674801
      25A     -0.664415    26A     -0.653932    27A     -0.646567
      28A     -0.619360    29A     -0.595813    30A     -0.569077
      31A     -0.563381    32A     -0.545383    33A     -0.531884
      34A     -0.506467    35A     -0.500250    36A     -0.470132
      37A     -0.420473    38A     -0.409182    39A     -0.346842
      40A     -0.333417

  @DF-RHF Final Energy:  -512.48993369899949

   => Energetics <=

    Nuclear Repulsion Energy =            593.5570679116277688
    One-Electron Energy =               -1876.0280426756642100
    Two-Electron Energy =                 769.9810410650368340
    Total Energy =                       -512.4899336989994936
  Basis Set: (AUG-CC-PVTZ AUX)
    Blend: AUG-CC-PVTZ-RI
    Molecular point group: c1

    Geometry (in Angstrom), charge = 0, multiplicity = 1:

       Center              X                  Y                   Z               Mass
    ------------   -----------------  -----------------  -----------------  -----------------
         O            0.400331354776     1.729591504414     0.155796846573    15.994914619570
         O           -2.164622645224     0.906329504414    -0.987308153427    15.994914619570
         N           -2.680915645224    -0.452301495586     0.781029846573    14.003074004430
         C           -0.362231345224    -0.277584495586     0.112057846573    12.000000000000
         C            0.689989354776     0.399800504414     0.039145846573    12.000000000000
         C           -0.220738645224    -1.842387495586    -0.113276153427    12.000000000000
         C            1.982693354776    -0.135271495586     0.045064846573    12.000000000000
         C            1.069529354776    -2.378074495586    -0.114749153427    12.000000000000
         C            2.163495354776    -1.519751495586    -0.039030153427    12.000000000000
         C           -1.810647645224     0.098330504414    -0.133549153427    12.000000000000
         C            1.501961354776     2.633169504414     0.173492846573    12.000000000000
         H           -1.088209645224    -2.494139495586    -0.190039153427     1.007825032230
         H            2.852724354776     0.508549504414     0.115325846573     1.007825032230
         H            1.216018354776    -3.452718495586    -0.181546153427     1.007825032230
         H            3.174187354776    -1.921321495586    -0.039917153427     1.007825032230
         H            2.102262354776     2.543764504414    -0.737985153427     1.007825032230
         H            2.138301354776     2.472491504414     1.050927846573     1.007825032230
         H            1.055811354776     3.625619504414     0.222063846573     1.007825032230
         H           -2.309141645224    -0.838171495586     1.638370846573     1.007825032230
         H           -3.593237645224    -0.013932495586     0.834829846573     1.007825032230

  Basis Set: AUG-CC-PVTZ
    Blend: AUG-CC-PVTZ
  Basis Set: (AUG-CC-PVTZ AUX)
    Blend: AUG-CC-PVTZ-JKFIT
	 Reference Energy          =    -512.4899336989994936 [Eh]
	 Singles Energy            =      -0.0000000000000000 [Eh]
	 Same-Spin Energy          =      -0.5356419343233441 [Eh]
	 Opposite-Spin Energy      =      -1.6481077096127295 [Eh]
	 Correlation Energy        =      -2.1837496439360735 [Eh]
	 Total Energy              =    -514.6736833429355329 [Eh]

	 ================> DF-SCS-MP2 Energies <==================
	-----------------------------------------------------------
	 SCS Same-Spin Scale       =       0.3333333333333333 [-]
	 SCS Opposite-Spin Scale   =       1.2000000000000000 [-]
	 SCS Same-Spin Energy      =      -0.1785473114411147 [Eh]
	 SCS Opposite-Spin Energy  =      -1.9777292515352753 [Eh]
	 SCS Correlation Energy    =      -2.1562765629763900 [Eh]
	 SCS Total Energy          =    -514.6462102619758525 [Eh]
	-----------------------------------------------------------

  Dipole Moment: [D]
     X:     2.1293      Y:    -1.1827      Z:     2.8377     Total:     3.7397

*** Psi4 exiting successfully. Buy a developer a beer!
