                               Psi4 1.3.2 release

  ==> Input File <==

--------------------------------------------------------------------------
#psi4
#
memory 32 gb

molecule  {
0 1
  O        0.3703410     1.7406370     0.1509160
  O       -2.1946130     0.9173750    -0.9921890
  N       -2.7109060    -0.4412560     0.7761490
  C       -0.4510660    -0.4506100    -0.0514270
  C        0.6599990     0.4108460     0.0342650
  C       -0.2507290    -1.8313420    -0.1181570
  C        1.9527030    -0.1242260     0.0401840
  C        1.0395390    -2.3670290    -0.1196300
  C        2.1335050    -1.5087060    -0.0439110
  C       -1.8406380     0.1093760    -0.1384300
  C        1.4719710     2.6442150     0.1686120
  H       -1.1150419    -2.4770869    -0.2946894
  H        2.8227340     0.5195950     0.1104450
  H        1.1860280    -3.4416730    -0.1864270
  H        3.1441970    -1.9102760    -0.0447980
  H        2.0722720     2.5548100    -0.7428660
  H        2.1083110     2.4835370     1.0460470
  H        1.0258210     3.6366650     0.2171830
  H       -2.3391320    -0.8271260     1.6334900
  H       -3.6232280    -0.0028870     0.8299490
units angstrom
no_reorient  #important for SAPT in psi4, default
symmetry c1  #important for SAPT in psi4, default
}

set PROPERTIES_ORIGIN ["COM"]
properties('MP2/aug-cc-pvtz', properties = ['dipole'])
--------------------------------------------------------------------------

    Molecular point group: c1
  Charge       = 0
  Multiplicity = 1
  Basis Set: AUG-CC-PVTZ
    Blend: AUG-CC-PVTZ
  Basis Set: (AUG-CC-PVTZ AUX)
    Blend: AUG-CC-PVTZ-JKFIT

    Orbital Energies [Eh]
    ---------------------

    Doubly Occupied:

       1A    -20.590362     2A    -20.517260     3A    -15.582698
       4A    -11.354895     5A    -11.317453     6A    -11.287685
       7A    -11.255681     8A    -11.254124     9A    -11.248365
      10A    -11.242894    11A    -11.238556    12A     -1.413917
      13A     -1.369576    14A     -1.207684    15A     -1.157910
      16A     -1.042812    17A     -1.024589    18A     -0.949533
      19A     -0.877083    20A     -0.823940    21A     -0.789249
      22A     -0.735165    23A     -0.708919    24A     -0.681747
      25A     -0.665740    26A     -0.657161    27A     -0.639056
      28A     -0.623064    29A     -0.596614    30A     -0.582181
      31A     -0.557454    32A     -0.543360    33A     -0.531426
      34A     -0.517919    35A     -0.500133    36A     -0.475885
      37A     -0.424042    38A     -0.411561    39A     -0.352243
      40A     -0.322817

  @DF-RHF Final Energy:  -512.54468086271538

   => Energetics <=

    Nuclear Repulsion Energy =            592.6285348245118030
    One-Electron Energy =               -1874.2009305431527082
    Two-Electron Energy =                 769.0277148559256375
    Total Energy =                       -512.5446808627153814
  Basis Set: (AUG-CC-PVTZ AUX)
    Blend: AUG-CC-PVTZ-RI
    Molecular point group: c1

    Geometry (in Angstrom), charge = 0, multiplicity = 1:

       Center              X                  Y                   Z               Mass
    ------------   -----------------  -----------------  -----------------  -----------------
         O            0.404984693177     1.744173454353     0.169061469550    15.994914619570
         O           -2.159969306823     0.920911454353    -0.974043530450    15.994914619570
         N           -2.676262306823    -0.437719545647     0.794294469550    14.003074004430
         C           -0.416422306823    -0.447073545647    -0.033281530450    12.000000000000
         C            0.694642693177     0.414382454353     0.052410469550    12.000000000000
         C           -0.216085306823    -1.827805545647    -0.100011530450    12.000000000000
         C            1.987346693177    -0.120689545647     0.058329469550    12.000000000000
         C            1.074182693177    -2.363492545647    -0.101484530450    12.000000000000
         C            2.168148693177    -1.505169545647    -0.025765530450    12.000000000000
         C           -1.805994306823     0.112912454353    -0.120284530450    12.000000000000
         C            1.506614693177     2.647751454353     0.186757469550    12.000000000000
         H           -1.080398206823    -2.473550445647    -0.276543930450     1.007825032230
         H            2.857377693177     0.523131454353     0.128590469550     1.007825032230
         H            1.220671693177    -3.438136545647    -0.168281530450     1.007825032230
         H            3.178840693177    -1.906739545647    -0.026652530450     1.007825032230
         H            2.106915693177     2.558346454353    -0.724720530450     1.007825032230
         H            2.142954693177     2.487073454353     1.064192469550     1.007825032230
         H            1.060464693177     3.640201454353     0.235328469550     1.007825032230
         H           -2.304488306823    -0.823589545647     1.651635469550     1.007825032230
         H           -3.588584306823     0.000649454353     0.848094469550     1.007825032230

  Basis Set: AUG-CC-PVTZ
    Blend: AUG-CC-PVTZ
  Basis Set: (AUG-CC-PVTZ AUX)
    Blend: AUG-CC-PVTZ-JKFIT
	 Reference Energy          =    -512.5446808627153814 [Eh]
	 Singles Energy            =      -0.0000000000000000 [Eh]
	 Same-Spin Energy          =      -0.5357583526480292 [Eh]
	 Opposite-Spin Energy      =      -1.6453882993286715 [Eh]
	 Correlation Energy        =      -2.1811466519767007 [Eh]
	 Total Energy              =    -514.7258275146921278 [Eh]

	 ================> DF-SCS-MP2 Energies <==================
	-----------------------------------------------------------
	 SCS Same-Spin Scale       =       0.3333333333333333 [-]
	 SCS Opposite-Spin Scale   =       1.2000000000000000 [-]
	 SCS Same-Spin Energy      =      -0.1785861175493431 [Eh]
	 SCS Opposite-Spin Energy  =      -1.9744659591944056 [Eh]
	 SCS Correlation Energy    =      -2.1530520767437489 [Eh]
	 SCS Total Energy          =    -514.6977329394591152 [Eh]
	-----------------------------------------------------------

  Dipole Moment: [D]
     X:     2.0088      Y:    -0.9094      Z:     2.8423     Total:     3.5973

*** Psi4 exiting successfully. Buy a developer a beer!
