                               Psi4 1.3.2 release

  ==> Input File <==

--------------------------------------------------------------------------
#psi4
#
memory 32 gb

molecule  {
0 1
  O        0.3703410     1.7406370     0.1509160
  O       -2.1946130     0.9173750    -0.9921890
  N       -2.7109060    -0.4412560     0.7761490
  C       -0.4510660    -0.4506100    -0.0514270
  C        0.6599990     0.4108460     0.0342650
  C       -0.2507290    -1.8313420    -0.1181570
  C        1.9527030    -0.1242260     0.0401840
  C        1.0395390    -2.3670290    -0.1196300
  C        2.1335050    -1.5087060    -0.0439110
  C       -1.8406380     0.1093760    -0.1384300
  C        1.4719710     2.6442150     0.1686120
  H       -1.1166209    -2.4800905    -0.2448047
  H        2.8227340     0.5195950     0.1104450
  H        1.1860280    -3.4416730    -0.1864270
  H        3.1441970    -1.9102760    -0.0447980
  H        2.0722720     2.5548100    -0.7428660
  H        2.1083110     2.4835370     1.0460470
  H        1.0258210     3.6366650     0.2171830
  H       -2.3391320    -0.8271260     1.6334900
  H       -3.6232280    -0.0028870     0.8299490
units angstrom
no_reorient  #important for SAPT in psi4, default
symmetry c1  #important for SAPT in psi4, default
}

set PROPERTIES_ORIGIN ["COM"]
properties('MP2/aug-cc-pvtz', properties = ['dipole'])
--------------------------------------------------------------------------

    Molecular point group: c1
  Charge       = 0
  Multiplicity = 1
  Basis Set: AUG-CC-PVTZ
    Blend: AUG-CC-PVTZ
  Basis Set: (AUG-CC-PVTZ AUX)
    Blend: AUG-CC-PVTZ-JKFIT

    Orbital Energies [Eh]
    ---------------------

    Doubly Occupied:

       1A    -20.590355     2A    -20.517326     3A    -15.582757
       4A    -11.354970     5A    -11.317425     6A    -11.287670
       7A    -11.255414     8A    -11.254106     9A    -11.248302
      10A    -11.242782    11A    -11.238464    12A     -1.413905
      13A     -1.369619    14A     -1.207782    15A     -1.157892
      16A     -1.042810    17A     -1.024650    18A     -0.949512
      19A     -0.877151    20A     -0.824191    21A     -0.789264
      22A     -0.735359    23A     -0.708974    24A     -0.681751
      25A     -0.665799    26A     -0.657137    27A     -0.639217
      28A     -0.623417    29A     -0.596590    30A     -0.582187
      31A     -0.557883    32A     -0.543515    33A     -0.530839
      34A     -0.518341    35A     -0.500291    36A     -0.475882
      37A     -0.424072    38A     -0.411593    39A     -0.352294
      40A     -0.322795

  @DF-RHF Final Energy:  -512.54520256193280

   => Energetics <=

    Nuclear Repulsion Energy =            592.6496213225688052
    One-Electron Energy =               -1874.2410816730762235
    Two-Electron Energy =                 769.0462577885747351
    Total Energy =                       -512.5452025619327969
  Basis Set: (AUG-CC-PVTZ AUX)
    Blend: AUG-CC-PVTZ-RI
    Molecular point group: c1

    Geometry (in Angstrom), charge = 0, multiplicity = 1:

       Center              X                  Y                   Z               Mass
    ------------   -----------------  -----------------  -----------------  -----------------
         O            0.404995227539     1.744193492990     0.168728661781    15.994914619570
         O           -2.159958772461     0.920931492990    -0.974376338219    15.994914619570
         N           -2.676251772461    -0.437699507010     0.793961661781    14.003074004430
         C           -0.416411772461    -0.447053507010    -0.033614338219    12.000000000000
         C            0.694653227539     0.414402492990     0.052077661781    12.000000000000
         C           -0.216074772461    -1.827785507010    -0.100344338219    12.000000000000
         C            1.987357227539    -0.120669507010     0.057996661781    12.000000000000
         C            1.074193227539    -2.363472507010    -0.101817338219    12.000000000000
         C            2.168159227539    -1.505149507010    -0.026098338219    12.000000000000
         C           -1.805983772461     0.112932492990    -0.120617338219    12.000000000000
         C            1.506625227539     2.647771492990     0.186424661781    12.000000000000
         H           -1.081966672461    -2.476534007010    -0.226992038219     1.007825032230
         H            2.857388227539     0.523151492990     0.128257661781     1.007825032230
         H            1.220682227539    -3.438116507010    -0.168614338219     1.007825032230
         H            3.178851227539    -1.906719507010    -0.026985338219     1.007825032230
         H            2.106926227539     2.558366492990    -0.725053338219     1.007825032230
         H            2.142965227539     2.487093492990     1.063859661781     1.007825032230
         H            1.060475227539     3.640221492990     0.234995661781     1.007825032230
         H           -2.304477772461    -0.823569507010     1.651302661781     1.007825032230
         H           -3.588573772461     0.000669492990     0.847761661781     1.007825032230

  Basis Set: AUG-CC-PVTZ
    Blend: AUG-CC-PVTZ
  Basis Set: (AUG-CC-PVTZ AUX)
    Blend: AUG-CC-PVTZ-JKFIT
	 Reference Energy          =    -512.5452025619327969 [Eh]
	 Singles Energy            =      -0.0000000000000000 [Eh]
	 Same-Spin Energy          =      -0.5357213962404896 [Eh]
	 Opposite-Spin Energy      =      -1.6453152553978647 [Eh]
	 Correlation Energy        =      -2.1810366516383546 [Eh]
	 Total Energy              =    -514.7262392135711480 [Eh]

	 ================> DF-SCS-MP2 Energies <==================
	-----------------------------------------------------------
	 SCS Same-Spin Scale       =       0.3333333333333333 [-]
	 SCS Opposite-Spin Scale   =       1.2000000000000000 [-]
	 SCS Same-Spin Energy      =      -0.1785737987468299 [Eh]
	 SCS Opposite-Spin Energy  =      -1.9743783064774376 [Eh]
	 SCS Correlation Energy    =      -2.1529521052242675 [Eh]
	 SCS Total Energy          =    -514.6981546671570413 [Eh]
	-----------------------------------------------------------

  Dipole Moment: [D]
     X:     2.0014      Y:    -0.9129      Z:     2.8708     Total:     3.6167

*** Psi4 exiting successfully. Buy a developer a beer!
