                               Psi4 1.3.2 release

  ==> Input File <==

--------------------------------------------------------------------------
#psi4
#
memory 32 gb

molecule  {
0 1
  O        0.3703410     1.7406370     0.1509160
  O       -2.1946130     0.9173750    -0.9921890
  N       -2.7109060    -0.4412560     0.7761490
  C       -0.4510660    -0.4506100    -0.0514270
  C        0.6599990     0.4108460     0.0342650
  C       -0.2507290    -1.8313420    -0.1181570
  C        1.9527030    -0.1242260     0.0401840
  C        1.0395390    -2.3670290    -0.1196300
  C        2.1335050    -1.5087060    -0.0439110
  C       -1.8406380     0.1093760    -0.1384300
  C        1.4719710     2.6442150     0.1686120
  H       -1.1134628    -2.4740834    -0.3445742
  H        2.8227340     0.5195950     0.1104450
  H        1.1860280    -3.4416730    -0.1864270
  H        3.1441970    -1.9102760    -0.0447980
  H        2.0722720     2.5548100    -0.7428660
  H        2.1083110     2.4835370     1.0460470
  H        1.0258210     3.6366650     0.2171830
  H       -2.3391320    -0.8271260     1.6334900
  H       -3.6232280    -0.0028870     0.8299490
units angstrom
no_reorient  #important for SAPT in psi4, default
symmetry c1  #important for SAPT in psi4, default
}

set PROPERTIES_ORIGIN ["COM"]
properties('MP2/aug-cc-pvtz', properties = ['dipole'])
--------------------------------------------------------------------------

    Molecular point group: c1
  Charge       = 0
  Multiplicity = 1
  Basis Set: AUG-CC-PVTZ
    Blend: AUG-CC-PVTZ
  Basis Set: (AUG-CC-PVTZ AUX)
    Blend: AUG-CC-PVTZ-JKFIT

    Orbital Energies [Eh]
    ---------------------

    Doubly Occupied:

       1A    -20.590378     2A    -20.517199     3A    -15.582629
       4A    -11.354824     5A    -11.317496     6A    -11.287711
       7A    -11.256142     8A    -11.254156     9A    -11.248467
      10A    -11.243048    11A    -11.238687    12A     -1.413940
      13A     -1.369535    14A     -1.207578    15A     -1.157937
      16A     -1.042819    17A     -1.024494    18A     -0.949568
      19A     -0.876994    20A     -0.823565    21A     -0.789242
      22A     -0.734940    23A     -0.708793    24A     -0.681755
      25A     -0.665695    26A     -0.657197    27A     -0.638873
      28A     -0.622449    29A     -0.596623    30A     -0.582174
      31A     -0.557008    32A     -0.543199    33A     -0.532001
      34A     -0.517459    35A     -0.499959    36A     -0.475791
      37A     -0.424017    38A     -0.411519    39A     -0.352163
      40A     -0.322851

  @DF-RHF Final Energy:  -512.54380074657649

   => Energetics <=

    Nuclear Repulsion Energy =            592.5983144555598301
    One-Electron Energy =               -1874.1424742827675800
    Two-Electron Energy =                 769.0003590806312559
    Total Energy =                       -512.5438007465764940
  Basis Set: (AUG-CC-PVTZ AUX)
    Blend: AUG-CC-PVTZ-RI
    Molecular point group: c1

    Geometry (in Angstrom), charge = 0, multiplicity = 1:

       Center              X                  Y                   Z               Mass
    ------------   -----------------  -----------------  -----------------  -----------------
         O            0.404974158149     1.744153416382     0.169394277987    15.994914619570
         O           -2.159979841851     0.920891416382    -0.973710722013    15.994914619570
         N           -2.676272841851    -0.437739583618     0.794627277987    14.003074004430
         C           -0.416432841851    -0.447093583618    -0.032948722013    12.000000000000
         C            0.694632158149     0.414362416382     0.052743277987    12.000000000000
         C           -0.216095841851    -1.827825583618    -0.099678722013    12.000000000000
         C            1.987336158149    -0.120709583618     0.058662277987    12.000000000000
         C            1.074172158149    -2.363512583618    -0.101151722013    12.000000000000
         C            2.168138158149    -1.505189583618    -0.025432722013    12.000000000000
         C           -1.806004841851     0.112892416382    -0.119951722013    12.000000000000
         C            1.506604158149     2.647731416382     0.187090277987    12.000000000000
         H           -1.078829641851    -2.470566983618    -0.326095922013     1.007825032230
         H            2.857367158149     0.523111416382     0.128923277987     1.007825032230
         H            1.220661158149    -3.438156583618    -0.167948722013     1.007825032230
         H            3.178830158149    -1.906759583618    -0.026319722013     1.007825032230
         H            2.106905158149     2.558326416382    -0.724387722013     1.007825032230
         H            2.142944158149     2.487053416382     1.064525277987     1.007825032230
         H            1.060454158149     3.640181416382     0.235661277987     1.007825032230
         H           -2.304498841851    -0.823609583618     1.651968277987     1.007825032230
         H           -3.588594841851     0.000629416382     0.848427277987     1.007825032230

  Basis Set: AUG-CC-PVTZ
    Blend: AUG-CC-PVTZ
  Basis Set: (AUG-CC-PVTZ AUX)
    Blend: AUG-CC-PVTZ-JKFIT
	 Reference Energy          =    -512.5438007465764940 [Eh]
	 Singles Energy            =      -0.0000000000000000 [Eh]
	 Same-Spin Energy          =      -0.5358174840932415 [Eh]
	 Opposite-Spin Energy      =      -1.6455109609907974 [Eh]
	 Correlation Energy        =      -2.1813284450840387 [Eh]
	 Total Energy              =    -514.7251291916605851 [Eh]

	 ================> DF-SCS-MP2 Energies <==================
	-----------------------------------------------------------
	 SCS Same-Spin Scale       =       0.3333333333333333 [-]
	 SCS Opposite-Spin Scale   =       1.2000000000000000 [-]
	 SCS Same-Spin Energy      =      -0.1786058280310805 [Eh]
	 SCS Opposite-Spin Energy  =      -1.9746131531889568 [Eh]
	 SCS Correlation Energy    =      -2.1532189812200375 [Eh]
	 SCS Total Energy          =    -514.6970197277964871 [Eh]
	-----------------------------------------------------------

  Dipole Moment: [D]
     X:     2.0190      Y:    -0.9034      Z:     2.8143     Total:     3.5795

*** Psi4 exiting successfully. Buy a developer a beer!
