                               Psi4 1.3.2 release

  ==> Input File <==

--------------------------------------------------------------------------
#psi4
#
memory 32 gb

molecule  {
0 1
  O        0.3703410     1.7406370     0.1509160
  O       -2.1946130     0.9173750    -0.9921890
  N       -2.7109060    -0.4412560     0.7761490
  C       -0.4275283    -0.3769816     0.0120146
  C        0.6599990     0.4108460     0.0342650
  C       -0.2507290    -1.8313420    -0.1181570
  C        1.9527030    -0.1242260     0.0401840
  C        1.0395390    -2.3670290    -0.1196300
  C        2.1335050    -1.5087060    -0.0439110
  C       -1.8406380     0.1093760    -0.1384300
  C        1.4719710     2.6442150     0.1686120
  H       -1.1182000    -2.4830940    -0.1949200
  H        2.8227340     0.5195950     0.1104450
  H        1.1860280    -3.4416730    -0.1864270
  H        3.1441970    -1.9102760    -0.0447980
  H        2.0722720     2.5548100    -0.7428660
  H        2.1083110     2.4835370     1.0460470
  H        1.0258210     3.6366650     0.2171830
  H       -2.3391320    -0.8271260     1.6334900
  H       -3.6232280    -0.0028870     0.8299490
units angstrom
no_reorient  #important for SAPT in psi4, default
symmetry c1  #important for SAPT in psi4, default
}

set PROPERTIES_ORIGIN ["COM"]
properties('MP2/aug-cc-pvtz', properties = ['dipole'])
--------------------------------------------------------------------------

    Molecular point group: c1
  Charge       = 0
  Multiplicity = 1
  Basis Set: AUG-CC-PVTZ
    Blend: AUG-CC-PVTZ
  Basis Set: (AUG-CC-PVTZ AUX)
    Blend: AUG-CC-PVTZ-JKFIT

    Orbital Energies [Eh]
    ---------------------

    Doubly Occupied:

       1A    -20.585920     2A    -20.516785     3A    -15.582030
       4A    -11.355526     5A    -11.308861     6A    -11.285828
       7A    -11.263373     8A    -11.255741     9A    -11.246391
      10A    -11.245189    11A    -11.240664    12A     -1.412667
      13A     -1.368957    14A     -1.207041    15A     -1.157744
      16A     -1.046606    17A     -1.022210    18A     -0.947074
      19A     -0.877716    20A     -0.830425    21A     -0.785482
      22A     -0.735257    23A     -0.708854    24A     -0.678900
      25A     -0.664990    26A     -0.656129    27A     -0.642932
      28A     -0.622117    29A     -0.596385    30A     -0.576493
      31A     -0.560130    32A     -0.543811    33A     -0.530991
      34A     -0.516761    35A     -0.502330    36A     -0.473342
      37A     -0.423337    38A     -0.410669    39A     -0.344396
      40A     -0.331177

  @DF-RHF Final Energy:  -512.53608449429055

   => Energetics <=

    Nuclear Repulsion Energy =            593.0419953122993775
    One-Electron Energy =               -1875.0337001185353074
    Two-Electron Energy =                 769.4556203119453812
    Total Energy =                       -512.5360844942905487
  Basis Set: (AUG-CC-PVTZ AUX)
    Blend: AUG-CC-PVTZ-RI
    Molecular point group: c1

    Geometry (in Angstrom), charge = 0, multiplicity = 1:

       Center              X                  Y                   Z               Mass
    ------------   -----------------  -----------------  -----------------  -----------------
         O            0.403136001040     1.738364720342     0.163356251036    15.994914619570
         O           -2.161817998960     0.915102720342    -0.979748748964    15.994914619570
         N           -2.678110998960    -0.443528279658     0.788589251036    14.003074004430
         C           -0.394733298960    -0.379253879658     0.024454851036    12.000000000000
         C            0.692794001040     0.408573720342     0.046705251036    12.000000000000
         C           -0.217933998960    -1.833614279658    -0.105716748964    12.000000000000
         C            1.985498001040    -0.126498279658     0.052624251036    12.000000000000
         C            1.072334001040    -2.369301279658    -0.107189748964    12.000000000000
         C            2.166300001040    -1.510978279658    -0.031470748964    12.000000000000
         C           -1.807842998960     0.107103720342    -0.125989748964    12.000000000000
         C            1.504766001040     2.641942720342     0.181052251036    12.000000000000
         H           -1.085404998960    -2.485366279658    -0.182479748964     1.007825032230
         H            2.855529001040     0.517322720342     0.122885251036     1.007825032230
         H            1.218823001040    -3.443945279658    -0.173986748964     1.007825032230
         H            3.176992001040    -1.912548279658    -0.032357748964     1.007825032230
         H            2.105067001040     2.552537720342    -0.730425748964     1.007825032230
         H            2.141106001040     2.481264720342     1.058487251036     1.007825032230
         H            1.058616001040     3.634392720342     0.229623251036     1.007825032230
         H           -2.306336998960    -0.829398279658     1.645930251036     1.007825032230
         H           -3.590432998960    -0.005159279658     0.842389251036     1.007825032230

  Basis Set: AUG-CC-PVTZ
    Blend: AUG-CC-PVTZ
  Basis Set: (AUG-CC-PVTZ AUX)
    Blend: AUG-CC-PVTZ-JKFIT
	 Reference Energy          =    -512.5360844942905487 [Eh]
	 Singles Energy            =      -0.0000000000000000 [Eh]
	 Same-Spin Energy          =      -0.5357865831452964 [Eh]
	 Opposite-Spin Energy      =      -1.6458408823130037 [Eh]
	 Correlation Energy        =      -2.1816274654583001 [Eh]
	 Total Energy              =    -514.7177119597488399 [Eh]

	 ================> DF-SCS-MP2 Energies <==================
	-----------------------------------------------------------
	 SCS Same-Spin Scale       =       0.3333333333333333 [-]
	 SCS Opposite-Spin Scale   =       1.2000000000000000 [-]
	 SCS Same-Spin Energy      =      -0.1785955277150988 [Eh]
	 SCS Opposite-Spin Energy  =      -1.9750090587756044 [Eh]
	 SCS Correlation Energy    =      -2.1536045864907032 [Eh]
	 SCS Total Energy          =    -514.6896890807812497 [Eh]
	-----------------------------------------------------------

  Dipole Moment: [D]
     X:     2.0599      Y:    -1.0175      Z:     2.8806     Total:     3.6846

*** Psi4 exiting successfully. Buy a developer a beer!
