                               Psi4 1.3.2 release

  ==> Input File <==

--------------------------------------------------------------------------
#psi4
#
memory 32 gb

molecule  {
0 1
  O        0.3703410     1.7406370     0.1509160
  O       -2.1946130     0.9173750    -0.9921890
  N       -2.7109060    -0.4412560     0.7761490
  C       -0.4510660    -0.4506100    -0.0514270
  C        0.6599990     0.4108460     0.0342650
  C       -0.2507290    -1.8313420    -0.1181570
  C        1.9527030    -0.1242260     0.0401840
  C        1.0395390    -2.3670290    -0.1196300
  C        2.1335050    -1.5087060    -0.0439110
  C       -1.8406380     0.1093760    -0.1384300
  C        1.4719710     2.6442150     0.1686120
  H       -1.1103047    -2.4680763    -0.4443436
  H        2.8227340     0.5195950     0.1104450
  H        1.1860280    -3.4416730    -0.1864270
  H        3.1441970    -1.9102760    -0.0447980
  H        2.0722720     2.5548100    -0.7428660
  H        2.1083110     2.4835370     1.0460470
  H        1.0258210     3.6366650     0.2171830
  H       -2.3391320    -0.8271260     1.6334900
  H       -3.6232280    -0.0028870     0.8299490
units angstrom
no_reorient  #important for SAPT in psi4, default
symmetry c1  #important for SAPT in psi4, default
}

set PROPERTIES_ORIGIN ["COM"]
properties('MP2/aug-cc-pvtz', properties = ['dipole'])
--------------------------------------------------------------------------

    Molecular point group: c1
  Charge       = 0
  Multiplicity = 1
  Basis Set: AUG-CC-PVTZ
    Blend: AUG-CC-PVTZ
  Basis Set: (AUG-CC-PVTZ AUX)
    Blend: AUG-CC-PVTZ-JKFIT

    Orbital Energies [Eh]
    ---------------------

    Doubly Occupied:

       1A    -20.590439     2A    -20.517094     3A    -15.582463
       4A    -11.354696     5A    -11.317626     6A    -11.287798
       7A    -11.257627     8A    -11.254265     9A    -11.248790
      10A    -11.243484    11A    -11.239063    12A     -1.414022
      13A     -1.369464    14A     -1.207350    15A     -1.158025
      16A     -1.042857    17A     -1.024220    18A     -0.949679
      19A     -0.876767    20A     -0.822496    21A     -0.789256
      22A     -0.734416    23A     -0.708354    24A     -0.681810
      25A     -0.665654    26A     -0.657305    27A     -0.638511
      28A     -0.620435    29A     -0.596590    30A     -0.582157
      31A     -0.556082    32A     -0.542849    33A     -0.533094
      34A     -0.516436    35A     -0.499548    36A     -0.475303
      37A     -0.423985    38A     -0.411412    39A     -0.351929
      40A     -0.322957

  @DF-RHF Final Energy:  -512.54083143617197

   => Energetics <=

    Nuclear Repulsion Energy =            592.5119095702011691
    One-Electron Energy =               -1873.9728669400531089
    Two-Electron Energy =                 768.9201259336799694
    Total Energy =                       -512.5408314361719704
  Basis Set: (AUG-CC-PVTZ AUX)
    Blend: AUG-CC-PVTZ-RI
    Molecular point group: c1

    Geometry (in Angstrom), charge = 0, multiplicity = 1:

       Center              X                  Y                   Z               Mass
    ------------   -----------------  -----------------  -----------------  -----------------
         O            0.404953088758     1.744113339775     0.170059893525    15.994914619570
         O           -2.160000911242     0.920851339775    -0.973045106475    15.994914619570
         N           -2.676293911242    -0.437779660225     0.795292893525    14.003074004430
         C           -0.416453911242    -0.447133660225    -0.032283106475    12.000000000000
         C            0.694611088758     0.414322339775     0.053408893525    12.000000000000
         C           -0.216116911242    -1.827865660225    -0.099013106475    12.000000000000
         C            1.987315088758    -0.120749660225     0.059327893525    12.000000000000
         C            1.074151088758    -2.363552660225    -0.100486106475    12.000000000000
         C            2.168117088758    -1.505229660225    -0.024767106475    12.000000000000
         C           -1.806025911242     0.112852339775    -0.119286106475    12.000000000000
         C            1.506583088758     2.647691339775     0.187755893525    12.000000000000
         H           -1.075692611242    -2.464599960225    -0.425199706475     1.007825032230
         H            2.857346088758     0.523071339775     0.129588893525     1.007825032230
         H            1.220640088758    -3.438196660225    -0.167283106475     1.007825032230
         H            3.178809088758    -1.906799660225    -0.025654106475     1.007825032230
         H            2.106884088758     2.558286339775    -0.723722106475     1.007825032230
         H            2.142923088758     2.487013339775     1.065190893525     1.007825032230
         H            1.060433088758     3.640141339775     0.236326893525     1.007825032230
         H           -2.304519911242    -0.823649660225     1.652633893525     1.007825032230
         H           -3.588615911242     0.000589339775     0.849092893525     1.007825032230

  Basis Set: AUG-CC-PVTZ
    Blend: AUG-CC-PVTZ
  Basis Set: (AUG-CC-PVTZ AUX)
    Blend: AUG-CC-PVTZ-JKFIT
	 Reference Energy          =    -512.5408314361719704 [Eh]
	 Singles Energy            =      -0.0000000000000000 [Eh]
	 Same-Spin Energy          =      -0.5359987579135813 [Eh]
	 Opposite-Spin Energy      =      -1.6459109924586199 [Eh]
	 Correlation Energy        =      -2.1819097503722014 [Eh]
	 Total Energy              =    -514.7227411865442264 [Eh]

	 ================> DF-SCS-MP2 Energies <==================
	-----------------------------------------------------------
	 SCS Same-Spin Scale       =       0.3333333333333333 [-]
	 SCS Opposite-Spin Scale   =       1.2000000000000000 [-]
	 SCS Same-Spin Energy      =      -0.1786662526378604 [Eh]
	 SCS Opposite-Spin Energy  =      -1.9750931909503437 [Eh]
	 SCS Correlation Energy    =      -2.1537594435882044 [Eh]
	 SCS Total Energy          =    -514.6945908797601987 [Eh]
	-----------------------------------------------------------

  Dipole Moment: [D]
     X:     2.0480      Y:    -0.8847      Z:     2.7598     Total:     3.5487

*** Psi4 exiting successfully. Buy a developer a beer!
