                               Psi4 1.3.2 release

  ==> Input File <==

--------------------------------------------------------------------------
#psi4
#
memory 32 gb

molecule  {
0 1
  O       -1.4890520    -1.1699510    -0.0104640
  O        1.7837190     1.3890130    -0.0214620
  N        0.7526660    -0.6498780    -0.0214550
  C       -0.5553190    -0.1742840    -0.0060060
  C       -1.1407710     1.0618160     0.0104930
  C        1.8652240     0.1617960    -0.0202730
  C       -2.5496710     0.8075520     0.0175600
  C       -2.7164660    -0.5449080     0.0047820
  C        3.1811850    -0.5832010     0.0301470
  H        0.8582920    -1.6573840    -0.0213170
  H       -0.6226040     2.0066250     0.0153600
  H       -3.3400310     1.5456830     0.0304840
  H       -3.5689071    -1.2064104     0.1545101
  H        3.4438230    -0.7947010     1.0711420
  H        3.9529480     0.0571610    -0.3968850
  H        3.1464960    -1.5284770    -0.5179270
units angstrom
no_reorient  #important for SAPT in psi4, default
symmetry c1  #important for SAPT in psi4, default
}

set PROPERTIES_ORIGIN ["COM"]
properties('MP2/aug-cc-pvtz', properties = ['dipole'])
--------------------------------------------------------------------------

    Molecular point group: c1
  Charge       = 0
  Multiplicity = 1
  Basis Set: AUG-CC-PVTZ
    Blend: AUG-CC-PVTZ
  Basis Set: (AUG-CC-PVTZ AUX)
    Blend: AUG-CC-PVTZ-JKFIT

    Orbital Energies [Eh]
    ---------------------

    Doubly Occupied:

       1A    -20.629354     2A    -20.535152     3A    -15.620091
       4A    -11.371561     5A    -11.339020     6A    -11.285148
       7A    -11.250970     8A    -11.234327     9A    -11.220729
      10A     -1.466523    11A     -1.390059    12A     -1.256454
      13A     -1.084259    14A     -1.036726    15A     -0.977529
      16A     -0.850384    17A     -0.804987    18A     -0.771238
      19A     -0.742286    20A     -0.684390    21A     -0.660066
      22A     -0.647927    23A     -0.621510    24A     -0.602365
      25A     -0.576356    26A     -0.569345    27A     -0.565767
      28A     -0.548288    29A     -0.542942    30A     -0.455845
      31A     -0.440040    32A     -0.398558    33A     -0.293858

  @DF-RHF Final Energy:  -435.60315709580794

   => Energetics <=

    Nuclear Repulsion Energy =            427.7926446303613375
    One-Electron Energy =               -1441.8434925667484094
    Two-Electron Energy =                 578.4476908405790709
    Total Energy =                       -435.6031570958080010
  Basis Set: (AUG-CC-PVTZ AUX)
    Blend: AUG-CC-PVTZ-RI
    Molecular point group: c1

    Geometry (in Angstrom), charge = 0, multiplicity = 1:

       Center              X                  Y                   Z               Mass
    ------------   -----------------  -----------------  -----------------  -----------------
         O           -1.458370063836    -1.182418187417    -0.010202801720    15.994914619570
         O            1.814400936164     1.376545812583    -0.021200801720    15.994914619570
         N            0.783347936164    -0.662345187417    -0.021193801720    14.003074004430
         C           -0.524637063836    -0.186751187417    -0.005744801720    12.000000000000
         C           -1.110089063836     1.049348812583     0.010754198280    12.000000000000
         C            1.895905936164     0.149328812583    -0.020011801720    12.000000000000
         C           -2.518989063836     0.795084812583     0.017821198280    12.000000000000
         C           -2.685784063836    -0.557375187417     0.005043198280    12.000000000000
         C            3.211866936164    -0.595668187417     0.030408198280    12.000000000000
         H            0.888973936164    -1.669851187417    -0.021055801720     1.007825032230
         H           -0.591922063836     1.994157812583     0.015621198280     1.007825032230
         H           -3.309349063836     1.533215812583     0.030745198280     1.007825032230
         H           -3.538225163836    -1.218877587417     0.154771298280     1.007825032230
         H            3.474504936164    -0.807168187417     1.071403198280     1.007825032230
         H            3.983629936164     0.044693812583    -0.396623801720     1.007825032230
         H            3.177177936164    -1.540944187417    -0.517665801720     1.007825032230

  Basis Set: AUG-CC-PVTZ
    Blend: AUG-CC-PVTZ
  Basis Set: (AUG-CC-PVTZ AUX)
    Blend: AUG-CC-PVTZ-JKFIT
	 Reference Energy          =    -435.6031570958079442 [Eh]
	 Singles Energy            =      -0.0000000000000000 [Eh]
	 Same-Spin Energy          =      -0.4469847571479495 [Eh]
	 Opposite-Spin Energy      =      -1.3693001677407792 [Eh]
	 Correlation Energy        =      -1.8162849248887287 [Eh]
	 Total Energy              =    -437.4194420206966925 [Eh]

	 ================> DF-SCS-MP2 Energies <==================
	-----------------------------------------------------------
	 SCS Same-Spin Scale       =       0.3333333333333333 [-]
	 SCS Opposite-Spin Scale   =       1.2000000000000000 [-]
	 SCS Same-Spin Energy      =      -0.1489949190493165 [Eh]
	 SCS Opposite-Spin Energy  =      -1.6431602012889350 [Eh]
	 SCS Correlation Energy    =      -1.7921551203382515 [Eh]
	 SCS Total Energy          =    -437.3953122161461806 [Eh]
	-----------------------------------------------------------

  Dipole Moment: [D]
     X:     0.1873      Y:    -2.9318      Z:     0.2136     Total:     2.9455

*** Psi4 exiting successfully. Buy a developer a beer!
