                               Psi4 1.3.2 release

  ==> Input File <==

--------------------------------------------------------------------------
#psi4
#
memory 32 gb

molecule  {
0 1
  O       -1.4890520    -1.1699510    -0.0104640
  O        1.7837190     1.3890130    -0.0214620
  N        0.7526660    -0.6498780    -0.0214550
  C       -0.5553190    -0.1742840    -0.0060060
  C       -1.1407710     1.0618160     0.0104930
  C        1.8652240     0.1617960    -0.0202730
  C       -2.5496710     0.8075520     0.0175600
  C       -2.7164660    -0.5449080     0.0047820
  C        3.1811850    -0.5832010     0.0301470
  H        0.8582920    -1.6573840    -0.0213170
  H       -0.6226040     2.0066250     0.0153600
  H       -3.3400310     1.5456830     0.0304840
  H       -3.5700130    -1.2048780     0.0045220
  H        3.4438230    -0.7947010     1.0711420
  H        3.9529480     0.0571610    -0.3968850
  H        3.1464960    -1.5284770    -0.5179270
units angstrom
no_reorient  #important for SAPT in psi4, default
symmetry c1  #important for SAPT in psi4, default
}

set PROPERTIES_ORIGIN ["COM"]
properties('MP2/aug-cc-pvtz', properties = ['dipole'])
--------------------------------------------------------------------------

    Molecular point group: c1
  Charge       = 0
  Multiplicity = 1
  Basis Set: AUG-CC-PVTZ
    Blend: AUG-CC-PVTZ
  Basis Set: (AUG-CC-PVTZ AUX)
    Blend: AUG-CC-PVTZ-JKFIT

    Orbital Energies [Eh]
    ---------------------

    Doubly Occupied:

       1A    -20.629439     2A    -20.534996     3A    -15.619905
       4A    -11.371404     5A    -11.338664     6A    -11.284580
       7A    -11.250860     8A    -11.233989     9A    -11.220548
      10A     -1.466521    11A     -1.389904    12A     -1.256284
      13A     -1.084062    14A     -1.036693    15A     -0.977843
      16A     -0.850255    17A     -0.805919    18A     -0.771172
      19A     -0.742198    20A     -0.684704    21A     -0.659465
      22A     -0.649807    23A     -0.621506    24A     -0.602436
      25A     -0.576224    26A     -0.569366    27A     -0.565690
      28A     -0.548316    29A     -0.543763    30A     -0.455749
      31A     -0.439892    32A     -0.398496    33A     -0.293709

  @DF-RHF Final Energy:  -435.60429096717951

   => Energetics <=

    Nuclear Repulsion Energy =            427.8325326014446546
    One-Electron Energy =               -1441.9249323466017358
    Two-Electron Energy =                 578.4881087779775726
    Total Energy =                       -435.6042909671795087
  Basis Set: (AUG-CC-PVTZ AUX)
    Blend: AUG-CC-PVTZ-RI
    Molecular point group: c1

    Geometry (in Angstrom), charge = 0, multiplicity = 1:

       Center              X                  Y                   Z               Mass
    ------------   -----------------  -----------------  -----------------  -----------------
         O           -1.458361150806    -1.182430537835    -0.008993968709    15.994914619570
         O            1.814409849194     1.376533462165    -0.019991968709    15.994914619570
         N            0.783356849194    -0.662357537835    -0.019984968709    14.003074004430
         C           -0.524628150806    -0.186763537835    -0.004535968709    12.000000000000
         C           -1.110080150806     1.049336462165     0.011963031291    12.000000000000
         C            1.895914849194     0.149316462165    -0.018802968709    12.000000000000
         C           -2.518980150806     0.795072462165     0.019030031291    12.000000000000
         C           -2.685775150806    -0.557387537835     0.006252031291    12.000000000000
         C            3.211875849194    -0.595680537835     0.031617031291    12.000000000000
         H            0.888982849194    -1.669863537835    -0.019846968709     1.007825032230
         H           -0.591913150806     1.994145462165     0.016830031291     1.007825032230
         H           -3.309340150806     1.533203462165     0.031954031291     1.007825032230
         H           -3.539322150806    -1.217357537835     0.005992031291     1.007825032230
         H            3.474513849194    -0.807180537835     1.072612031291     1.007825032230
         H            3.983638849194     0.044681462165    -0.395414968709     1.007825032230
         H            3.177186849194    -1.540956537835    -0.516456968709     1.007825032230

  Basis Set: AUG-CC-PVTZ
    Blend: AUG-CC-PVTZ
  Basis Set: (AUG-CC-PVTZ AUX)
    Blend: AUG-CC-PVTZ-JKFIT
	 Reference Energy          =    -435.6042909671795087 [Eh]
	 Singles Energy            =      -0.0000000000000000 [Eh]
	 Same-Spin Energy          =      -0.4469066233787958 [Eh]
	 Opposite-Spin Energy      =      -1.3691302052738696 [Eh]
	 Correlation Energy        =      -1.8160368286526656 [Eh]
	 Total Energy              =    -437.4203277958321792 [Eh]

	 ================> DF-SCS-MP2 Energies <==================
	-----------------------------------------------------------
	 SCS Same-Spin Scale       =       0.3333333333333333 [-]
	 SCS Opposite-Spin Scale   =       1.2000000000000000 [-]
	 SCS Same-Spin Energy      =      -0.1489688744595986 [Eh]
	 SCS Opposite-Spin Energy  =      -1.6429562463286436 [Eh]
	 SCS Correlation Energy    =      -1.7919251207882421 [Eh]
	 SCS Total Energy          =    -437.3962160879677299 [Eh]
	-----------------------------------------------------------

  Dipole Moment: [D]
     X:     0.1639      Y:    -2.9453      Z:     0.0781     Total:     2.9508

*** Psi4 exiting successfully. Buy a developer a beer!
