                               Psi4 1.3.2 release

  ==> Input File <==

--------------------------------------------------------------------------
#psi4
#
memory 32 gb

molecule  {
0 1
  O       -1.4890520    -1.1699510    -0.0104640
  O        1.7837190     1.3890130    -0.0214620
  N        0.7526660    -0.6498780    -0.0214550
  C       -0.5553190    -0.1742840    -0.0060060
  C       -1.1407710     1.0618160     0.0104930
  C        1.8652240     0.1617960    -0.0202730
  C       -2.5496710     0.8075520     0.0175600
  C       -2.7164660    -0.5449080     0.0047820
  C        3.1811850    -0.5832010     0.0301470
  H        0.8582920    -1.6573840    -0.0213170
  H       -0.6226040     2.0066250     0.0153600
  H       -3.3413976     1.5477340    -0.1695008
  H       -3.5700130    -1.2048780     0.0045220
  H        3.4438230    -0.7947010     1.0711420
  H        3.9529480     0.0571610    -0.3968850
  H        3.1464960    -1.5284770    -0.5179270
units angstrom
no_reorient  #important for SAPT in psi4, default
symmetry c1  #important for SAPT in psi4, default
}

set PROPERTIES_ORIGIN ["COM"]
properties('MP2/aug-cc-pvtz', properties = ['dipole'])
--------------------------------------------------------------------------

    Molecular point group: c1
  Charge       = 0
  Multiplicity = 1
  Basis Set: AUG-CC-PVTZ
    Blend: AUG-CC-PVTZ
  Basis Set: (AUG-CC-PVTZ AUX)
    Blend: AUG-CC-PVTZ-JKFIT

    Orbital Energies [Eh]
    ---------------------

    Doubly Occupied:

       1A    -20.629835     2A    -20.535047     3A    -15.619970
       4A    -11.371456     5A    -11.338749     6A    -11.285396
       7A    -11.250904     8A    -11.235460     9A    -11.220596
      10A     -1.466900    11A     -1.389959    12A     -1.256373
      13A     -1.083950    14A     -1.036762    15A     -0.977940
      16A     -0.849874    17A     -0.805407    18A     -0.771274
      19A     -0.740301    20A     -0.684826    21A     -0.659761
      22A     -0.650052    23A     -0.621676    24A     -0.602172
      25A     -0.575278    26A     -0.568739    27A     -0.563946
      28A     -0.548384    29A     -0.543651    30A     -0.455825
      31A     -0.439940    32A     -0.398009    33A     -0.293924

  @DF-RHF Final Energy:  -435.60184160792738

   => Energetics <=

    Nuclear Repulsion Energy =            427.7645550796402176
    One-Electron Energy =               -1441.7881241999393751
    Two-Electron Energy =                 578.4217275123718309
    Total Energy =                       -435.6018416079273265
  Basis Set: (AUG-CC-PVTZ AUX)
    Blend: AUG-CC-PVTZ-RI
    Molecular point group: c1

    Geometry (in Angstrom), charge = 0, multiplicity = 1:

       Center              X                  Y                   Z               Mass
    ------------   -----------------  -----------------  -----------------  -----------------
         O           -1.458350136658    -1.182447067923    -0.007382185987    15.994914619570
         O            1.814420863342     1.376516932077    -0.018380185987    15.994914619570
         N            0.783367863342    -0.662374067923    -0.018373185987    14.003074004430
         C           -0.524617136658    -0.186780067923    -0.002924185987    12.000000000000
         C           -1.110069136658     1.049319932077     0.013574814013    12.000000000000
         C            1.895925863342     0.149299932077    -0.017191185987    12.000000000000
         C           -2.518969136658     0.795055932077     0.020641814013    12.000000000000
         C           -2.685764136658    -0.557404067923     0.007863814013    12.000000000000
         C            3.211886863342    -0.595697067923     0.033228814013    12.000000000000
         H            0.888993863342    -1.669880067923    -0.018235185987     1.007825032230
         H           -0.591902136658     1.994128932077     0.018441814013     1.007825032230
         H           -3.310695736658     1.535237932077    -0.166418985987     1.007825032230
         H           -3.539311136658    -1.217374067923     0.007603814013     1.007825032230
         H            3.474524863342    -0.807197067923     1.074223814013     1.007825032230
         H            3.983649863342     0.044664932077    -0.393803185987     1.007825032230
         H            3.177197863342    -1.540973067923    -0.514845185987     1.007825032230

  Basis Set: AUG-CC-PVTZ
    Blend: AUG-CC-PVTZ
  Basis Set: (AUG-CC-PVTZ AUX)
    Blend: AUG-CC-PVTZ-JKFIT
	 Reference Energy          =    -435.6018416079273834 [Eh]
	 Singles Energy            =      -0.0000000000000000 [Eh]
	 Same-Spin Energy          =      -0.4470346601557595 [Eh]
	 Opposite-Spin Energy      =      -1.3694322371098071 [Eh]
	 Correlation Energy        =      -1.8164668972655666 [Eh]
	 Total Energy              =    -437.4183085051929538 [Eh]

	 ================> DF-SCS-MP2 Energies <==================
	-----------------------------------------------------------
	 SCS Same-Spin Scale       =       0.3333333333333333 [-]
	 SCS Opposite-Spin Scale   =       1.2000000000000000 [-]
	 SCS Same-Spin Energy      =      -0.1490115533852532 [Eh]
	 SCS Opposite-Spin Energy  =      -1.6433186845317684 [Eh]
	 SCS Correlation Energy    =      -1.7923302379170216 [Eh]
	 SCS Total Energy          =    -437.3941718458444257 [Eh]
	-----------------------------------------------------------

  Dipole Moment: [D]
     X:     0.1857      Y:    -2.9684      Z:    -0.0764     Total:     2.9752

*** Psi4 exiting successfully. Buy a developer a beer!
