                               Psi4 1.3.2 release

  ==> Input File <==

--------------------------------------------------------------------------
#psi4
#
memory 32 gb

molecule  {
0 1
  O       -1.4890520    -1.1699510    -0.0104640
  O        1.7837190     1.3890130    -0.0214620
  N        0.7526660    -0.6498780    -0.0214550
  C       -0.5553190    -0.1742840    -0.0060060
  C       -1.1407710     1.0618160     0.0104930
  C        1.8652240     0.1617960    -0.0202730
  C       -2.5496710     0.8075520     0.0175600
  C       -2.7164660    -0.5449080     0.0047820
  C        3.1811850    -0.5832010     0.0301470
  H        0.8582920    -1.6573840    -0.0213170
  H       -0.6226040     2.0066250     0.0153600
  H       -3.3403726     1.5461958    -0.0195122
  H       -3.5700130    -1.2048780     0.0045220
  H        3.4438230    -0.7947010     1.0711420
  H        3.9529480     0.0571610    -0.3968850
  H        3.1464960    -1.5284770    -0.5179270
units angstrom
no_reorient  #important for SAPT in psi4, default
symmetry c1  #important for SAPT in psi4, default
}

set PROPERTIES_ORIGIN ["COM"]
properties('MP2/aug-cc-pvtz', properties = ['dipole'])
--------------------------------------------------------------------------

    Molecular point group: c1
  Charge       = 0
  Multiplicity = 1
  Basis Set: AUG-CC-PVTZ
    Blend: AUG-CC-PVTZ
  Basis Set: (AUG-CC-PVTZ AUX)
    Blend: AUG-CC-PVTZ-JKFIT

    Orbital Energies [Eh]
    ---------------------

    Doubly Occupied:

       1A    -20.629464     2A    -20.534999     3A    -15.619909
       4A    -11.371406     5A    -11.338668     6A    -11.284633
       7A    -11.250863     8A    -11.234082     9A    -11.220550
      10A     -1.466545    11A     -1.389908    12A     -1.256289
      13A     -1.084054    14A     -1.036697    15A     -0.977849
      16A     -0.850228    17A     -0.805885    18A     -0.771178
      19A     -0.742076    20A     -0.684713    21A     -0.659483
      22A     -0.649822    23A     -0.621511    24A     -0.602414
      25A     -0.576160    26A     -0.569307    27A     -0.565614
      28A     -0.548333    29A     -0.543742    30A     -0.455753
      31A     -0.439895    32A     -0.398464    33A     -0.293723

  @DF-RHF Final Energy:  -435.60414688859510

   => Energetics <=

    Nuclear Repulsion Energy =            427.8281829112000878
    One-Electron Energy =               -1441.9162277524726505
    Two-Electron Energy =                 578.4838979526774665
    Total Energy =                       -435.6041468885950962
  Basis Set: (AUG-CC-PVTZ AUX)
    Blend: AUG-CC-PVTZ-RI
    Molecular point group: c1

    Geometry (in Angstrom), charge = 0, multiplicity = 1:

       Center              X                  Y                   Z               Mass
    ------------   -----------------  -----------------  -----------------  -----------------
         O           -1.458358397672    -1.182434670760    -0.008591023028    15.994914619570
         O            1.814412602328     1.376529329240    -0.019589023028    15.994914619570
         N            0.783359602328    -0.662361670760    -0.019582023028    14.003074004430
         C           -0.524625397672    -0.186767670760    -0.004133023028    12.000000000000
         C           -1.110077397672     1.049332329240     0.012365976972    12.000000000000
         C            1.895917602328     0.149312329240    -0.018400023028    12.000000000000
         C           -2.518977397672     0.795068329240     0.019432976972    12.000000000000
         C           -2.685772397672    -0.557391670760     0.006654976972    12.000000000000
         C            3.211878602328    -0.595684670760     0.032019976972    12.000000000000
         H            0.888985602328    -1.669867670760    -0.019444023028     1.007825032230
         H           -0.591910397672     1.994141329240     0.017232976972     1.007825032230
         H           -3.309678997672     1.533712129240    -0.017639223028     1.007825032230
         H           -3.539319397672    -1.217361670760     0.006394976972     1.007825032230
         H            3.474516602328    -0.807184670760     1.073014976972     1.007825032230
         H            3.983641602328     0.044677329240    -0.395012023028     1.007825032230
         H            3.177189602328    -1.540960670760    -0.516054023028     1.007825032230

  Basis Set: AUG-CC-PVTZ
    Blend: AUG-CC-PVTZ
  Basis Set: (AUG-CC-PVTZ AUX)
    Blend: AUG-CC-PVTZ-JKFIT
	 Reference Energy          =    -435.6041468885950962 [Eh]
	 Singles Energy            =      -0.0000000000000000 [Eh]
	 Same-Spin Energy          =      -0.4469149217735841 [Eh]
	 Opposite-Spin Energy      =      -1.3691477303132720 [Eh]
	 Correlation Energy        =      -1.8160626520868561 [Eh]
	 Total Energy              =    -437.4202095406819808 [Eh]

	 ================> DF-SCS-MP2 Energies <==================
	-----------------------------------------------------------
	 SCS Same-Spin Scale       =       0.3333333333333333 [-]
	 SCS Opposite-Spin Scale   =       1.2000000000000000 [-]
	 SCS Same-Spin Energy      =      -0.1489716405911947 [Eh]
	 SCS Opposite-Spin Energy  =      -1.6429772763759263 [Eh]
	 SCS Correlation Energy    =      -1.7919489169671210 [Eh]
	 SCS Total Energy          =    -437.3960958055621973 [Eh]
	-----------------------------------------------------------

  Dipole Moment: [D]
     X:     0.1651      Y:    -2.9465      Z:     0.0392     Total:     2.9513

*** Psi4 exiting successfully. Buy a developer a beer!
