                               Psi4 1.3.2 release

  ==> Input File <==

--------------------------------------------------------------------------
#psi4
#
memory 32 gb

molecule  {
0 1
  O       -1.4890520    -1.1699510    -0.0104640
  O        1.7837190     1.3890130    -0.0214620
  N        0.7526660    -0.6498780    -0.0214550
  C       -0.5553190    -0.1742840    -0.0060060
  C       -1.1407710     1.0618160     0.0104930
  C        1.8652240     0.1617960    -0.0202730
  C       -2.5496710     0.8075520     0.0175600
  C       -2.7164660    -0.5449080     0.0047820
  C        3.1779538    -0.5815665     0.1801033
  H        0.8582920    -1.6573840    -0.0213170
  H       -0.6226040     2.0066250     0.0153600
  H       -3.3400310     1.5456830     0.0304840
  H       -3.5700130    -1.2048780     0.0045220
  H        3.4438230    -0.7947010     1.0711420
  H        3.9529480     0.0571610    -0.3968850
  H        3.1464960    -1.5284770    -0.5179270
units angstrom
no_reorient  #important for SAPT in psi4, default
symmetry c1  #important for SAPT in psi4, default
}

set PROPERTIES_ORIGIN ["COM"]
properties('MP2/aug-cc-pvtz', properties = ['dipole'])
--------------------------------------------------------------------------

    Molecular point group: c1
  Charge       = 0
  Multiplicity = 1
  Basis Set: AUG-CC-PVTZ
    Blend: AUG-CC-PVTZ
  Basis Set: (AUG-CC-PVTZ AUX)
    Blend: AUG-CC-PVTZ-JKFIT

    Orbital Energies [Eh]
    ---------------------

    Doubly Occupied:

       1A    -20.629767     2A    -20.536800     3A    -15.620482
       4A    -11.373143     5A    -11.338886     6A    -11.285019
       7A    -11.252717     8A    -11.234339     9A    -11.221093
      10A     -1.466854    11A     -1.390951    12A     -1.256714
      13A     -1.084460    14A     -1.037009    15A     -0.979228
      16A     -0.851685    17A     -0.807371    18A     -0.771671
      19A     -0.742890    20A     -0.693748    21A     -0.661169
      22A     -0.648088    23A     -0.637417    24A     -0.603461
      25A     -0.574807    26A     -0.566091    27A     -0.552889
      28A     -0.548737    29A     -0.533785    30A     -0.456705
      31A     -0.439564    32A     -0.398855    33A     -0.294099

  @DF-RHF Final Energy:  -435.57638615005283

   => Energetics <=

    Nuclear Repulsion Energy =            427.7681249563524943
    One-Electron Energy =               -1441.7080345492431661
    Two-Electron Energy =                 578.3635234428378453
    Total Energy =                       -435.5763861500528265
  Basis Set: (AUG-CC-PVTZ AUX)
    Blend: AUG-CC-PVTZ-RI
    Molecular point group: c1

    Geometry (in Angstrom), charge = 0, multiplicity = 1:

       Center              X                  Y                   Z               Mass
    ------------   -----------------  -----------------  -----------------  -----------------
         O           -1.458051073878    -1.182587390008    -0.023384284643    15.994914619570
         O            1.814719926122     1.376376609992    -0.034382284643    15.994914619570
         N            0.783666926122    -0.662514390008    -0.034375284643    14.003074004430
         C           -0.524318073878    -0.186920390008    -0.018926284643    12.000000000000
         C           -1.109770073878     1.049179609992    -0.002427284643    12.000000000000
         C            1.896224926122     0.149159609992    -0.033193284643    12.000000000000
         C           -2.518670073878     0.794915609992     0.004639715357    12.000000000000
         C           -2.685465073878    -0.557544390008    -0.008138284643    12.000000000000
         C            3.208954726122    -0.594202890008     0.167183015357    12.000000000000
         H            0.889292926122    -1.670020390008    -0.034237284643     1.007825032230
         H           -0.591603073878     1.993988609992     0.002439715357     1.007825032230
         H           -3.309030073878     1.533046609992     0.017563715357     1.007825032230
         H           -3.539012073878    -1.217514390008    -0.008398284643     1.007825032230
         H            3.474823926122    -0.807337390008     1.058221715357     1.007825032230
         H            3.983948926122     0.044524609992    -0.409805284643     1.007825032230
         H            3.177496926122    -1.541113390008    -0.530847284643     1.007825032230

  Basis Set: AUG-CC-PVTZ
    Blend: AUG-CC-PVTZ
  Basis Set: (AUG-CC-PVTZ AUX)
    Blend: AUG-CC-PVTZ-JKFIT
	 Reference Energy          =    -435.5763861500528265 [Eh]
	 Singles Energy            =      -0.0000000000000000 [Eh]
	 Same-Spin Energy          =      -0.4473011893686274 [Eh]
	 Opposite-Spin Energy      =      -1.3705646986424629 [Eh]
	 Correlation Energy        =      -1.8178658880110903 [Eh]
	 Total Energy              =    -437.3942520380639394 [Eh]

	 ================> DF-SCS-MP2 Energies <==================
	-----------------------------------------------------------
	 SCS Same-Spin Scale       =       0.3333333333333333 [-]
	 SCS Opposite-Spin Scale   =       1.2000000000000000 [-]
	 SCS Same-Spin Energy      =      -0.1491003964562091 [Eh]
	 SCS Opposite-Spin Energy  =      -1.6446776383709554 [Eh]
	 SCS Correlation Energy    =      -1.7937780348271646 [Eh]
	 SCS Total Energy          =    -437.3701641848799682 [Eh]
	-----------------------------------------------------------

  Dipole Moment: [D]
     X:     0.0701      Y:    -2.8766      Z:     0.1028     Total:     2.8793

*** Psi4 exiting successfully. Buy a developer a beer!
