                               Psi4 1.3.2 release

  ==> Input File <==

--------------------------------------------------------------------------
#psi4
#
memory 32 gb

molecule  {
0 1
  O       -1.4890520    -1.1699510    -0.0104640
  O        1.7837190     1.3890130    -0.0214620
  N        0.7526660    -0.6498780    -0.0214550
  C       -0.5553190    -0.1742840    -0.0060060
  C       -1.1407710     1.0618160     0.0104930
  C        1.8652240     0.1617960    -0.0202730
  C       -2.5496710     0.8075520     0.0175600
  C       -2.7164660    -0.5449080     0.0047820
  C        3.1811850    -0.5832010     0.0301470
  H        0.8582920    -1.6573840    -0.0213170
  H       -0.6226040     2.0066250     0.0153600
  H       -3.3400310     1.5456830     0.0304840
  H       -3.5692758    -1.2058996     0.1045141
  H        3.4438230    -0.7947010     1.0711420
  H        3.9529480     0.0571610    -0.3968850
  H        3.1464960    -1.5284770    -0.5179270
units angstrom
no_reorient  #important for SAPT in psi4, default
symmetry c1  #important for SAPT in psi4, default
}

set PROPERTIES_ORIGIN ["COM"]
properties('MP2/aug-cc-pvtz', properties = ['dipole'])
--------------------------------------------------------------------------

    Molecular point group: c1
  Charge       = 0
  Multiplicity = 1
  Basis Set: AUG-CC-PVTZ
    Blend: AUG-CC-PVTZ
  Basis Set: (AUG-CC-PVTZ AUX)
    Blend: AUG-CC-PVTZ-JKFIT

    Orbital Energies [Eh]
    ---------------------

    Doubly Occupied:

       1A    -20.629400     2A    -20.535064     3A    -15.619988
       4A    -11.371474     5A    -11.338823     6A    -11.284833
       7A    -11.250910     8A    -11.234141     9A    -11.220629
      10A     -1.466521    11A     -1.389973    12A     -1.256360
      13A     -1.084150    14A     -1.036707    15A     -0.977701
      16A     -0.850312    17A     -0.805497    18A     -0.771201
      19A     -0.742237    20A     -0.684569    21A     -0.659730
      22A     -0.648960    23A     -0.621508    24A     -0.602402
      25A     -0.576280    26A     -0.569361    27A     -0.565725
      28A     -0.548363    29A     -0.543341    30A     -0.455793
      31A     -0.439958    32A     -0.398523    33A     -0.293777

  @DF-RHF Final Energy:  -435.60379983752279

   => Energetics <=

    Nuclear Repulsion Energy =            427.8147170676207338
    One-Electron Energy =               -1441.8886098066457180
    Two-Electron Energy =                 578.4700929015021984
    Total Energy =                       -435.6037998375228426
  Basis Set: (AUG-CC-PVTZ AUX)
    Blend: AUG-CC-PVTZ-RI
    Molecular point group: c1

    Geometry (in Angstrom), charge = 0, multiplicity = 1:

       Center              X                  Y                   Z               Mass
    ------------   -----------------  -----------------  -----------------  -----------------
         O           -1.458367092289    -1.182422304223    -0.009799857651    15.994914619570
         O            1.814403907711     1.376541695777    -0.020797857651    15.994914619570
         N            0.783350907711    -0.662349304223    -0.020790857651    14.003074004430
         C           -0.524634092289    -0.186755304223    -0.005341857651    12.000000000000
         C           -1.110086092289     1.049344695777     0.011157142349    12.000000000000
         C            1.895908907711     0.149324695777    -0.019608857651    12.000000000000
         C           -2.518986092289     0.795080695777     0.018224142349    12.000000000000
         C           -2.685781092289    -0.557379304223     0.005446142349    12.000000000000
         C            3.211869907711    -0.595672304223     0.030811142349    12.000000000000
         H            0.888976907711    -1.669855304223    -0.020652857651     1.007825032230
         H           -0.591919092289     1.994153695777     0.016024142349     1.007825032230
         H           -3.309346092289     1.533211695777     0.031148142349     1.007825032230
         H           -3.538590892289    -1.218370904223     0.105178242349     1.007825032230
         H            3.474507907711    -0.807172304223     1.071806142349     1.007825032230
         H            3.983632907711     0.044689695777    -0.396220857651     1.007825032230
         H            3.177180907711    -1.540948304223    -0.517262857651     1.007825032230

  Basis Set: AUG-CC-PVTZ
    Blend: AUG-CC-PVTZ
  Basis Set: (AUG-CC-PVTZ AUX)
    Blend: AUG-CC-PVTZ-JKFIT
	 Reference Energy          =    -435.6037998375227858 [Eh]
	 Singles Energy            =      -0.0000000000000000 [Eh]
	 Same-Spin Energy          =      -0.4469417265484839 [Eh]
	 Opposite-Spin Energy      =      -1.3692039559549540 [Eh]
	 Correlation Energy        =      -1.8161456825034379 [Eh]
	 Total Energy              =    -437.4199455200262037 [Eh]

	 ================> DF-SCS-MP2 Energies <==================
	-----------------------------------------------------------
	 SCS Same-Spin Scale       =       0.3333333333333333 [-]
	 SCS Opposite-Spin Scale   =       1.2000000000000000 [-]
	 SCS Same-Spin Energy      =      -0.1489805755161613 [Eh]
	 SCS Opposite-Spin Energy  =      -1.6430447471459448 [Eh]
	 SCS Correlation Energy    =      -1.7920253226621061 [Eh]
	 SCS Total Energy          =    -437.3958251601848701 [Eh]
	-----------------------------------------------------------

  Dipole Moment: [D]
     X:     0.1746      Y:    -2.9395      Z:     0.1688     Total:     2.9495

*** Psi4 exiting successfully. Buy a developer a beer!
