                               Psi4 1.3.2 release

  ==> Input File <==

--------------------------------------------------------------------------
#psi4
#
memory 32 gb

molecule  {
0 1
  O       -1.4890520    -1.1699510    -0.0104640
  O        1.7837190     1.3890130    -0.0214620
  N        0.7526660    -0.6498780    -0.0214550
  C       -0.5553190    -0.1742840    -0.0060060
  C       -1.1407710     1.0618160     0.0104930
  C        1.8652240     0.1617960    -0.0202730
  C       -2.5496710     0.8075520     0.0175600
  C       -2.7164660    -0.5449080     0.0047820
  C        3.1801079    -0.5826562     0.0801324
  H        0.8582920    -1.6573840    -0.0213170
  H       -0.6226040     2.0066250     0.0153600
  H       -3.3400310     1.5456830     0.0304840
  H       -3.5700130    -1.2048780     0.0045220
  H        3.4438230    -0.7947010     1.0711420
  H        3.9529480     0.0571610    -0.3968850
  H        3.1464960    -1.5284770    -0.5179270
units angstrom
no_reorient  #important for SAPT in psi4, default
symmetry c1  #important for SAPT in psi4, default
}

set PROPERTIES_ORIGIN ["COM"]
properties('MP2/aug-cc-pvtz', properties = ['dipole'])
--------------------------------------------------------------------------

    Molecular point group: c1
  Charge       = 0
  Multiplicity = 1
  Basis Set: AUG-CC-PVTZ
    Blend: AUG-CC-PVTZ
  Basis Set: (AUG-CC-PVTZ AUX)
    Blend: AUG-CC-PVTZ-JKFIT

    Orbital Energies [Eh]
    ---------------------

    Doubly Occupied:

       1A    -20.629509     2A    -20.535447     3A    -15.620022
       4A    -11.371522     5A    -11.338680     6A    -11.284691
       7A    -11.250807     8A    -11.234072     9A    -11.220686
      10A     -1.466592    11A     -1.390135    12A     -1.256353
      13A     -1.084156    14A     -1.036620    15A     -0.977983
      16A     -0.850383    17A     -0.806094    18A     -0.771215
      19A     -0.742303    20A     -0.684935    21A     -0.660241
      22A     -0.648978    23A     -0.627695    24A     -0.602674
      25A     -0.574499    26A     -0.565820    27A     -0.559261
      28A     -0.549112    29A     -0.547977    30A     -0.455998
      31A     -0.439888    32A     -0.398581    33A     -0.293813

  @DF-RHF Final Energy:  -435.60133234572186

   => Energetics <=

    Nuclear Repulsion Energy =            427.8268828991808732
    One-Electron Energy =               -1441.9029476799505574
    Two-Electron Energy =                 578.4747324350478266
    Total Energy =                       -435.6013323457218576
  Basis Set: (AUG-CC-PVTZ AUX)
    Blend: AUG-CC-PVTZ-RI
    Molecular point group: c1

    Geometry (in Angstrom), charge = 0, multiplicity = 1:

       Center              X                  Y                   Z               Mass
    ------------   -----------------  -----------------  -----------------  -----------------
         O           -1.458257788632    -1.182482818694    -0.013790737488    15.994914619570
         O            1.814513211368     1.376481181306    -0.024788737488    15.994914619570
         N            0.783460211368    -0.662409818694    -0.024781737488    14.003074004430
         C           -0.524524788632    -0.186815818694    -0.009332737488    12.000000000000
         C           -1.109976788632     1.049284181306     0.007166262512    12.000000000000
         C            1.896018211368     0.149264181306    -0.023599737488    12.000000000000
         C           -2.518876788632     0.795020181306     0.014233262512    12.000000000000
         C           -2.685671788632    -0.557439818694     0.001455262512    12.000000000000
         C            3.210902111368    -0.595188018694     0.076805662512    12.000000000000
         H            0.889086211368    -1.669915818694    -0.024643737488     1.007825032230
         H           -0.591809788632     1.994093181306     0.012033262512     1.007825032230
         H           -3.309236788632     1.533151181306     0.027157262512     1.007825032230
         H           -3.539218788632    -1.217409818694     0.001195262512     1.007825032230
         H            3.474617211368    -0.807232818694     1.067815262512     1.007825032230
         H            3.983742211368     0.044629181306    -0.400211737488     1.007825032230
         H            3.177290211368    -1.541008818694    -0.521253737488     1.007825032230

  Basis Set: AUG-CC-PVTZ
    Blend: AUG-CC-PVTZ
  Basis Set: (AUG-CC-PVTZ AUX)
    Blend: AUG-CC-PVTZ-JKFIT
	 Reference Energy          =    -435.6013323457218576 [Eh]
	 Singles Energy            =      -0.0000000000000000 [Eh]
	 Same-Spin Energy          =      -0.4469654866268631 [Eh]
	 Opposite-Spin Energy      =      -1.3693577214328458 [Eh]
	 Correlation Energy        =      -1.8163232080597089 [Eh]
	 Total Energy              =    -437.4176555537815716 [Eh]

	 ================> DF-SCS-MP2 Energies <==================
	-----------------------------------------------------------
	 SCS Same-Spin Scale       =       0.3333333333333333 [-]
	 SCS Opposite-Spin Scale   =       1.2000000000000000 [-]
	 SCS Same-Spin Energy      =      -0.1489884955422877 [Eh]
	 SCS Opposite-Spin Energy  =      -1.6432292657194150 [Eh]
	 SCS Correlation Energy    =      -1.7922177612617027 [Eh]
	 SCS Total Energy          =    -437.3935501069835823 [Eh]
	-----------------------------------------------------------

  Dipole Moment: [D]
     X:     0.1394      Y:    -2.9272      Z:     0.0897     Total:     2.9319

*** Psi4 exiting successfully. Buy a developer a beer!
