                               Psi4 1.3.2 release

  ==> Input File <==

--------------------------------------------------------------------------
#psi4
#
memory 32 gb

molecule  {
0 1
  O       -1.4890520    -1.1699510    -0.0104640
  O        1.7837190     1.3890130    -0.0214620
  N        0.7526660    -0.6498780    -0.0214550
  C       -0.5553190    -0.1742840    -0.0060060
  C       -1.1400363     1.0607624     0.1104848
  C        1.8652240     0.1617960    -0.0202730
  C       -2.5496710     0.8075520     0.0175600
  C       -2.7164660    -0.5449080     0.0047820
  C        3.1811850    -0.5832010     0.0301470
  H        0.8582920    -1.6573840    -0.0213170
  H       -0.6226040     2.0066250     0.0153600
  H       -3.3400310     1.5456830     0.0304840
  H       -3.5700130    -1.2048780     0.0045220
  H        3.4438230    -0.7947010     1.0711420
  H        3.9529480     0.0571610    -0.3968850
  H        3.1464960    -1.5284770    -0.5179270
units angstrom
no_reorient  #important for SAPT in psi4, default
symmetry c1  #important for SAPT in psi4, default
}

set PROPERTIES_ORIGIN ["COM"]
properties('MP2/aug-cc-pvtz', properties = ['dipole'])
--------------------------------------------------------------------------

    Molecular point group: c1
  Charge       = 0
  Multiplicity = 1
  Basis Set: AUG-CC-PVTZ
    Blend: AUG-CC-PVTZ
  Basis Set: (AUG-CC-PVTZ AUX)
    Blend: AUG-CC-PVTZ-JKFIT

    Orbital Energies [Eh]
    ---------------------

    Doubly Occupied:

       1A    -20.629731     2A    -20.535239     3A    -15.620305
       4A    -11.371653     5A    -11.340020     6A    -11.284562
       7A    -11.251036     8A    -11.234240     9A    -11.221309
      10A     -1.466803    11A     -1.390126    12A     -1.256667
      13A     -1.083196    14A     -1.036871    15A     -0.977789
      16A     -0.850325    17A     -0.805675    18A     -0.770935
      19A     -0.741793    20A     -0.684870    21A     -0.659707
      22A     -0.649711    23A     -0.621753    24A     -0.602593
      25A     -0.575423    26A     -0.568999    27A     -0.564664
      28A     -0.548123    29A     -0.542952    30A     -0.455841
      31A     -0.440038    32A     -0.398080    33A     -0.293825

  @DF-RHF Final Energy:  -435.60167541216060

   => Energetics <=

    Nuclear Repulsion Energy =            427.7135484006980164
    One-Electron Energy =               -1441.6807382594170122
    Two-Electron Energy =                 578.3655144465583362
    Total Energy =                       -435.6016754121606027
  Basis Set: (AUG-CC-PVTZ AUX)
    Blend: AUG-CC-PVTZ-RI
    Molecular point group: c1

    Geometry (in Angstrom), charge = 0, multiplicity = 1:

       Center              X                  Y                   Z               Mass
    ------------   -----------------  -----------------  -----------------  -----------------
         O           -1.458431655114    -1.182329430800    -0.018589521499    15.994914619570
         O            1.814339344886     1.376634569200    -0.029587521499    15.994914619570
         N            0.783286344886    -0.662256430800    -0.029580521499    14.003074004430
         C           -0.524698655114    -0.186662430800    -0.014131521499    12.000000000000
         C           -1.109415955114     1.048383969200     0.102359278501    12.000000000000
         C            1.895844344886     0.149417569200    -0.028398521499    12.000000000000
         C           -2.519050655114     0.795173569200     0.009434478501    12.000000000000
         C           -2.685845655114    -0.557286430800    -0.003343521499    12.000000000000
         C            3.211805344886    -0.595579430800     0.022021478501    12.000000000000
         H            0.888912344886    -1.669762430800    -0.029442521499     1.007825032230
         H           -0.591983655114     1.994246569200     0.007234478501     1.007825032230
         H           -3.309410655114     1.533304569200     0.022358478501     1.007825032230
         H           -3.539392655114    -1.217256430800    -0.003603521499     1.007825032230
         H            3.474443344886    -0.807079430800     1.063016478501     1.007825032230
         H            3.983568344886     0.044782569200    -0.405010521499     1.007825032230
         H            3.177116344886    -1.540855430800    -0.526052521499     1.007825032230

  Basis Set: AUG-CC-PVTZ
    Blend: AUG-CC-PVTZ
  Basis Set: (AUG-CC-PVTZ AUX)
    Blend: AUG-CC-PVTZ-JKFIT
	 Reference Energy          =    -435.6016754121606027 [Eh]
	 Singles Energy            =      -0.0000000000000000 [Eh]
	 Same-Spin Energy          =      -0.4470239431002060 [Eh]
	 Opposite-Spin Energy      =      -1.3694401385871739 [Eh]
	 Correlation Energy        =      -1.8164640816873798 [Eh]
	 Total Energy              =    -437.4181394938480025 [Eh]

	 ================> DF-SCS-MP2 Energies <==================
	-----------------------------------------------------------
	 SCS Same-Spin Scale       =       0.3333333333333333 [-]
	 SCS Opposite-Spin Scale   =       1.2000000000000000 [-]
	 SCS Same-Spin Energy      =      -0.1490079810334020 [Eh]
	 SCS Opposite-Spin Energy  =      -1.6433281663046087 [Eh]
	 SCS Correlation Energy    =      -1.7923361473380106 [Eh]
	 SCS Total Energy          =    -437.3940115594986082 [Eh]
	-----------------------------------------------------------

  Dipole Moment: [D]
     X:     0.1707      Y:    -2.9635      Z:    -0.0061     Total:     2.9684

*** Psi4 exiting successfully. Buy a developer a beer!
