                               Psi4 1.3.2 release

  ==> Input File <==

--------------------------------------------------------------------------
#psi4
#
memory 32 gb

molecule  {
0 1
  O       -1.4890520    -1.1699510    -0.0104640
  O        1.7837190     1.3890130    -0.0214620
  N        0.7526660    -0.6498780    -0.0214550
  C       -0.5553190    -0.1742840    -0.0060060
  C       -1.1407710     1.0618160     0.0104930
  C        1.8652240     0.1617960    -0.0202730
  C       -2.5496710     0.8075520     0.0175600
  C       -2.7164660    -0.5449080     0.0047820
  C        3.1811850    -0.5832010     0.0301470
  H        0.8582920    -1.6573840    -0.0213170
  H       -0.6226040     2.0066250     0.0153600
  H       -3.3417392     1.5482468    -0.2194970
  H       -3.5700130    -1.2048780     0.0045220
  H        3.4438230    -0.7947010     1.0711420
  H        3.9529480     0.0571610    -0.3968850
  H        3.1464960    -1.5284770    -0.5179270
units angstrom
no_reorient  #important for SAPT in psi4, default
symmetry c1  #important for SAPT in psi4, default
}

set PROPERTIES_ORIGIN ["COM"]
properties('MP2/aug-cc-pvtz', properties = ['dipole'])
--------------------------------------------------------------------------

    Molecular point group: c1
  Charge       = 0
  Multiplicity = 1
  Basis Set: AUG-CC-PVTZ
    Blend: AUG-CC-PVTZ
  Basis Set: (AUG-CC-PVTZ AUX)
    Blend: AUG-CC-PVTZ-JKFIT

    Orbital Energies [Eh]
    ---------------------

    Doubly Occupied:

       1A    -20.630055     2A    -20.535078     3A    -15.620009
       4A    -11.371488     5A    -11.338803     6A    -11.285844
       7A    -11.250930     8A    -11.236274     9A    -11.220631
      10A     -1.467111    11A     -1.389992    12A     -1.256425
      13A     -1.083897    14A     -1.036803    15A     -0.978000
      16A     -0.849691    17A     -0.805154    18A     -0.771337
      19A     -0.739286    20A     -0.684893    21A     -0.659923
      22A     -0.650192    23A     -0.621772    24A     -0.602060
      25A     -0.574946    26A     -0.568584    27A     -0.562608
      28A     -0.548370    29A     -0.543591    30A     -0.455870
      31A     -0.439970    32A     -0.397746    33A     -0.294044

  @DF-RHF Final Energy:  -435.60033776516661

   => Energetics <=

    Nuclear Repulsion Energy =            427.7274868472604794
    One-Electron Energy =               -1441.7128963484722135
    Two-Electron Energy =                 578.3850717360451199
    Total Energy =                       -435.6003377651666142
  Basis Set: (AUG-CC-PVTZ AUX)
    Blend: AUG-CC-PVTZ-RI
    Molecular point group: c1

    Geometry (in Angstrom), charge = 0, multiplicity = 1:

       Center              X                  Y                   Z               Mass
    ------------   -----------------  -----------------  -----------------  -----------------
         O           -1.458347383524    -1.182451200848    -0.006979240307    15.994914619570
         O            1.814423616476     1.376512799152    -0.017977240307    15.994914619570
         N            0.783370616476    -0.662378200848    -0.017970240307    14.003074004430
         C           -0.524614383524    -0.186784200848    -0.002521240307    12.000000000000
         C           -1.110066383524     1.049315799152     0.013977759693    12.000000000000
         C            1.895928616476     0.149295799152    -0.016788240307    12.000000000000
         C           -2.518966383524     0.795051799152     0.021044759693    12.000000000000
         C           -2.685761383524    -0.557408200848     0.008266759693    12.000000000000
         C            3.211889616476    -0.595701200848     0.033631759693    12.000000000000
         H            0.888996616476    -1.669884200848    -0.017832240307     1.007825032230
         H           -0.591899383524     1.994124799152     0.018844759693     1.007825032230
         H           -3.311034583524     1.535746599152    -0.216012240307     1.007825032230
         H           -3.539308383524    -1.217378200848     0.008006759693     1.007825032230
         H            3.474527616476    -0.807201200848     1.074626759693     1.007825032230
         H            3.983652616476     0.044660799152    -0.393400240307     1.007825032230
         H            3.177200616476    -1.540977200848    -0.514442240307     1.007825032230

  Basis Set: AUG-CC-PVTZ
    Blend: AUG-CC-PVTZ
  Basis Set: (AUG-CC-PVTZ AUX)
    Blend: AUG-CC-PVTZ-JKFIT
	 Reference Energy          =    -435.6003377651666142 [Eh]
	 Singles Energy            =      -0.0000000000000000 [Eh]
	 Same-Spin Energy          =      -0.4471051150852592 [Eh]
	 Opposite-Spin Energy      =      -1.3696153323067879 [Eh]
	 Correlation Energy        =      -1.8167204473920471 [Eh]
	 Total Energy              =    -437.4170582125586861 [Eh]

	 ================> DF-SCS-MP2 Energies <==================
	-----------------------------------------------------------
	 SCS Same-Spin Scale       =       0.3333333333333333 [-]
	 SCS Opposite-Spin Scale   =       1.2000000000000000 [-]
	 SCS Same-Spin Energy      =      -0.1490350383617531 [Eh]
	 SCS Opposite-Spin Energy  =      -1.6435383987681453 [Eh]
	 SCS Correlation Energy    =      -1.7925734371298985 [Eh]
	 SCS Total Energy          =    -437.3929112022964887 [Eh]
	-----------------------------------------------------------

  Dipole Moment: [D]
     X:     0.1982      Y:    -2.9815      Z:    -0.1142     Total:     2.9902

*** Psi4 exiting successfully. Buy a developer a beer!
