                               Psi4 1.3.2 release

  ==> Input File <==

--------------------------------------------------------------------------
#psi4
#
memory 32 gb

molecule  {
0 1
  O       -1.4890520    -1.1699510    -0.0104640
  O        1.7837190     1.3890130    -0.0214620
  N        0.7526660    -0.6498780    -0.0214550
  C       -0.5553190    -0.1742840    -0.0060060
  C       -1.1389343     1.0591820     0.2604724
  C        1.8652240     0.1617960    -0.0202730
  C       -2.5496710     0.8075520     0.0175600
  C       -2.7164660    -0.5449080     0.0047820
  C        3.1811850    -0.5832010     0.0301470
  H        0.8582920    -1.6573840    -0.0213170
  H       -0.6226040     2.0066250     0.0153600
  H       -3.3400310     1.5456830     0.0304840
  H       -3.5700130    -1.2048780     0.0045220
  H        3.4438230    -0.7947010     1.0711420
  H        3.9529480     0.0571610    -0.3968850
  H        3.1464960    -1.5284770    -0.5179270
units angstrom
no_reorient  #important for SAPT in psi4, default
symmetry c1  #important for SAPT in psi4, default
}

set PROPERTIES_ORIGIN ["COM"]
properties('MP2/aug-cc-pvtz', properties = ['dipole'])
--------------------------------------------------------------------------

    Molecular point group: c1
  Charge       = 0
  Multiplicity = 1
  Basis Set: AUG-CC-PVTZ
    Blend: AUG-CC-PVTZ
  Basis Set: (AUG-CC-PVTZ AUX)
    Blend: AUG-CC-PVTZ-JKFIT

    Orbital Energies [Eh]
    ---------------------

    Doubly Occupied:

       1A    -20.631287     2A    -20.536541     3A    -15.622421
       4A    -11.372970     5A    -11.346926     6A    -11.284543
       7A    -11.251983     8A    -11.235460     9A    -11.225229
      10A     -1.468294    11A     -1.391314    12A     -1.258683
      13A     -1.078712    14A     -1.037850    15A     -0.977495
      16A     -0.850719    17A     -0.804576    18A     -0.770179
      19A     -0.739681    20A     -0.685730    21A     -0.660964
      22A     -0.649292    23A     -0.622899    24A     -0.603512
      25A     -0.574438    26A     -0.567896    27A     -0.556511
      28A     -0.547464    29A     -0.537710    30A     -0.456380
      31A     -0.440779    32A     -0.396025    33A     -0.294435

  @DF-RHF Final Energy:  -435.58762181992739

   => Energetics <=

    Nuclear Repulsion Energy =            427.0990771588168400
    One-Electron Energy =               -1440.4155981596502443
    Two-Electron Energy =                 577.7288991809059553
    Total Energy =                       -435.5876218199274490
  Basis Set: (AUG-CC-PVTZ AUX)
    Blend: AUG-CC-PVTZ-RI
    Molecular point group: c1

    Geometry (in Angstrom), charge = 0, multiplicity = 1:

       Center              X                  Y                   Z               Mass
    ------------   -----------------  -----------------  -----------------  -----------------
         O           -1.458537406777    -1.182177770248    -0.032982841087    15.994914619570
         O            1.814233593223     1.376786229752    -0.043980841087    15.994914619570
         N            0.783180593223    -0.662104770248    -0.043973841087    14.003074004430
         C           -0.524804406777    -0.186510770248    -0.028524841087    12.000000000000
         C           -1.108419706777     1.046955229752     0.237953558913    12.000000000000
         C            1.895738593223     0.149569229752    -0.042791841087    12.000000000000
         C           -2.519156406777     0.795325229752    -0.004958841087    12.000000000000
         C           -2.685951406777    -0.557134770248    -0.017736841087    12.000000000000
         C            3.211699593223    -0.595427770248     0.007628158913    12.000000000000
         H            0.888806593223    -1.669610770248    -0.043835841087     1.007825032230
         H           -0.592089406777     1.994398229752    -0.007158841087     1.007825032230
         H           -3.309516406777     1.533456229752     0.007965158913     1.007825032230
         H           -3.539498406777    -1.217104770248    -0.017996841087     1.007825032230
         H            3.474337593223    -0.806927770248     1.048623158913     1.007825032230
         H            3.983462593223     0.044934229752    -0.419403841087     1.007825032230
         H            3.177010593223    -1.540703770248    -0.540445841087     1.007825032230

  Basis Set: AUG-CC-PVTZ
    Blend: AUG-CC-PVTZ
  Basis Set: (AUG-CC-PVTZ AUX)
    Blend: AUG-CC-PVTZ-JKFIT
	 Reference Energy          =    -435.5876218199273922 [Eh]
	 Singles Energy            =      -0.0000000000000000 [Eh]
	 Same-Spin Energy          =      -0.4476153287680713 [Eh]
	 Opposite-Spin Energy      =      -1.3714084122699264 [Eh]
	 Correlation Energy        =      -1.8190237410379977 [Eh]
	 Total Energy              =    -437.4066455609653872 [Eh]

	 ================> DF-SCS-MP2 Energies <==================
	-----------------------------------------------------------
	 SCS Same-Spin Scale       =       0.3333333333333333 [-]
	 SCS Opposite-Spin Scale   =       1.2000000000000000 [-]
	 SCS Same-Spin Energy      =      -0.1492051095893571 [Eh]
	 SCS Opposite-Spin Energy  =      -1.6456900947239117 [Eh]
	 SCS Correlation Energy    =      -1.7948952043132689 [Eh]
	 SCS Total Energy          =    -437.3825170242406557 [Eh]
	-----------------------------------------------------------

  Dipole Moment: [D]
     X:     0.2120      Y:    -3.0574      Z:    -0.1377     Total:     3.0678

*** Psi4 exiting successfully. Buy a developer a beer!
