                               Psi4 1.3.2 release

  ==> Input File <==

--------------------------------------------------------------------------
#psi4
#
memory 32 gb

molecule  {
0 1
  O       -1.4890520    -1.1699510    -0.0104640
  O        1.7837190     1.3890130    -0.0214620
  N        0.7526660    -0.6498780    -0.0214550
  C       -0.5553190    -0.1742840    -0.0060060
  C       -1.1404037     1.0612892     0.0604889
  C        1.8652240     0.1617960    -0.0202730
  C       -2.5496710     0.8075520     0.0175600
  C       -2.7164660    -0.5449080     0.0047820
  C        3.1811850    -0.5832010     0.0301470
  H        0.8582920    -1.6573840    -0.0213170
  H       -0.6226040     2.0066250     0.0153600
  H       -3.3400310     1.5456830     0.0304840
  H       -3.5700130    -1.2048780     0.0045220
  H        3.4438230    -0.7947010     1.0711420
  H        3.9529480     0.0571610    -0.3968850
  H        3.1464960    -1.5284770    -0.5179270
units angstrom
no_reorient  #important for SAPT in psi4, default
symmetry c1  #important for SAPT in psi4, default
}

set PROPERTIES_ORIGIN ["COM"]
properties('MP2/aug-cc-pvtz', properties = ['dipole'])
--------------------------------------------------------------------------

    Molecular point group: c1
  Charge       = 0
  Multiplicity = 1
  Basis Set: AUG-CC-PVTZ
    Blend: AUG-CC-PVTZ
  Basis Set: (AUG-CC-PVTZ AUX)
    Blend: AUG-CC-PVTZ-JKFIT

    Orbital Energies [Eh]
    ---------------------

    Doubly Occupied:

       1A    -20.629513     2A    -20.535055     3A    -15.620004
       4A    -11.371466     5A    -11.339006     6A    -11.284578
       7A    -11.250902     8A    -11.234053     9A    -11.220739
      10A     -1.466593    11A     -1.389958    12A     -1.256379
      13A     -1.083846    14A     -1.036736    15A     -0.977832
      16A     -0.850272    17A     -0.805858    18A     -0.771106
      19A     -0.742097    20A     -0.684750    21A     -0.659516
      22A     -0.649785    23A     -0.621572    24A     -0.602473
      25A     -0.575991    26A     -0.569272    27A     -0.565458
      28A     -0.548330    29A     -0.543493    30A     -0.455769
      31A     -0.439928    32A     -0.398394    33A     -0.293746

  @DF-RHF Final Energy:  -435.60364193799751

   => Energetics <=

    Nuclear Repulsion Energy =            427.8028728620033689
    One-Electron Energy =               -1441.8640880244081472
    Two-Electron Energy =                 578.4575732244072697
    Total Energy =                       -435.6036419379975086
  Basis Set: (AUG-CC-PVTZ AUX)
    Blend: AUG-CC-PVTZ-RI
    Molecular point group: c1

    Geometry (in Angstrom), charge = 0, multiplicity = 1:

       Center              X                  Y                   Z               Mass
    ------------   -----------------  -----------------  -----------------  -----------------
         O           -1.458396398162    -1.182379984318    -0.013791745104    15.994914619570
         O            1.814374601838     1.376584015682    -0.024789745104    15.994914619570
         N            0.783321601838    -0.662306984318    -0.024782745104    14.003074004430
         C           -0.524663398162    -0.186712984318    -0.009333745104    12.000000000000
         C           -1.109748098162     1.048860215682     0.057161154896    12.000000000000
         C            1.895879601838     0.149367015682    -0.023600745104    12.000000000000
         C           -2.519015398162     0.795123015682     0.014232254896    12.000000000000
         C           -2.685810398162    -0.557336984318     0.001454254896    12.000000000000
         C            3.211840601838    -0.595629984318     0.026819254896    12.000000000000
         H            0.888947601838    -1.669812984318    -0.024644745104     1.007825032230
         H           -0.591948398162     1.994196015682     0.012032254896     1.007825032230
         H           -3.309375398162     1.533254015682     0.027156254896     1.007825032230
         H           -3.539357398162    -1.217306984318     0.001194254896     1.007825032230
         H            3.474478601838    -0.807129984318     1.067814254896     1.007825032230
         H            3.983603601838     0.044732015682    -0.400212745104     1.007825032230
         H            3.177151601838    -1.540905984318    -0.521254745104     1.007825032230

  Basis Set: AUG-CC-PVTZ
    Blend: AUG-CC-PVTZ
  Basis Set: (AUG-CC-PVTZ AUX)
    Blend: AUG-CC-PVTZ-JKFIT
	 Reference Energy          =    -435.6036419379975086 [Eh]
	 Singles Energy            =      -0.0000000000000000 [Eh]
	 Same-Spin Energy          =      -0.4469353836458856 [Eh]
	 Opposite-Spin Energy      =      -1.3691990026897936 [Eh]
	 Correlation Energy        =      -1.8161343863356791 [Eh]
	 Total Energy              =    -437.4197763243332133 [Eh]

	 ================> DF-SCS-MP2 Energies <==================
	-----------------------------------------------------------
	 SCS Same-Spin Scale       =       0.3333333333333333 [-]
	 SCS Opposite-Spin Scale   =       1.2000000000000000 [-]
	 SCS Same-Spin Energy      =      -0.1489784612152952 [Eh]
	 SCS Opposite-Spin Energy  =      -1.6430388032277523 [Eh]
	 SCS Correlation Energy    =      -1.7920172644430474 [Eh]
	 SCS Total Energy          =    -437.3956592024405836 [Eh]
	-----------------------------------------------------------

  Dipole Moment: [D]
     X:     0.1652      Y:    -2.9496      Z:     0.0363     Total:     2.9545

*** Psi4 exiting successfully. Buy a developer a beer!
