                               Psi4 1.3.2 release

  ==> Input File <==

--------------------------------------------------------------------------
#psi4
#
memory 32 gb

molecule  {
0 1
  O       -1.4890520    -1.1699510    -0.0104640
  O        1.7837190     1.3890130    -0.0214620
  N        0.7526660    -0.6498780    -0.0214550
  C       -0.5553190    -0.1742840    -0.0060060
  C       -1.1385669     1.0586552     0.3104683
  C        1.8652240     0.1617960    -0.0202730
  C       -2.5496710     0.8075520     0.0175600
  C       -2.7164660    -0.5449080     0.0047820
  C        3.1811850    -0.5832010     0.0301470
  H        0.8582920    -1.6573840    -0.0213170
  H       -0.6226040     2.0066250     0.0153600
  H       -3.3400310     1.5456830     0.0304840
  H       -3.5700130    -1.2048780     0.0045220
  H        3.4438230    -0.7947010     1.0711420
  H        3.9529480     0.0571610    -0.3968850
  H        3.1464960    -1.5284770    -0.5179270
units angstrom
no_reorient  #important for SAPT in psi4, default
symmetry c1  #important for SAPT in psi4, default
}

set PROPERTIES_ORIGIN ["COM"]
properties('MP2/aug-cc-pvtz', properties = ['dipole'])
--------------------------------------------------------------------------

    Molecular point group: c1
  Charge       = 0
  Multiplicity = 1
  Basis Set: AUG-CC-PVTZ
    Blend: AUG-CC-PVTZ
  Basis Set: (AUG-CC-PVTZ AUX)
    Blend: AUG-CC-PVTZ-JKFIT

    Orbital Energies [Eh]
    ---------------------

    Doubly Occupied:

       1A    -20.632104     2A    -20.537217     3A    -15.623521
       4A    -11.373654     5A    -11.350402     6A    -11.284583
       7A    -11.252474     8A    -11.236022     9A    -11.227218
      10A     -1.469075    11A     -1.391933    12A     -1.259723
      13A     -1.076398    14A     -1.038368    15A     -0.977337
      16A     -0.850925    17A     -0.804108    18A     -0.770000
      19A     -0.738603    20A     -0.686202    21A     -0.661532
      22A     -0.649137    23A     -0.623446    24A     -0.604015
      25A     -0.574658    26A     -0.567693    27A     -0.552309
      28A     -0.546954    29A     -0.534208    30A     -0.456664
      31A     -0.441132    32A     -0.395049    33A     -0.294817

  @DF-RHF Final Energy:  -435.58011404996211

   => Energetics <=

    Nuclear Repulsion Energy =            426.7851410965412242
    One-Electron Energy =               -1439.7675438135795503
    Two-Electron Energy =                 577.4022886670761636
    Total Energy =                       -435.5801140499621624
  Basis Set: (AUG-CC-PVTZ AUX)
    Blend: AUG-CC-PVTZ-RI
    Molecular point group: c1

    Geometry (in Angstrom), charge = 0, multiplicity = 1:

       Center              X                  Y                   Z               Mass
    ------------   -----------------  -----------------  -----------------  -----------------
         O           -1.458572663730    -1.182127216730    -0.037780617482    15.994914619570
         O            1.814198336270     1.376836783270    -0.048778617482    15.994914619570
         N            0.783145336270    -0.662054216730    -0.048771617482    14.003074004430
         C           -0.524839663730    -0.186460216730    -0.033322617482    12.000000000000
         C           -1.108087563730     1.046478983270     0.283151682518    12.000000000000
         C            1.895703336270     0.149619783270    -0.047589617482    12.000000000000
         C           -2.519191663730     0.795375783270    -0.009756617482    12.000000000000
         C           -2.685986663730    -0.557084216730    -0.022534617482    12.000000000000
         C            3.211664336270    -0.595377216730     0.002830382518    12.000000000000
         H            0.888771336270    -1.669560216730    -0.048633617482     1.007825032230
         H           -0.592124663730     1.994448783270    -0.011956617482     1.007825032230
         H           -3.309551663730     1.533506783270     0.003167382518     1.007825032230
         H           -3.539533663730    -1.217054216730    -0.022794617482     1.007825032230
         H            3.474302336270    -0.806877216730     1.043825382518     1.007825032230
         H            3.983427336270     0.044984783270    -0.424201617482     1.007825032230
         H            3.176975336270    -1.540653216730    -0.545243617482     1.007825032230

  Basis Set: AUG-CC-PVTZ
    Blend: AUG-CC-PVTZ
  Basis Set: (AUG-CC-PVTZ AUX)
    Blend: AUG-CC-PVTZ-JKFIT
	 Reference Energy          =    -435.5801140499621056 [Eh]
	 Singles Energy            =      -0.0000000000000000 [Eh]
	 Same-Spin Energy          =      -0.4479035035188068 [Eh]
	 Opposite-Spin Energy      =      -1.3724531990422961 [Eh]
	 Correlation Energy        =      -1.8203567025611029 [Eh]
	 Total Energy              =    -437.4004707525232334 [Eh]

	 ================> DF-SCS-MP2 Energies <==================
	-----------------------------------------------------------
	 SCS Same-Spin Scale       =       0.3333333333333333 [-]
	 SCS Opposite-Spin Scale   =       1.2000000000000000 [-]
	 SCS Same-Spin Energy      =      -0.1493011678396023 [Eh]
	 SCS Opposite-Spin Energy  =      -1.6469438388507553 [Eh]
	 SCS Correlation Energy    =      -1.7962450066903577 [Eh]
	 SCS Total Energy          =    -437.3763590566524613 [Eh]
	-----------------------------------------------------------

  Dipole Moment: [D]
     X:     0.2333      Y:    -3.1040      Z:    -0.1829     Total:     3.1182

*** Psi4 exiting successfully. Buy a developer a beer!
