                               Psi4 1.3.2 release

  ==> Input File <==

--------------------------------------------------------------------------
#psi4
#
memory 32 gb

molecule  {
0 1
  O       -1.4890520    -1.1699510    -0.0104640
  O        1.7837190     1.3890130    -0.0214620
  N        0.7526660    -0.6498780    -0.0214550
  C       -0.5553190    -0.1742840    -0.0060060
  C       -1.1407710     1.0618160     0.0104930
  C        1.8652240     0.1617960    -0.0202730
  C       -2.5496710     0.8075520     0.0175600
  C       -2.7164660    -0.5449080     0.0047820
  C        3.1811850    -0.5832010     0.0301470
  H        0.8582920    -1.6573840    -0.0213170
  H       -0.6226040     2.0066250     0.0153600
  H       -3.3400310     1.5456830     0.0304840
  H       -3.5685385    -1.2069212     0.2045061
  H        3.4438230    -0.7947010     1.0711420
  H        3.9529480     0.0571610    -0.3968850
  H        3.1464960    -1.5284770    -0.5179270
units angstrom
no_reorient  #important for SAPT in psi4, default
symmetry c1  #important for SAPT in psi4, default
}

set PROPERTIES_ORIGIN ["COM"]
properties('MP2/aug-cc-pvtz', properties = ['dipole'])
--------------------------------------------------------------------------

    Molecular point group: c1
  Charge       = 0
  Multiplicity = 1
  Basis Set: AUG-CC-PVTZ
    Blend: AUG-CC-PVTZ
  Basis Set: (AUG-CC-PVTZ AUX)
    Blend: AUG-CC-PVTZ-JKFIT

    Orbital Energies [Eh]
    ---------------------

    Doubly Occupied:

       1A    -20.629295     2A    -20.535273     3A    -15.620233
       4A    -11.371683     5A    -11.339292     6A    -11.285587
       7A    -11.251054     8A    -11.234586     9A    -11.220868
      10A     -1.466528    11A     -1.390179    12A     -1.256586
      13A     -1.084410    14A     -1.036754    15A     -0.977299
      16A     -0.850485    17A     -0.804304    18A     -0.771288
      19A     -0.742357    20A     -0.684153    21A     -0.660462
      22A     -0.646584    23A     -0.621511    24A     -0.602313
      25A     -0.576463    26A     -0.569325    27A     -0.565827
      28A     -0.548170    29A     -0.542369    30A     -0.455916
      31A     -0.440155    32A     -0.398608    33A     -0.293970

  @DF-RHF Final Energy:  -435.60220371257276

   => Energetics <=

    Nuclear Repulsion Energy =            427.7621732718848193
    One-Electron Energy =               -1441.7809825750296113
    Two-Electron Energy =                 578.4166055905719759
    Total Energy =                       -435.6022037125727593
  Basis Set: (AUG-CC-PVTZ AUX)
    Blend: AUG-CC-PVTZ-RI
    Molecular point group: c1

    Geometry (in Angstrom), charge = 0, multiplicity = 1:

       Center              X                  Y                   Z               Mass
    ------------   -----------------  -----------------  -----------------  -----------------
         O           -1.458373034578    -1.182414070612    -0.010605745788    15.994914619570
         O            1.814397965422     1.376549929388    -0.021603745788    15.994914619570
         N            0.783344965422    -0.662341070612    -0.021596745788    14.003074004430
         C           -0.524640034578    -0.186747070612    -0.006147745788    12.000000000000
         C           -1.110092034578     1.049352929388     0.010351254212    12.000000000000
         C            1.895902965422     0.149332929388    -0.020414745788    12.000000000000
         C           -2.518992034578     0.795088929388     0.017418254212    12.000000000000
         C           -2.685787034578    -0.557371070612     0.004640254212    12.000000000000
         C            3.211863965422    -0.595664070612     0.030005254212    12.000000000000
         H            0.888970965422    -1.669847070612    -0.021458745788     1.007825032230
         H           -0.591925034578     1.994161929388     0.015218254212     1.007825032230
         H           -3.309352034578     1.533219929388     0.030342254212     1.007825032230
         H           -3.537859534578    -1.219384270612     0.204364354212     1.007825032230
         H            3.474501965422    -0.807164070612     1.071000254212     1.007825032230
         H            3.983626965422     0.044697929388    -0.397026745788     1.007825032230
         H            3.177174965422    -1.540940070612    -0.518068745788     1.007825032230

  Basis Set: AUG-CC-PVTZ
    Blend: AUG-CC-PVTZ
  Basis Set: (AUG-CC-PVTZ AUX)
    Blend: AUG-CC-PVTZ-JKFIT
	 Reference Energy          =    -435.6022037125727593 [Eh]
	 Singles Energy            =      -0.0000000000000000 [Eh]
	 Same-Spin Energy          =      -0.4470443161726902 [Eh]
	 Opposite-Spin Energy      =      -1.3694404619496801 [Eh]
	 Correlation Energy        =      -1.8164847781223703 [Eh]
	 Total Energy              =    -437.4186884906951036 [Eh]

	 ================> DF-SCS-MP2 Energies <==================
	-----------------------------------------------------------
	 SCS Same-Spin Scale       =       0.3333333333333333 [-]
	 SCS Opposite-Spin Scale   =       1.2000000000000000 [-]
	 SCS Same-Spin Energy      =      -0.1490147720575634 [Eh]
	 SCS Opposite-Spin Energy  =      -1.6433285543396161 [Eh]
	 SCS Correlation Energy    =      -1.7923433263971795 [Eh]
	 SCS Total Energy          =    -437.3945470389699608 [Eh]
	-----------------------------------------------------------

  Dipole Moment: [D]
     X:     0.2048      Y:    -2.9211      Z:     0.2577     Total:     2.9396

*** Psi4 exiting successfully. Buy a developer a beer!
