                               Psi4 1.3.2 release

  ==> Input File <==

--------------------------------------------------------------------------
#psi4
#
memory 32 gb

molecule  {
0 1
  O       -1.4890520    -1.1699510    -0.0104640
  O        1.7837190     1.3890130    -0.0214620
  N        0.7526660    -0.6498780    -0.0214550
  C       -0.5553190    -0.1742840    -0.0060060
  C       -1.1407710     1.0618160     0.0104930
  C        1.8652240     0.1617960    -0.0202730
  C       -2.5496710     0.8075520     0.0175600
  C       -2.7164660    -0.5449080     0.0047820
  C        3.1811850    -0.5832010     0.0301470
  H        0.8582920    -1.6573840    -0.0213170
  H       -0.6226040     2.0066250     0.0153600
  H       -3.3400310     1.5456830     0.0304840
  H       -3.5678013    -1.2079428     0.3044982
  H        3.4438230    -0.7947010     1.0711420
  H        3.9529480     0.0571610    -0.3968850
  H        3.1464960    -1.5284770    -0.5179270
units angstrom
no_reorient  #important for SAPT in psi4, default
symmetry c1  #important for SAPT in psi4, default
}

set PROPERTIES_ORIGIN ["COM"]
properties('MP2/aug-cc-pvtz', properties = ['dipole'])
--------------------------------------------------------------------------

    Molecular point group: c1
  Charge       = 0
  Multiplicity = 1
  Basis Set: AUG-CC-PVTZ
    Blend: AUG-CC-PVTZ
  Basis Set: (AUG-CC-PVTZ AUX)
    Blend: AUG-CC-PVTZ-JKFIT

    Orbital Energies [Eh]
    ---------------------

    Doubly Occupied:

       1A    -20.629153     2A    -20.535616     3A    -15.620632
       4A    -11.372023     5A    -11.340052     6A    -11.286824
       7A    -11.251288     8A    -11.235312     9A    -11.221261
      10A     -1.466555    11A     -1.390515    12A     -1.256955
      13A     -1.084836    14A     -1.036846    15A     -0.976702
      16A     -0.850775    17A     -0.802536    18A     -0.771432
      19A     -0.742567    20A     -0.683563    21A     -0.661277
      22A     -0.643229    23A     -0.621508    24A     -0.602145
      25A     -0.576774    26A     -0.569292    27A     -0.565999
      28A     -0.547908    29A     -0.540488    30A     -0.456112
      31A     -0.440477    32A     -0.398754    33A     -0.294290

  @DF-RHF Final Energy:  -435.59917255549385

   => Energetics <=

    Nuclear Repulsion Energy =            427.6777906348168017
    One-Electron Energy =               -1441.6065376740498323
    Two-Electron Energy =                 578.3295744837391794
    Total Energy =                       -435.5991725554938512
  Basis Set: (AUG-CC-PVTZ AUX)
    Blend: AUG-CC-PVTZ-RI
    Molecular point group: c1

    Geometry (in Angstrom), charge = 0, multiplicity = 1:

       Center              X                  Y                   Z               Mass
    ------------   -----------------  -----------------  -----------------  -----------------
         O           -1.458378976060    -1.182405837000    -0.011411634731    15.994914619570
         O            1.814392023940     1.376558163000    -0.022409634731    15.994914619570
         N            0.783339023940    -0.662332837000    -0.022402634731    14.003074004430
         C           -0.524645976060    -0.186738837000    -0.006953634731    12.000000000000
         C           -1.110097976060     1.049361163000     0.009545365269    12.000000000000
         C            1.895897023940     0.149341163000    -0.021220634731    12.000000000000
         C           -2.518997976060     0.795097163000     0.016612365269    12.000000000000
         C           -2.685792976060    -0.557362837000     0.003834365269    12.000000000000
         C            3.211858023940    -0.595655837000     0.029199365269    12.000000000000
         H            0.888965023940    -1.669838837000    -0.022264634731     1.007825032230
         H           -0.591930976060     1.994170163000     0.014412365269     1.007825032230
         H           -3.309357976060     1.533228163000     0.029536365269     1.007825032230
         H           -3.537128276060    -1.220397637000     0.303550565269     1.007825032230
         H            3.474496023940    -0.807155837000     1.070194365269     1.007825032230
         H            3.983621023940     0.044706163000    -0.397832634731     1.007825032230
         H            3.177169023940    -1.540931837000    -0.518874634731     1.007825032230

  Basis Set: AUG-CC-PVTZ
    Blend: AUG-CC-PVTZ
  Basis Set: (AUG-CC-PVTZ AUX)
    Blend: AUG-CC-PVTZ-JKFIT
	 Reference Energy          =    -435.5991725554938512 [Eh]
	 Singles Energy            =      -0.0000000000000000 [Eh]
	 Same-Spin Energy          =      -0.4472100850442130 [Eh]
	 Opposite-Spin Energy      =      -1.3698578610108469 [Eh]
	 Correlation Energy        =      -1.8170679460550598 [Eh]
	 Total Energy              =    -437.4162405015488844 [Eh]

	 ================> DF-SCS-MP2 Energies <==================
	-----------------------------------------------------------
	 SCS Same-Spin Scale       =       0.3333333333333333 [-]
	 SCS Opposite-Spin Scale   =       1.2000000000000000 [-]
	 SCS Same-Spin Energy      =      -0.1490700283480710 [Eh]
	 SCS Opposite-Spin Energy  =      -1.6438294332130163 [Eh]
	 SCS Correlation Energy    =      -1.7928994615610874 [Eh]
	 SCS Total Energy          =    -437.3920720170549430 [Eh]
	-----------------------------------------------------------

  Dipole Moment: [D]
     X:     0.2533      Y:    -2.8911      Z:     0.3433     Total:     2.9224

*** Psi4 exiting successfully. Buy a developer a beer!
