                               Psi4 1.3.2 release

  ==> Input File <==

--------------------------------------------------------------------------
#psi4
#
memory 32 gb

molecule  {
0 1
  O       -1.4890520    -1.1699510    -0.0104640
  O        1.7837190     1.3890130    -0.0214620
  N        0.7526660    -0.6498780    -0.0214550
  C       -0.5553190    -0.1742840    -0.0060060
  C       -1.1407710     1.0618160     0.0104930
  C        1.8652240     0.1617960    -0.0202730
  C       -2.5496710     0.8075520     0.0175600
  C       -2.7164660    -0.5449080     0.0047820
  C        3.1811850    -0.5832010     0.0301470
  H        0.8582920    -1.6573840    -0.0213170
  H       -0.6236691     2.0080616    -0.1346293
  H       -3.3400310     1.5456830     0.0304840
  H       -3.5700130    -1.2048780     0.0045220
  H        3.4438230    -0.7947010     1.0711420
  H        3.9529480     0.0571610    -0.3968850
  H        3.1464960    -1.5284770    -0.5179270
units angstrom
no_reorient  #important for SAPT in psi4, default
symmetry c1  #important for SAPT in psi4, default
}

set PROPERTIES_ORIGIN ["COM"]
properties('MP2/aug-cc-pvtz', properties = ['dipole'])
--------------------------------------------------------------------------

    Molecular point group: c1
  Charge       = 0
  Multiplicity = 1
  Basis Set: AUG-CC-PVTZ
    Blend: AUG-CC-PVTZ
  Basis Set: (AUG-CC-PVTZ AUX)
    Blend: AUG-CC-PVTZ-JKFIT

    Orbital Energies [Eh]
    ---------------------

    Doubly Occupied:

       1A    -20.629563     2A    -20.535026     3A    -15.620081
       4A    -11.371447     5A    -11.339047     6A    -11.284602
       7A    -11.250895     8A    -11.233939     9A    -11.221249
      10A     -1.466677    11A     -1.389932    12A     -1.256430
      13A     -1.083956    14A     -1.036753    15A     -0.977842
      16A     -0.850159    17A     -0.805992    18A     -0.770310
      19A     -0.741786    20A     -0.684644    21A     -0.659702
      22A     -0.649717    23A     -0.621584    24A     -0.602411
      25A     -0.575395    26A     -0.569065    27A     -0.564712
      28A     -0.547985    29A     -0.543841    30A     -0.455793
      31A     -0.439851    32A     -0.398179    33A     -0.293795

  @DF-RHF Final Energy:  -435.60298853648823

   => Energetics <=

    Nuclear Repulsion Energy =            427.7887425216950419
    One-Electron Energy =               -1441.8387381670738705
    Two-Electron Energy =                 578.4470071088906025
    Total Energy =                       -435.6029885364882830
  Basis Set: (AUG-CC-PVTZ AUX)
    Blend: AUG-CC-PVTZ-RI
    Molecular point group: c1

    Geometry (in Angstrom), charge = 0, multiplicity = 1:

       Center              X                  Y                   Z               Mass
    ------------   -----------------  -----------------  -----------------  -----------------
         O           -1.458352566605    -1.182442116151    -0.007785126026    15.994914619570
         O            1.814418433395     1.376521883849    -0.018783126026    15.994914619570
         N            0.783365433395    -0.662369116151    -0.018776126026    14.003074004430
         C           -0.524619566605    -0.186775116151    -0.003327126026    12.000000000000
         C           -1.110071566605     1.049324883849     0.013171873974    12.000000000000
         C            1.895923433395     0.149304883849    -0.017594126026    12.000000000000
         C           -2.518971566605     0.795060883849     0.020238873974    12.000000000000
         C           -2.685766566605    -0.557399116151     0.007460873974    12.000000000000
         C            3.211884433395    -0.595692116151     0.032825873974    12.000000000000
         H            0.888991433395    -1.669875116151    -0.018638126026     1.007825032230
         H           -0.592969666605     1.995570483849    -0.131950426026     1.007825032230
         H           -3.309331566605     1.533191883849     0.033162873974     1.007825032230
         H           -3.539313566605    -1.217369116151     0.007200873974     1.007825032230
         H            3.474522433395    -0.807192116151     1.073820873974     1.007825032230
         H            3.983647433395     0.044669883849    -0.394206126026     1.007825032230
         H            3.177195433395    -1.540968116151    -0.515248126026     1.007825032230

  Basis Set: AUG-CC-PVTZ
    Blend: AUG-CC-PVTZ
  Basis Set: (AUG-CC-PVTZ AUX)
    Blend: AUG-CC-PVTZ-JKFIT
	 Reference Energy          =    -435.6029885364882261 [Eh]
	 Singles Energy            =      -0.0000000000000000 [Eh]
	 Same-Spin Energy          =      -0.4469765927399890 [Eh]
	 Opposite-Spin Energy      =      -1.3692719216523468 [Eh]
	 Correlation Energy        =      -1.8162485143923357 [Eh]
	 Total Energy              =    -437.4192370508805539 [Eh]

	 ================> DF-SCS-MP2 Energies <==================
	-----------------------------------------------------------
	 SCS Same-Spin Scale       =       0.3333333333333333 [-]
	 SCS Opposite-Spin Scale   =       1.2000000000000000 [-]
	 SCS Same-Spin Energy      =      -0.1489921975799963 [Eh]
	 SCS Opposite-Spin Energy  =      -1.6431263059828161 [Eh]
	 SCS Correlation Energy    =      -1.7921185035628124 [Eh]
	 SCS Total Energy          =    -437.3951070400510162 [Eh]
	-----------------------------------------------------------

  Dipole Moment: [D]
     X:     0.1635      Y:    -2.9571      Z:    -0.0463     Total:     2.9620

*** Psi4 exiting successfully. Buy a developer a beer!
