                               Psi4 1.3.2 release

  ==> Input File <==

--------------------------------------------------------------------------
#psi4
#
memory 32 gb

molecule  {
0 1
  O       -1.4890520    -1.1699510    -0.0104640
  O        1.7837190     1.3890130    -0.0214620
  N        0.7526660    -0.6498780    -0.0214550
  C       -0.5553190    -0.1742840    -0.0060060
  C       -1.1407710     1.0618160     0.0104930
  C        1.8652240     0.1617960    -0.0202730
  C       -2.5496710     0.8075520     0.0175600
  C       -2.7164660    -0.5449080     0.0047820
  C        3.1811850    -0.5832010     0.0301470
  H        0.8582920    -1.6573840    -0.0213170
  H       -0.6226040     2.0066250     0.0153600
  H       -3.3400310     1.5456830     0.0304840
  H       -3.5696444    -1.2053888     0.0545180
  H        3.4438230    -0.7947010     1.0711420
  H        3.9529480     0.0571610    -0.3968850
  H        3.1464960    -1.5284770    -0.5179270
units angstrom
no_reorient  #important for SAPT in psi4, default
symmetry c1  #important for SAPT in psi4, default
}

set PROPERTIES_ORIGIN ["COM"]
properties('MP2/aug-cc-pvtz', properties = ['dipole'])
--------------------------------------------------------------------------

    Molecular point group: c1
  Charge       = 0
  Multiplicity = 1
  Basis Set: AUG-CC-PVTZ
    Blend: AUG-CC-PVTZ
  Basis Set: (AUG-CC-PVTZ AUX)
    Blend: AUG-CC-PVTZ-JKFIT

    Orbital Energies [Eh]
    ---------------------

    Doubly Occupied:

       1A    -20.629429     2A    -20.535013     3A    -15.619926
       4A    -11.371421     5A    -11.338704     6A    -11.284643
       7A    -11.250873     8A    -11.234028     9A    -11.220569
      10A     -1.466521    11A     -1.389921    12A     -1.256303
      13A     -1.084084    14A     -1.036696    15A     -0.977807
      16A     -0.850269    17A     -0.805812    18A     -0.771179
      19A     -0.742207    20A     -0.684676    21A     -0.659512
      22A     -0.649608    23A     -0.621507    24A     -0.602425
      25A     -0.576236    26A     -0.569369    27A     -0.565699
      28A     -0.548377    29A     -0.543606    30A     -0.455761
      31A     -0.439908    32A     -0.398503    33A     -0.293727

  @DF-RHF Final Energy:  -435.60416965926902

   => Energetics <=

    Nuclear Repulsion Energy =            427.8280780752944565
    One-Electron Energy =               -1441.9158549529174707
    Two-Electron Energy =                 578.4836072183539954
    Total Energy =                       -435.6041696592690187
  Basis Set: (AUG-CC-PVTZ AUX)
    Blend: AUG-CC-PVTZ-RI
    Molecular point group: c1

    Geometry (in Angstrom), charge = 0, multiplicity = 1:

       Center              X                  Y                   Z               Mass
    ------------   -----------------  -----------------  -----------------  -----------------
         O           -1.458364121548    -1.182426421029    -0.009396912777    15.994914619570
         O            1.814406878452     1.376537578971    -0.020394912777    15.994914619570
         N            0.783353878452    -0.662353421029    -0.020387912777    14.003074004430
         C           -0.524631121548    -0.186759421029    -0.004938912777    12.000000000000
         C           -1.110083121548     1.049340578971     0.011560087223    12.000000000000
         C            1.895911878452     0.149320578971    -0.019205912777    12.000000000000
         C           -2.518983121548     0.795076578971     0.018627087223    12.000000000000
         C           -2.685778121548    -0.557383421029     0.005849087223    12.000000000000
         C            3.211872878452    -0.595676421029     0.031214087223    12.000000000000
         H            0.888979878452    -1.669859421029    -0.020249912777     1.007825032230
         H           -0.591916121548     1.994149578971     0.016427087223     1.007825032230
         H           -3.309343121548     1.533207578971     0.031551087223     1.007825032230
         H           -3.538956521548    -1.217864221029     0.055585087223     1.007825032230
         H            3.474510878452    -0.807176421029     1.072209087223     1.007825032230
         H            3.983635878452     0.044685578971    -0.395817912777     1.007825032230
         H            3.177183878452    -1.540952421029    -0.516859912777     1.007825032230

  Basis Set: AUG-CC-PVTZ
    Blend: AUG-CC-PVTZ
  Basis Set: (AUG-CC-PVTZ AUX)
    Blend: AUG-CC-PVTZ-JKFIT
	 Reference Energy          =    -435.6041696592690187 [Eh]
	 Singles Energy            =      -0.0000000000000000 [Eh]
	 Same-Spin Energy          =      -0.4469156302654812 [Eh]
	 Opposite-Spin Energy      =      -1.3691485716054839 [Eh]
	 Correlation Energy        =      -1.8160642018709652 [Eh]
	 Total Energy              =    -437.4202338611399909 [Eh]

	 ================> DF-SCS-MP2 Energies <==================
	-----------------------------------------------------------
	 SCS Same-Spin Scale       =       0.3333333333333333 [-]
	 SCS Opposite-Spin Scale   =       1.2000000000000000 [-]
	 SCS Same-Spin Energy      =      -0.1489718767551604 [Eh]
	 SCS Opposite-Spin Energy  =      -1.6429782859265807 [Eh]
	 SCS Correlation Energy    =      -1.7919501626817411 [Eh]
	 SCS Total Energy          =    -437.3961198219507764 [Eh]
	-----------------------------------------------------------

  Dipole Moment: [D]
     X:     0.1668      Y:    -2.9440      Z:     0.1235     Total:     2.9513

*** Psi4 exiting successfully. Buy a developer a beer!
