                               Psi4 1.3.2 release

  ==> Input File <==

--------------------------------------------------------------------------
#psi4
#
memory 32 gb

molecule  {
0 1
  O       -1.4890520    -1.1699510    -0.0104640
  O        1.7837190     1.3890130    -0.0214620
  N        0.7526660    -0.6498780    -0.0214550
  C       -0.5553190    -0.1742840    -0.0060060
  C       -1.1407710     1.0618160     0.0104930
  C        1.8652240     0.1617960    -0.0202730
  C       -2.5496710     0.8075520     0.0175600
  C       -2.7164660    -0.5449080     0.0047820
  C        3.1811850    -0.5832010     0.0301470
  H        0.8582920    -1.6573840    -0.0213170
  H       -0.6226040     2.0066250     0.0153600
  H       -3.3410559     1.5472213    -0.1195046
  H       -3.5700130    -1.2048780     0.0045220
  H        3.4438230    -0.7947010     1.0711420
  H        3.9529480     0.0571610    -0.3968850
  H        3.1464960    -1.5284770    -0.5179270
units angstrom
no_reorient  #important for SAPT in psi4, default
symmetry c1  #important for SAPT in psi4, default
}

set PROPERTIES_ORIGIN ["COM"]
properties('MP2/aug-cc-pvtz', properties = ['dipole'])
--------------------------------------------------------------------------

    Molecular point group: c1
  Charge       = 0
  Multiplicity = 1
  Basis Set: AUG-CC-PVTZ
    Blend: AUG-CC-PVTZ
  Basis Set: (AUG-CC-PVTZ AUX)
    Blend: AUG-CC-PVTZ-JKFIT

    Orbital Energies [Eh]
    ---------------------

    Doubly Occupied:

       1A    -20.629663     2A    -20.535024     3A    -15.619941
       4A    -11.371433     5A    -11.338710     6A    -11.285042
       7A    -11.250884     8A    -11.234820     9A    -11.220572
      10A     -1.466735    11A     -1.389934    12A     -1.256333
      13A     -1.083996    14A     -1.036731    15A     -0.977896
      16A     -0.850031    17A     -0.805621    18A     -0.771227
      19A     -0.741116    20A     -0.684773    21A     -0.659632
      22A     -0.649944    23A     -0.621598    24A     -0.602274
      25A     -0.575631    26A     -0.568947    27A     -0.564833
      28A     -0.548372    29A     -0.543690    30A     -0.455790
      31A     -0.439918    32A     -0.398218    33A     -0.293830

  @DF-RHF Final Energy:  -435.60295067926052

   => Energetics <=

    Nuclear Repulsion Energy =            427.7939474414521328
    One-Electron Energy =               -1441.8474711990670585
    Two-Electron Energy =                 578.4505730783544095
    Total Energy =                       -435.6029506792605162
  Basis Set: (AUG-CC-PVTZ AUX)
    Blend: AUG-CC-PVTZ-RI
    Molecular point group: c1

    Geometry (in Angstrom), charge = 0, multiplicity = 1:

       Center              X                  Y                   Z               Mass
    ------------   -----------------  -----------------  -----------------  -----------------
         O           -1.458352890598    -1.182442935804    -0.007785131668    15.994914619570
         O            1.814418109402     1.376521064196    -0.018783131668    15.994914619570
         N            0.783365109402    -0.662369935804    -0.018776131668    14.003074004430
         C           -0.524619890598    -0.186775935804    -0.003327131668    12.000000000000
         C           -1.110071890598     1.049324064196     0.013171868332    12.000000000000
         C            1.895923109402     0.149304064196    -0.017594131668    12.000000000000
         C           -2.518971890598     0.795060064196     0.020238868332    12.000000000000
         C           -2.685766890598    -0.557399935804     0.007460868332    12.000000000000
         C            3.211884109402    -0.595692935804     0.032825868332    12.000000000000
         H            0.888991109402    -1.669875935804    -0.018638131668     1.007825032230
         H           -0.591904890598     1.994133064196     0.018038868332     1.007825032230
         H           -3.310356790598     1.534729364196    -0.116825731668     1.007825032230
         H           -3.539313890598    -1.217369935804     0.007200868332     1.007825032230
         H            3.474522109402    -0.807192935804     1.073820868332     1.007825032230
         H            3.983647109402     0.044669064196    -0.394206131668     1.007825032230
         H            3.177195109402    -1.540968935804    -0.515248131668     1.007825032230

  Basis Set: AUG-CC-PVTZ
    Blend: AUG-CC-PVTZ
  Basis Set: (AUG-CC-PVTZ AUX)
    Blend: AUG-CC-PVTZ-JKFIT
	 Reference Energy          =    -435.6029506792605162 [Eh]
	 Singles Energy            =      -0.0000000000000000 [Eh]
	 Same-Spin Energy          =      -0.4469791303355924 [Eh]
	 Opposite-Spin Energy      =      -1.3692951103449635 [Eh]
	 Correlation Energy        =      -1.8162742406805559 [Eh]
	 Total Energy              =    -437.4192249199410867 [Eh]

	 ================> DF-SCS-MP2 Energies <==================
	-----------------------------------------------------------
	 SCS Same-Spin Scale       =       0.3333333333333333 [-]
	 SCS Opposite-Spin Scale   =       1.2000000000000000 [-]
	 SCS Same-Spin Energy      =      -0.1489930434451975 [Eh]
	 SCS Opposite-Spin Energy  =      -1.6431541324139562 [Eh]
	 SCS Correlation Energy    =      -1.7921471758591538 [Eh]
	 SCS Total Energy          =    -437.3950978551196727 [Eh]
	-----------------------------------------------------------

  Dipole Moment: [D]
     X:     0.1760      Y:    -2.9581      Z:    -0.0382     Total:     2.9636

*** Psi4 exiting successfully. Buy a developer a beer!
