                               Psi4 1.3.2 release

  ==> Input File <==

--------------------------------------------------------------------------
#psi4
#
memory 32 gb

molecule  {
0 1
  O       -1.4890520    -1.1699510    -0.0104640
  O        1.7837190     1.3890130    -0.0214620
  N        0.7526660    -0.6498780    -0.0214550
  C       -0.5553190    -0.1742840    -0.0060060
  C       -1.1407710     1.0618160     0.0104930
  C        1.8652240     0.1617960    -0.0202730
  C       -2.5496710     0.8075520     0.0175600
  C       -2.7164660    -0.5449080     0.0047820
  C        3.1811850    -0.5832010     0.0301470
  H        0.8582920    -1.6573840    -0.0213170
  H       -0.6233141     2.0075827    -0.0846329
  H       -3.3400310     1.5456830     0.0304840
  H       -3.5700130    -1.2048780     0.0045220
  H        3.4438230    -0.7947010     1.0711420
  H        3.9529480     0.0571610    -0.3968850
  H        3.1464960    -1.5284770    -0.5179270
units angstrom
no_reorient  #important for SAPT in psi4, default
symmetry c1  #important for SAPT in psi4, default
}

set PROPERTIES_ORIGIN ["COM"]
properties('MP2/aug-cc-pvtz', properties = ['dipole'])
--------------------------------------------------------------------------

    Molecular point group: c1
  Charge       = 0
  Multiplicity = 1
  Basis Set: AUG-CC-PVTZ
    Blend: AUG-CC-PVTZ
  Basis Set: (AUG-CC-PVTZ AUX)
    Blend: AUG-CC-PVTZ-JKFIT

    Orbital Energies [Eh]
    ---------------------

    Doubly Occupied:

       1A    -20.629495     2A    -20.535013     3A    -15.619985
       4A    -11.371423     5A    -11.338837     6A    -11.284589
       7A    -11.250873     8A    -11.233965     9A    -11.220859
      10A     -1.466592    11A     -1.389919    12A     -1.256350
      13A     -1.084013    14A     -1.036719    15A     -0.977842
      16A     -0.850210    17A     -0.805952    18A     -0.770778
      19A     -0.742015    20A     -0.684675    21A     -0.659578
      22A     -0.649762    23A     -0.621543    24A     -0.602425
      25A     -0.575822    26A     -0.569218    27A     -0.565289
      28A     -0.548162    29A     -0.543809    30A     -0.455770
      31A     -0.439870    32A     -0.398356    33A     -0.293750

  @DF-RHF Final Energy:  -435.60372580085379

   => Energetics <=

    Nuclear Repulsion Energy =            427.8129458038654320
    One-Electron Energy =               -1441.8864229302407693
    Two-Electron Energy =                 578.4697513255215426
    Total Energy =                       -435.6037258008537947
  Basis Set: (AUG-CC-PVTZ AUX)
    Blend: AUG-CC-PVTZ-RI
    Molecular point group: c1

    Geometry (in Angstrom), charge = 0, multiplicity = 1:

       Center              X                  Y                   Z               Mass
    ------------   -----------------  -----------------  -----------------  -----------------
         O           -1.458355427737    -1.182438256443    -0.008188073318    15.994914619570
         O            1.814415572263     1.376525743557    -0.019186073318    15.994914619570
         N            0.783362572263    -0.662365256443    -0.019179073318    14.003074004430
         C           -0.524622427737    -0.186771256443    -0.003730073318    12.000000000000
         C           -1.110074427737     1.049328743557     0.012768926682    12.000000000000
         C            1.895920572263     0.149308743557    -0.017997073318    12.000000000000
         C           -2.518974427737     0.795064743557     0.019835926682    12.000000000000
         C           -2.685769427737    -0.557395256443     0.007057926682    12.000000000000
         C            3.211881572263    -0.595688256443     0.032422926682    12.000000000000
         H            0.888988572263    -1.669871256443    -0.019041073318     1.007825032230
         H           -0.592617527737     1.995095443557    -0.082356973318     1.007825032230
         H           -3.309334427737     1.533195743557     0.032759926682     1.007825032230
         H           -3.539316427737    -1.217365256443     0.006797926682     1.007825032230
         H            3.474519572263    -0.807188256443     1.073417926682     1.007825032230
         H            3.983644572263     0.044673743557    -0.394609073318     1.007825032230
         H            3.177192572263    -1.540964256443    -0.515651073318     1.007825032230

  Basis Set: AUG-CC-PVTZ
    Blend: AUG-CC-PVTZ
  Basis Set: (AUG-CC-PVTZ AUX)
    Blend: AUG-CC-PVTZ-JKFIT
	 Reference Energy          =    -435.6037258008537947 [Eh]
	 Singles Energy            =      -0.0000000000000000 [Eh]
	 Same-Spin Energy          =      -0.4469380088391876 [Eh]
	 Opposite-Spin Energy      =      -1.3691905575745080 [Eh]
	 Correlation Energy        =      -1.8161285664136955 [Eh]
	 Total Energy              =    -437.4198543672674759 [Eh]

	 ================> DF-SCS-MP2 Energies <==================
	-----------------------------------------------------------
	 SCS Same-Spin Scale       =       0.3333333333333333 [-]
	 SCS Opposite-Spin Scale   =       1.2000000000000000 [-]
	 SCS Same-Spin Energy      =      -0.1489793362797292 [Eh]
	 SCS Opposite-Spin Energy  =      -1.6430286690894096 [Eh]
	 SCS Correlation Energy    =      -1.7920080053691387 [Eh]
	 SCS Total Energy          =    -437.3957338062229496 [Eh]
	-----------------------------------------------------------

  Dipole Moment: [D]
     X:     0.1635      Y:    -2.9504      Z:    -0.0050     Total:     2.9549

*** Psi4 exiting successfully. Buy a developer a beer!
