                               Psi4 1.3.2 release

  ==> Input File <==

--------------------------------------------------------------------------
#psi4
#
memory 32 gb

molecule  {
0 1
  O       -1.4890520    -1.1699510    -0.0104640
  O        1.7837190     1.3890130    -0.0214620
  N        0.7526660    -0.6498780    -0.0214550
  C       -0.5553190    -0.1742840    -0.0060060
  C       -1.1407710     1.0618160     0.0104930
  C        1.8652240     0.1617960    -0.0202730
  C       -2.5496710     0.8075520     0.0175600
  C       -2.7164660    -0.5449080     0.0047820
  C        3.1811850    -0.5832010     0.0301470
  H        0.8582920    -1.6573840    -0.0213170
  H       -0.6240241     2.0085404    -0.1846258
  H       -3.3400310     1.5456830     0.0304840
  H       -3.5700130    -1.2048780     0.0045220
  H        3.4438230    -0.7947010     1.0711420
  H        3.9529480     0.0571610    -0.3968850
  H        3.1464960    -1.5284770    -0.5179270
units angstrom
no_reorient  #important for SAPT in psi4, default
symmetry c1  #important for SAPT in psi4, default
}

set PROPERTIES_ORIGIN ["COM"]
properties('MP2/aug-cc-pvtz', properties = ['dipole'])
--------------------------------------------------------------------------

    Molecular point group: c1
  Charge       = 0
  Multiplicity = 1
  Basis Set: AUG-CC-PVTZ
    Blend: AUG-CC-PVTZ
  Basis Set: (AUG-CC-PVTZ AUX)
    Blend: AUG-CC-PVTZ-JKFIT

    Orbital Energies [Eh]
    ---------------------

    Doubly Occupied:

       1A    -20.629657     2A    -20.535040     3A    -15.620214
       4A    -11.371481     5A    -11.339339     6A    -11.284621
       7A    -11.250927     8A    -11.233907     9A    -11.221793
      10A     -1.466796    11A     -1.389949    12A     -1.256540
      13A     -1.083879    14A     -1.036801    15A     -0.977844
      16A     -0.850093    17A     -0.806050    18A     -0.769693
      19A     -0.741464    20A     -0.684602    21A     -0.659866
      22A     -0.649662    23A     -0.621639    24A     -0.602395
      25A     -0.574926    26A     -0.568901    27A     -0.563778
      28A     -0.547712    29A     -0.543877    30A     -0.455825
      31A     -0.439827    32A     -0.397933    33A     -0.293858

  @DF-RHF Final Energy:  -435.60190375294275

   => Energetics <=

    Nuclear Repulsion Energy =            427.7553181336779176
    One-Electron Energy =               -1441.7726681320825719
    Two-Electron Energy =                 578.4154462454619079
    Total Energy =                       -435.6019037529426896
  Basis Set: (AUG-CC-PVTZ AUX)
    Blend: AUG-CC-PVTZ-RI
    Molecular point group: c1

    Geometry (in Angstrom), charge = 0, multiplicity = 1:

       Center              X                  Y                   Z               Mass
    ------------   -----------------  -----------------  -----------------  -----------------
         O           -1.458349705473    -1.182445975052    -0.007382177928    15.994914619570
         O            1.814421294527     1.376518024948    -0.018380177928    15.994914619570
         N            0.783368294527    -0.662372975052    -0.018373177928    14.003074004430
         C           -0.524616705473    -0.186778975052    -0.002924177928    12.000000000000
         C           -1.110068705473     1.049321024948     0.013574822072    12.000000000000
         C            1.895926294527     0.149301024948    -0.017191177928    12.000000000000
         C           -2.518968705473     0.795057024948     0.020641822072    12.000000000000
         C           -2.685763705473    -0.557402975052     0.007863822072    12.000000000000
         C            3.211887294527    -0.595695975052     0.033228822072    12.000000000000
         H            0.888994294527    -1.669878975052    -0.018235177928     1.007825032230
         H           -0.593321805473     1.996045424948    -0.181543977928     1.007825032230
         H           -3.309328705473     1.533188024948     0.033565822072     1.007825032230
         H           -3.539310705473    -1.217372975052     0.007603822072     1.007825032230
         H            3.474525294527    -0.807195975052     1.074223822072     1.007825032230
         H            3.983650294527     0.044666024948    -0.393803177928     1.007825032230
         H            3.177198294527    -1.540971975052    -0.514845177928     1.007825032230

  Basis Set: AUG-CC-PVTZ
    Blend: AUG-CC-PVTZ
  Basis Set: (AUG-CC-PVTZ AUX)
    Blend: AUG-CC-PVTZ-JKFIT
	 Reference Energy          =    -435.6019037529427465 [Eh]
	 Singles Energy            =      -0.0000000000000000 [Eh]
	 Same-Spin Energy          =      -0.4470300565756971 [Eh]
	 Opposite-Spin Energy      =      -1.3693935844113874 [Eh]
	 Correlation Energy        =      -1.8164236409870844 [Eh]
	 Total Energy              =    -437.4183273939298147 [Eh]

	 ================> DF-SCS-MP2 Energies <==================
	-----------------------------------------------------------
	 SCS Same-Spin Scale       =       0.3333333333333333 [-]
	 SCS Opposite-Spin Scale   =       1.2000000000000000 [-]
	 SCS Same-Spin Energy      =      -0.1490100188585657 [Eh]
	 SCS Opposite-Spin Energy  =      -1.6432723012936647 [Eh]
	 SCS Correlation Energy    =      -1.7922823201522304 [Eh]
	 SCS Total Energy          =    -437.3941860730949998 [Eh]
	-----------------------------------------------------------

  Dipole Moment: [D]
     X:     0.1636      Y:    -2.9664      Z:    -0.0873     Total:     2.9722

*** Psi4 exiting successfully. Buy a developer a beer!
