                               Psi4 1.3.2 release

  ==> Input File <==

--------------------------------------------------------------------------
#psi4
#
memory 32 gb

molecule  {
0 1
  O       -1.4890520    -1.1699510    -0.0104640
  O        1.7837190     1.3890130    -0.0214620
  N        0.7526660    -0.6498780    -0.0214550
  C       -0.5553190    -0.1742840    -0.0060060
  C       -1.1407710     1.0618160     0.0104930
  C        1.8652240     0.1617960    -0.0202730
  C       -2.5496710     0.8075520     0.0175600
  C       -2.7164660    -0.5449080     0.0047820
  C        3.1757997    -0.5804768     0.2800741
  H        0.8582920    -1.6573840    -0.0213170
  H       -0.6226040     2.0066250     0.0153600
  H       -3.3400310     1.5456830     0.0304840
  H       -3.5700130    -1.2048780     0.0045220
  H        3.4438230    -0.7947010     1.0711420
  H        3.9529480     0.0571610    -0.3968850
  H        3.1464960    -1.5284770    -0.5179270
units angstrom
no_reorient  #important for SAPT in psi4, default
symmetry c1  #important for SAPT in psi4, default
}

set PROPERTIES_ORIGIN ["COM"]
properties('MP2/aug-cc-pvtz', properties = ['dipole'])
--------------------------------------------------------------------------

    Molecular point group: c1
  Charge       = 0
  Multiplicity = 1
  Basis Set: AUG-CC-PVTZ
    Blend: AUG-CC-PVTZ
  Basis Set: (AUG-CC-PVTZ AUX)
    Blend: AUG-CC-PVTZ-JKFIT

    Orbital Energies [Eh]
    ---------------------

    Doubly Occupied:

       1A    -20.630211     2A    -20.538847     3A    -15.621301
       4A    -11.376749     5A    -11.339362     6A    -11.285514
       7A    -11.257452     8A    -11.234765     9A    -11.221705
      10A     -1.467306    11A     -1.392310    12A     -1.257426
      13A     -1.084947    14A     -1.038751    15A     -0.982286
      16A     -0.855099    17A     -0.810362    18A     -0.772800
      19A     -0.744391    20A     -0.711489    21A     -0.660687
      22A     -0.648015    23A     -0.640578    24A     -0.604291
      25A     -0.575805    26A     -0.566556    27A     -0.550674
      28A     -0.547979    29A     -0.509754    30A     -0.457801
      31A     -0.438723    32A     -0.399292    33A     -0.294523

  @DF-RHF Final Energy:  -435.51834275399136

   => Energetics <=

    Nuclear Repulsion Energy =            427.6667222403877986
    One-Electron Energy =               -1441.3346321615656507
    Two-Electron Energy =                 578.1495671671864329
    Total Energy =                       -435.5183427539914192
  Basis Set: (AUG-CC-PVTZ AUX)
    Blend: AUG-CC-PVTZ-RI
    Molecular point group: c1

    Geometry (in Angstrom), charge = 0, multiplicity = 1:

       Center              X                  Y                   Z               Mass
    ------------   -----------------  -----------------  -----------------  -----------------
         O           -1.457844359125    -1.182691961321    -0.032977822201    15.994914619570
         O            1.814926640875     1.376272038679    -0.043975822201    15.994914619570
         N            0.783873640875    -0.662618961321    -0.043968822201    14.003074004430
         C           -0.524111359125    -0.187024961321    -0.028519822201    12.000000000000
         C           -1.109563359125     1.049075038679    -0.012020822201    12.000000000000
         C            1.896431640875     0.149055038679    -0.042786822201    12.000000000000
         C           -2.518463359125     0.794811038679    -0.004953822201    12.000000000000
         C           -2.685258359125    -0.557648961321    -0.017731822201    12.000000000000
         C            3.207007340875    -0.593217761321     0.257560277799    12.000000000000
         H            0.889499640875    -1.670124961321    -0.043830822201     1.007825032230
         H           -0.591396359125     1.993884038679    -0.007153822201     1.007825032230
         H           -3.308823359125     1.532942038679     0.007970177799     1.007825032230
         H           -3.538805359125    -1.217618961321    -0.017991822201     1.007825032230
         H            3.475030640875    -0.807441961321     1.048628177799     1.007825032230
         H            3.984155640875     0.044420038679    -0.419398822201     1.007825032230
         H            3.177703640875    -1.541217961321    -0.540440822201     1.007825032230

  Basis Set: AUG-CC-PVTZ
    Blend: AUG-CC-PVTZ
  Basis Set: (AUG-CC-PVTZ AUX)
    Blend: AUG-CC-PVTZ-JKFIT
	 Reference Energy          =    -435.5183427539913623 [Eh]
	 Singles Energy            =      -0.0000000000000000 [Eh]
	 Same-Spin Energy          =      -0.4479608134842888 [Eh]
	 Opposite-Spin Energy      =      -1.3729208885550861 [Eh]
	 Correlation Energy        =      -1.8208817020393750 [Eh]
	 Total Energy              =    -437.3392244560307631 [Eh]

	 ================> DF-SCS-MP2 Energies <==================
	-----------------------------------------------------------
	 SCS Same-Spin Scale       =       0.3333333333333333 [-]
	 SCS Opposite-Spin Scale   =       1.2000000000000000 [-]
	 SCS Same-Spin Energy      =      -0.1493202711614296 [Eh]
	 SCS Opposite-Spin Energy  =      -1.6475050662661033 [Eh]
	 SCS Correlation Energy    =      -1.7968253374275329 [Eh]
	 SCS Total Energy          =    -437.3151680914189114 [Eh]
	-----------------------------------------------------------

  Dipole Moment: [D]
     X:    -0.0318      Y:    -2.8057      Z:     0.1014     Total:     2.8077

*** Psi4 exiting successfully. Buy a developer a beer!
