                               Psi4 1.3.2 release

  ==> Input File <==

--------------------------------------------------------------------------
#psi4
#
memory 32 gb

molecule  {
0 1
  O       -1.4890520    -1.1699510    -0.0104640
  O        1.7837190     1.3890130    -0.0214620
  N        0.7526660    -0.6498780    -0.0214550
  C       -0.5553190    -0.1742840    -0.0060060
  C       -1.1407710     1.0618160     0.0104930
  C        1.8652240     0.1617960    -0.0202730
  C       -2.5496710     0.8075520     0.0175600
  C       -2.7164660    -0.5449080     0.0047820
  C        3.1790309    -0.5821113     0.1301179
  H        0.8582920    -1.6573840    -0.0213170
  H       -0.6226040     2.0066250     0.0153600
  H       -3.3400310     1.5456830     0.0304840
  H       -3.5700130    -1.2048780     0.0045220
  H        3.4438230    -0.7947010     1.0711420
  H        3.9529480     0.0571610    -0.3968850
  H        3.1464960    -1.5284770    -0.5179270
units angstrom
no_reorient  #important for SAPT in psi4, default
symmetry c1  #important for SAPT in psi4, default
}

set PROPERTIES_ORIGIN ["COM"]
properties('MP2/aug-cc-pvtz', properties = ['dipole'])
--------------------------------------------------------------------------

    Molecular point group: c1
  Charge       = 0
  Multiplicity = 1
  Basis Set: AUG-CC-PVTZ
    Blend: AUG-CC-PVTZ
  Basis Set: (AUG-CC-PVTZ AUX)
    Blend: AUG-CC-PVTZ-JKFIT

    Orbital Energies [Eh]
    ---------------------

    Doubly Occupied:

       1A    -20.629617     2A    -20.536044     3A    -15.620212
       4A    -11.372094     5A    -11.338752     6A    -11.284836
       7A    -11.251426     8A    -11.234187     9A    -11.220866
      10A     -1.466702    11A     -1.390480    12A     -1.256493
      13A     -1.084287    14A     -1.036702    15A     -0.978420
      16A     -0.850829    17A     -0.806551    18A     -0.771373
      19A     -0.742519    20A     -0.687750    21A     -0.660916
      22A     -0.648419    23A     -0.633354    24A     -0.603036
      25A     -0.574469    26A     -0.565931    27A     -0.552668
      28A     -0.549070    29A     -0.545305    30A     -0.456311
      31A     -0.439780    32A     -0.398700    33A     -0.293941

  @DF-RHF Final Energy:  -435.59236952171739

   => Energetics <=

    Nuclear Repulsion Energy =            427.8044340498771589
    One-Electron Energy =               -1441.8295290368178030
    Two-Electron Energy =                 578.4327254652232568
    Total Energy =                       -435.5923695217173872
  Basis Set: (AUG-CC-PVTZ AUX)
    Blend: AUG-CC-PVTZ-RI
    Molecular point group: c1

    Geometry (in Angstrom), charge = 0, multiplicity = 1:

       Center              X                  Y                   Z               Mass
    ------------   -----------------  -----------------  -----------------  -----------------
         O           -1.458154436053    -1.182535109149    -0.018587515864    15.994914619570
         O            1.814616563947     1.376428890851    -0.029585515864    15.994914619570
         N            0.783563563947    -0.662462109149    -0.029578515864    14.003074004430
         C           -0.524421436053    -0.186868109149    -0.014129515864    12.000000000000
         C           -1.109873436053     1.049231890851     0.002369484136    12.000000000000
         C            1.896121563947     0.149211890851    -0.028396515864    12.000000000000
         C           -2.518773436053     0.794967890851     0.009436484136    12.000000000000
         C           -2.685568436053    -0.557492109149    -0.003341515864    12.000000000000
         C            3.209928463947    -0.594695409149     0.121994384136    12.000000000000
         H            0.889189563947    -1.669968109149    -0.029440515864     1.007825032230
         H           -0.591706436053     1.994040890851     0.007236484136     1.007825032230
         H           -3.309133436053     1.533098890851     0.022360484136     1.007825032230
         H           -3.539115436053    -1.217462109149    -0.003601515864     1.007825032230
         H            3.474720563947    -0.807285109149     1.063018484136     1.007825032230
         H            3.983845563947     0.044576890851    -0.405008515864     1.007825032230
         H            3.177393563947    -1.541061109149    -0.526050515864     1.007825032230

  Basis Set: AUG-CC-PVTZ
    Blend: AUG-CC-PVTZ
  Basis Set: (AUG-CC-PVTZ AUX)
    Blend: AUG-CC-PVTZ-JKFIT
	 Reference Energy          =    -435.5923695217173872 [Eh]
	 Singles Energy            =      -0.0000000000000000 [Eh]
	 Same-Spin Energy          =      -0.4470952729718515 [Eh]
	 Opposite-Spin Energy      =      -1.3698280476757669 [Eh]
	 Correlation Energy        =      -1.8169233206476183 [Eh]
	 Total Energy              =    -437.4092928423650051 [Eh]

	 ================> DF-SCS-MP2 Energies <==================
	-----------------------------------------------------------
	 SCS Same-Spin Scale       =       0.3333333333333333 [-]
	 SCS Opposite-Spin Scale   =       1.2000000000000000 [-]
	 SCS Same-Spin Energy      =      -0.1490317576572838 [Eh]
	 SCS Opposite-Spin Energy  =      -1.6437936572109202 [Eh]
	 SCS Correlation Energy    =      -1.7928254148682039 [Eh]
	 SCS Total Energy          =    -437.3851949365856058 [Eh]
	-----------------------------------------------------------

  Dipole Moment: [D]
     X:     0.1084      Y:    -2.9043      Z:     0.0980     Total:     2.9080

*** Psi4 exiting successfully. Buy a developer a beer!
