                               Psi4 1.3.2 release

  ==> Input File <==

--------------------------------------------------------------------------
#psi4
#
memory 32 gb

molecule  {
0 1
  O       -1.4890520    -1.1699510    -0.0104640
  O        1.7837190     1.3890130    -0.0214620
  N        0.7526660    -0.6498780    -0.0214550
  C       -0.5553190    -0.1742840    -0.0060060
  C       -1.1407710     1.0618160     0.0104930
  C        1.8652240     0.1617960    -0.0202730
  C       -2.5496710     0.8075520     0.0175600
  C       -2.7164660    -0.5449080     0.0047820
  C        3.1811850    -0.5832010     0.0301470
  H        0.8582920    -1.6573840    -0.0213170
  H       -0.6226040     2.0066250     0.0153600
  H       -3.3400310     1.5456830     0.0304840
  H       -3.5681699    -1.2074320     0.2545022
  H        3.4438230    -0.7947010     1.0711420
  H        3.9529480     0.0571610    -0.3968850
  H        3.1464960    -1.5284770    -0.5179270
units angstrom
no_reorient  #important for SAPT in psi4, default
symmetry c1  #important for SAPT in psi4, default
}

set PROPERTIES_ORIGIN ["COM"]
properties('MP2/aug-cc-pvtz', properties = ['dipole'])
--------------------------------------------------------------------------

    Molecular point group: c1
  Charge       = 0
  Multiplicity = 1
  Basis Set: AUG-CC-PVTZ
    Blend: AUG-CC-PVTZ
  Basis Set: (AUG-CC-PVTZ AUX)
    Blend: AUG-CC-PVTZ-JKFIT

    Orbital Energies [Eh]
    ---------------------

    Doubly Occupied:

       1A    -20.629227     2A    -20.535429     3A    -15.620414
       4A    -11.371837     5A    -11.339637     6A    -11.286147
       7A    -11.251160     8A    -11.234915     9A    -11.221046
      10A     -1.466537    11A     -1.390331    12A     -1.256753
      13A     -1.084603    14A     -1.036793    15A     -0.977019
      16A     -0.850615    17A     -0.803476    18A     -0.771353
      19A     -0.742450    20A     -0.683871    21A     -0.660874
      22A     -0.644997    23A     -0.621511    24A     -0.602240
      25A     -0.576603    26A     -0.569305    27A     -0.565904
      28A     -0.548035    29A     -0.541570    30A     -0.456005
      31A     -0.440301    32A     -0.398673    33A     -0.294114

  @DF-RHF Final Energy:  -435.60089268614496

   => Energetics <=

    Nuclear Repulsion Energy =            427.7237208788970406
    One-Electron Energy =               -1441.7017315894465810
    Two-Electron Energy =                 578.3771180244045809
    Total Energy =                       -435.6008926861450163
  Basis Set: (AUG-CC-PVTZ AUX)
    Blend: AUG-CC-PVTZ-RI
    Molecular point group: c1

    Geometry (in Angstrom), charge = 0, multiplicity = 1:

       Center              X                  Y                   Z               Mass
    ------------   -----------------  -----------------  -----------------  -----------------
         O           -1.458376005319    -1.182409953806    -0.011008690663    15.994914619570
         O            1.814394994681     1.376554046194    -0.022006690663    15.994914619570
         N            0.783341994681    -0.662336953806    -0.021999690663    14.003074004430
         C           -0.524643005319    -0.186742953806    -0.006550690663    12.000000000000
         C           -1.110095005319     1.049357046194     0.009948309337    12.000000000000
         C            1.895899994681     0.149337046194    -0.020817690663    12.000000000000
         C           -2.518995005319     0.795093046194     0.017015309337    12.000000000000
         C           -2.685790005319    -0.557366953806     0.004237309337    12.000000000000
         C            3.211860994681    -0.595659953806     0.029602309337    12.000000000000
         H            0.888967994681    -1.669842953806    -0.021861690663     1.007825032230
         H           -0.591928005319     1.994166046194     0.014815309337     1.007825032230
         H           -3.309355005319     1.533224046194     0.029939309337     1.007825032230
         H           -3.537493905319    -1.219890953806     0.253957509337     1.007825032230
         H            3.474498994681    -0.807159953806     1.070597309337     1.007825032230
         H            3.983623994681     0.044702046194    -0.397429690663     1.007825032230
         H            3.177171994681    -1.540935953806    -0.518471690663     1.007825032230

  Basis Set: AUG-CC-PVTZ
    Blend: AUG-CC-PVTZ
  Basis Set: (AUG-CC-PVTZ AUX)
    Blend: AUG-CC-PVTZ-JKFIT
	 Reference Energy          =    -435.6008926861449595 [Eh]
	 Singles Energy            =      -0.0000000000000000 [Eh]
	 Same-Spin Energy          =      -0.4471197246146752 [Eh]
	 Opposite-Spin Energy      =      -1.3696263653224086 [Eh]
	 Correlation Energy        =      -1.8167460899370838 [Eh]
	 Total Energy              =    -437.4176387760820717 [Eh]

	 ================> DF-SCS-MP2 Energies <==================
	-----------------------------------------------------------
	 SCS Same-Spin Scale       =       0.3333333333333333 [-]
	 SCS Opposite-Spin Scale   =       1.2000000000000000 [-]
	 SCS Same-Spin Energy      =      -0.1490399082048917 [Eh]
	 SCS Opposite-Spin Energy  =      -1.6435516383868902 [Eh]
	 SCS Correlation Energy    =      -1.7925915465917819 [Eh]
	 SCS Total Energy          =    -437.3934842327367392 [Eh]
	-----------------------------------------------------------

  Dipole Moment: [D]
     X:     0.2269      Y:    -2.9074      Z:     0.3010     Total:     2.9318

*** Psi4 exiting successfully. Buy a developer a beer!
