                               Psi4 1.3.2 release

  ==> Input File <==

--------------------------------------------------------------------------
#psi4
#
memory 32 gb

molecule  {
0 1
  O       -1.4890520    -1.1699510    -0.0104640
  O        1.7837190     1.3890130    -0.0214620
  N        0.7526660    -0.6498780    -0.0214550
  C       -0.5553190    -0.1742840    -0.0060060
  C       -1.1407710     1.0618160     0.0104930
  C        1.8652240     0.1617960    -0.0202730
  C       -2.5496710     0.8075520     0.0175600
  C       -2.7164660    -0.5449080     0.0047820
  C        3.1811850    -0.5832010     0.0301470
  H        0.8582920    -1.6573840    -0.0213170
  H       -0.6226040     2.0066250     0.0153600
  H       -3.3407143     1.5467085    -0.0695084
  H       -3.5700130    -1.2048780     0.0045220
  H        3.4438230    -0.7947010     1.0711420
  H        3.9529480     0.0571610    -0.3968850
  H        3.1464960    -1.5284770    -0.5179270
units angstrom
no_reorient  #important for SAPT in psi4, default
symmetry c1  #important for SAPT in psi4, default
}

set PROPERTIES_ORIGIN ["COM"]
properties('MP2/aug-cc-pvtz', properties = ['dipole'])
--------------------------------------------------------------------------

    Molecular point group: c1
  Charge       = 0
  Multiplicity = 1
  Basis Set: AUG-CC-PVTZ
    Blend: AUG-CC-PVTZ
  Basis Set: (AUG-CC-PVTZ AUX)
    Blend: AUG-CC-PVTZ-JKFIT

    Orbital Energies [Eh]
    ---------------------

    Doubly Occupied:

       1A    -20.629539     2A    -20.535009     3A    -15.619921
       4A    -11.371416     5A    -11.338683     6A    -11.284787
       7A    -11.250870     8A    -11.234359     9A    -11.220557
      10A     -1.466617    11A     -1.389917    12A     -1.256306
      13A     -1.084032    14A     -1.036709    15A     -0.977866
      16A     -0.850152    17A     -0.805783    18A     -0.771196
      19A     -0.741712    20A     -0.684736    21A     -0.659539
      22A     -0.649867    23A     -0.621542    24A     -0.602358
      25A     -0.575946    26A     -0.569156    27A     -0.565353
      28A     -0.548353    29A     -0.543718    30A     -0.455767
      31A     -0.439903    32A     -0.398371    33A     -0.293764

  @DF-RHF Final Energy:  -435.60370761935565

   => Energetics <=

    Nuclear Repulsion Energy =            427.8152581803636849
    One-Electron Energy =               -1441.8903202373021486
    Two-Electron Energy =                 578.4713544375828178
    Total Energy =                       -435.6037076193556459
  Basis Set: (AUG-CC-PVTZ AUX)
    Blend: AUG-CC-PVTZ-RI
    Molecular point group: c1

    Geometry (in Angstrom), charge = 0, multiplicity = 1:

       Center              X                  Y                   Z               Mass
    ------------   -----------------  -----------------  -----------------  -----------------
         O           -1.458355643732    -1.182438802879    -0.008188077348    15.994914619570
         O            1.814415356268     1.376525197121    -0.019186077348    15.994914619570
         N            0.783362356268    -0.662365802879    -0.019179077348    14.003074004430
         C           -0.524622643732    -0.186771802879    -0.003730077348    12.000000000000
         C           -1.110074643732     1.049328197121     0.012768922652    12.000000000000
         C            1.895920356268     0.149308197121    -0.017997077348    12.000000000000
         C           -2.518974643732     0.795064197121     0.019835922652    12.000000000000
         C           -2.685769643732    -0.557395802879     0.007057922652    12.000000000000
         C            3.211881356268    -0.595688802879     0.032422922652    12.000000000000
         H            0.888988356268    -1.669871802879    -0.019041077348     1.007825032230
         H           -0.591907643732     1.994137197121     0.017635922652     1.007825032230
         H           -3.310017943732     1.534220697121    -0.067232477348     1.007825032230
         H           -3.539316643732    -1.217365802879     0.006797922652     1.007825032230
         H            3.474519356268    -0.807188802879     1.073417922652     1.007825032230
         H            3.983644356268     0.044673197121    -0.394609077348     1.007825032230
         H            3.177192356268    -1.540964802879    -0.515651077348     1.007825032230

  Basis Set: AUG-CC-PVTZ
    Blend: AUG-CC-PVTZ
  Basis Set: (AUG-CC-PVTZ AUX)
    Blend: AUG-CC-PVTZ-JKFIT
	 Reference Energy          =    -435.6037076193556459 [Eh]
	 Singles Energy            =      -0.0000000000000000 [Eh]
	 Same-Spin Energy          =      -0.4469391132328825 [Eh]
	 Opposite-Spin Energy      =      -1.3692014858049693 [Eh]
	 Correlation Energy        =      -1.8161405990378519 [Eh]
	 Total Energy              =    -437.4198482183934971 [Eh]

	 ================> DF-SCS-MP2 Energies <==================
	-----------------------------------------------------------
	 SCS Same-Spin Scale       =       0.3333333333333333 [-]
	 SCS Opposite-Spin Scale   =       1.2000000000000000 [-]
	 SCS Same-Spin Energy      =      -0.1489797044109608 [Eh]
	 SCS Opposite-Spin Energy  =      -1.6430417829659631 [Eh]
	 SCS Correlation Energy    =      -1.7920214873769240 [Eh]
	 SCS Total Energy          =    -437.3957291067325741 [Eh]
	-----------------------------------------------------------

  Dipole Moment: [D]
     X:     0.1691      Y:    -2.9508      Z:     0.0004     Total:     2.9556

*** Psi4 exiting successfully. Buy a developer a beer!
