                               Psi4 1.3.2 release

  ==> Input File <==

--------------------------------------------------------------------------
#psi4
#
memory 32 gb

molecule  {
0 1
  O       -1.4890520    -1.1699510    -0.0104640
  O        1.7837190     1.3890130    -0.0214620
  N        0.7526660    -0.6498780    -0.0214550
  C       -0.5553190    -0.1742840    -0.0060060
  C       -1.1407710     1.0618160     0.0104930
  C        1.8652240     0.1617960    -0.0202730
  C       -2.5496710     0.8075520     0.0175600
  C       -2.7164660    -0.5449080     0.0047820
  C        3.1747226    -0.5799320     0.3300596
  H        0.8582920    -1.6573840    -0.0213170
  H       -0.6226040     2.0066250     0.0153600
  H       -3.3400310     1.5456830     0.0304840
  H       -3.5700130    -1.2048780     0.0045220
  H        3.4438230    -0.7947010     1.0711420
  H        3.9529480     0.0571610    -0.3968850
  H        3.1464960    -1.5284770    -0.5179270
units angstrom
no_reorient  #important for SAPT in psi4, default
symmetry c1  #important for SAPT in psi4, default
}

set PROPERTIES_ORIGIN ["COM"]
properties('MP2/aug-cc-pvtz', properties = ['dipole'])
--------------------------------------------------------------------------

    Molecular point group: c1
  Charge       = 0
  Multiplicity = 1
  Basis Set: AUG-CC-PVTZ
    Blend: AUG-CC-PVTZ
  Basis Set: (AUG-CC-PVTZ AUX)
    Blend: AUG-CC-PVTZ-JKFIT

    Orbital Energies [Eh]
    ---------------------

    Doubly Occupied:

       1A    -20.630515     2A    -20.540175     3A    -15.621873
       4A    -11.379348     5A    -11.339718     6A    -11.285836
       7A    -11.261087     8A    -11.235049     9A    -11.222103
      10A     -1.467616    11A     -1.393226    12A     -1.257938
      13A     -1.085272    14A     -1.040524    15A     -0.984663
      16A     -0.857883    17A     -0.812532    18A     -0.773665
      19A     -0.745755    20A     -0.719990    21A     -0.660445
      22A     -0.648232    23A     -0.640679    24A     -0.604628
      25A     -0.576337    26A     -0.566868    27A     -0.550280
      28A     -0.545526    29A     -0.498298    30A     -0.458531
      31A     -0.438021    32A     -0.399583    33A     -0.294801

  @DF-RHF Final Energy:  -435.47313587594101

   => Energetics <=

    Nuclear Repulsion Energy =            427.6085926208096453
    One-Electron Energy =               -1441.0894688630003202
    Two-Electron Energy =                 578.0077403662496636
    Total Energy =                       -435.4731358759410114
  Basis Set: (AUG-CC-PVTZ AUX)
    Blend: AUG-CC-PVTZ-RI
    Molecular point group: c1

    Geometry (in Angstrom), charge = 0, multiplicity = 1:

       Center              X                  Y                   Z               Mass
    ------------   -----------------  -----------------  -----------------  -----------------
         O           -1.457740996950    -1.182744242180    -0.037774600577    15.994914619570
         O            1.815030003050     1.376219757820    -0.048772600577    15.994914619570
         N            0.783977003050    -0.662671242180    -0.048765600577    14.003074004430
         C           -0.524007996950    -0.187077242180    -0.033316600577    12.000000000000
         C           -1.109459996950     1.049022757820    -0.016817600577    12.000000000000
         C            1.896535003050     0.149002757820    -0.047583600577    12.000000000000
         C           -2.518359996950     0.794758757820    -0.009750600577    12.000000000000
         C           -2.685154996950    -0.557701242180    -0.022528600577    12.000000000000
         C            3.206033603050    -0.592725242180     0.302748999423    12.000000000000
         H            0.889603003050    -1.670177242180    -0.048627600577     1.007825032230
         H           -0.591292996950     1.993831757820    -0.011950600577     1.007825032230
         H           -3.308719996950     1.532889757820     0.003173399423     1.007825032230
         H           -3.538701996950    -1.217671242180    -0.022788600577     1.007825032230
         H            3.475134003050    -0.807494242180     1.043831399423     1.007825032230
         H            3.984259003050     0.044367757820    -0.424195600577     1.007825032230
         H            3.177807003050    -1.541270242180    -0.545237600577     1.007825032230

  Basis Set: AUG-CC-PVTZ
    Blend: AUG-CC-PVTZ
  Basis Set: (AUG-CC-PVTZ AUX)
    Blend: AUG-CC-PVTZ-JKFIT
	 Reference Energy          =    -435.4731358759410114 [Eh]
	 Singles Energy            =      -0.0000000000000000 [Eh]
	 Same-Spin Energy          =      -0.4484250690712740 [Eh]
	 Opposite-Spin Energy      =      -1.3745694430425792 [Eh]
	 Correlation Energy        =      -1.8229945121138531 [Eh]
	 Total Energy              =    -437.2961303880548485 [Eh]

	 ================> DF-SCS-MP2 Energies <==================
	-----------------------------------------------------------
	 SCS Same-Spin Scale       =       0.3333333333333333 [-]
	 SCS Opposite-Spin Scale   =       1.2000000000000000 [-]
	 SCS Same-Spin Energy      =      -0.1494750230237580 [Eh]
	 SCS Opposite-Spin Energy  =      -1.6494833316510951 [Eh]
	 SCS Correlation Energy    =      -1.7989583546748531 [Eh]
	 SCS Total Energy          =    -437.2720942306158918 [Eh]
	-----------------------------------------------------------

  Dipole Moment: [D]
     X:    -0.0971      Y:    -2.7626      Z:     0.0950     Total:     2.7659

*** Psi4 exiting successfully. Buy a developer a beer!
