                               Psi4 1.3.2 release

  ==> Input File <==

--------------------------------------------------------------------------
#psi4
#
memory 32 gb

molecule  {
0 1
  O       -1.4890520    -1.1699510    -0.0104640
  O        1.7837190     1.3890130    -0.0214620
  N        0.7526660    -0.6498780    -0.0214550
  C       -0.5553190    -0.1742840    -0.0060060
  C       -1.1407710     1.0618160     0.0104930
  C        1.8652240     0.1617960    -0.0202730
  C       -2.5496710     0.8075520     0.0175600
  C       -2.7164660    -0.5449080     0.0047820
  C        3.1811850    -0.5832010     0.0301470
  H        0.8582920    -1.6573840    -0.0213170
  H       -0.6247342     2.0094981    -0.2846187
  H       -3.3400310     1.5456830     0.0304840
  H       -3.5700130    -1.2048780     0.0045220
  H        3.4438230    -0.7947010     1.0711420
  H        3.9529480     0.0571610    -0.3968850
  H        3.1464960    -1.5284770    -0.5179270
units angstrom
no_reorient  #important for SAPT in psi4, default
symmetry c1  #important for SAPT in psi4, default
}

set PROPERTIES_ORIGIN ["COM"]
properties('MP2/aug-cc-pvtz', properties = ['dipole'])
--------------------------------------------------------------------------

    Molecular point group: c1
  Charge       = 0
  Multiplicity = 1
  Basis Set: AUG-CC-PVTZ
    Blend: AUG-CC-PVTZ
  Basis Set: (AUG-CC-PVTZ AUX)
    Blend: AUG-CC-PVTZ-JKFIT

    Orbital Energies [Eh]
    ---------------------

    Doubly Occupied:

       1A    -20.629928     2A    -20.535076     3A    -15.620581
       4A    -11.371572     5A    -11.340159     6A    -11.284684
       7A    -11.251016     8A    -11.233839     9A    -11.223320
      10A     -1.467134    11A     -1.389992    12A     -1.256844
      13A     -1.083681    14A     -1.036937    15A     -0.977864
      16A     -0.849945    17A     -0.806217    18A     -0.768151
      19A     -0.740533    20A     -0.684492    21A     -0.660288
      22A     -0.649544    23A     -0.621783    24A     -0.602364
      25A     -0.574143    26A     -0.568665    27A     -0.560724
      28A     -0.546678    29A     -0.543909    30A     -0.455910
      31A     -0.439758    32A     -0.397254    33A     -0.294038

  @DF-RHF Final Energy:  -435.59850742822687

   => Energetics <=

    Nuclear Repulsion Energy =            427.6625912488603376
    One-Electron Energy =               -1441.5881502378242658
    Two-Electron Energy =                 578.3270515607371181
    Total Energy =                       -435.5985074282268670
  Basis Set: (AUG-CC-PVTZ AUX)
    Blend: AUG-CC-PVTZ-RI
    Molecular point group: c1

    Geometry (in Angstrom), charge = 0, multiplicity = 1:

       Center              X                  Y                   Z               Mass
    ------------   -----------------  -----------------  -----------------  -----------------
         O           -1.458343982404    -1.182453693660    -0.006576282537    15.994914619570
         O            1.814427017596     1.376510306340    -0.017574282537    15.994914619570
         N            0.783374017596    -0.662380693660    -0.017567282537    14.003074004430
         C           -0.524610982404    -0.186786693660    -0.002118282537    12.000000000000
         C           -1.110062982404     1.049313306340     0.014380717463    12.000000000000
         C            1.895932017596     0.149293306340    -0.016385282537    12.000000000000
         C           -2.518962982404     0.795049306340     0.021447717463    12.000000000000
         C           -2.685757982404    -0.557410693660     0.008669717463    12.000000000000
         C            3.211893017596    -0.595703693660     0.034034717463    12.000000000000
         H            0.889000017596    -1.669886693660    -0.017429282537     1.007825032230
         H           -0.594026182404     1.996995406340    -0.280730982537     1.007825032230
         H           -3.309322982404     1.533180306340     0.034371717463     1.007825032230
         H           -3.539304982404    -1.217380693660     0.008409717463     1.007825032230
         H            3.474531017596    -0.807203693660     1.075029717463     1.007825032230
         H            3.983656017596     0.044658306340    -0.392997282537     1.007825032230
         H            3.177204017596    -1.540979693660    -0.514039282537     1.007825032230

  Basis Set: AUG-CC-PVTZ
    Blend: AUG-CC-PVTZ
  Basis Set: (AUG-CC-PVTZ AUX)
    Blend: AUG-CC-PVTZ-JKFIT
	 Reference Energy          =    -435.5985074282268670 [Eh]
	 Singles Energy            =      -0.0000000000000000 [Eh]
	 Same-Spin Energy          =      -0.4471788215987174 [Eh]
	 Opposite-Spin Energy      =      -1.3697676463124917 [Eh]
	 Correlation Energy        =      -1.8169464679112091 [Eh]
	 Total Energy              =    -437.4154538961381036 [Eh]

	 ================> DF-SCS-MP2 Energies <==================
	-----------------------------------------------------------
	 SCS Same-Spin Scale       =       0.3333333333333333 [-]
	 SCS Opposite-Spin Scale   =       1.2000000000000000 [-]
	 SCS Same-Spin Energy      =      -0.1490596071995725 [Eh]
	 SCS Opposite-Spin Energy  =      -1.6437211755749901 [Eh]
	 SCS Correlation Energy    =      -1.7927807827745625 [Eh]
	 SCS Total Energy          =    -437.3912882110014380 [Eh]
	-----------------------------------------------------------

  Dipole Moment: [D]
     X:     0.1637      Y:    -2.9927      Z:    -0.1680     Total:     3.0018

*** Psi4 exiting successfully. Buy a developer a beer!
