                               Psi4 1.3.2 release

  ==> Input File <==

--------------------------------------------------------------------------
#psi4
#
memory 32 gb

molecule  {
0 1
  O       -1.4890520    -1.1699510    -0.0104640
  O        1.7837190     1.3890130    -0.0214620
  N        0.7526660    -0.6498780    -0.0214550
  C       -0.5553190    -0.1742840    -0.0060060
  C       -1.1407710     1.0618160     0.0104930
  C        1.8652240     0.1617960    -0.0202730
  C       -2.5496710     0.8075520     0.0175600
  C       -2.7164660    -0.5449080     0.0047820
  C        3.1811850    -0.5832010     0.0301470
  H        0.8582920    -1.6573840    -0.0213170
  H       -0.6226040     2.0066250     0.0153600
  H       -3.3420809     1.5487595    -0.2694932
  H       -3.5700130    -1.2048780     0.0045220
  H        3.4438230    -0.7947010     1.0711420
  H        3.9529480     0.0571610    -0.3968850
  H        3.1464960    -1.5284770    -0.5179270
units angstrom
no_reorient  #important for SAPT in psi4, default
symmetry c1  #important for SAPT in psi4, default
}

set PROPERTIES_ORIGIN ["COM"]
properties('MP2/aug-cc-pvtz', properties = ['dipole'])
--------------------------------------------------------------------------

    Molecular point group: c1
  Charge       = 0
  Multiplicity = 1
  Basis Set: AUG-CC-PVTZ
    Blend: AUG-CC-PVTZ
  Basis Set: (AUG-CC-PVTZ AUX)
    Blend: AUG-CC-PVTZ-JKFIT

    Orbital Energies [Eh]
    ---------------------

    Doubly Occupied:

       1A    -20.630322     2A    -20.535116     3A    -15.620058
       4A    -11.371528     5A    -11.338871     6A    -11.286385
       7A    -11.250963     8A    -11.237252     9A    -11.220679
      10A     -1.467367    11A     -1.390033    12A     -1.256489
      13A     -1.083840    14A     -1.036855    15A     -0.978077
      16A     -0.849493    17A     -0.804875    18A     -0.771418
      19A     -0.738095    20A     -0.684974    21A     -0.660116
      22A     -0.650364    23A     -0.621885    24A     -0.601949
      25A     -0.574676    26A     -0.568504    27A     -0.560816
      28A     -0.548299    29A     -0.543488    30A     -0.455926
      31A     -0.440007    32A     -0.397436    33A     -0.294191

  @DF-RHF Final Energy:  -435.59839283497990

   => Energetics <=

    Nuclear Repulsion Energy =            427.6832312456767227
    One-Electron Energy =               -1441.6225534267866806
    Two-Electron Energy =                 578.3409293461299967
    Total Energy =                       -435.5983928349799044
  Basis Set: (AUG-CC-PVTZ AUX)
    Blend: AUG-CC-PVTZ-RI
    Molecular point group: c1

    Geometry (in Angstrom), charge = 0, multiplicity = 1:

       Center              X                  Y                   Z               Mass
    ------------   -----------------  -----------------  -----------------  -----------------
         O           -1.458344629584    -1.182455332967    -0.006576294627    15.994914619570
         O            1.814426370416     1.376508667033    -0.017574294627    15.994914619570
         N            0.783373370416    -0.662382332967    -0.017567294627    14.003074004430
         C           -0.524611629584    -0.186788332967    -0.002118294627    12.000000000000
         C           -1.110063629584     1.049311667033     0.014380705373    12.000000000000
         C            1.895931370416     0.149291667033    -0.016385294627    12.000000000000
         C           -2.518963629584     0.795047667033     0.021447705373    12.000000000000
         C           -2.685758629584    -0.557412332967     0.008669705373    12.000000000000
         C            3.211892370416    -0.595705332967     0.034034705373    12.000000000000
         H            0.888999370416    -1.669888332967    -0.017429294627     1.007825032230
         H           -0.591896629584     1.994120667033     0.019247705373     1.007825032230
         H           -3.311373529584     1.536255167033    -0.265605494627     1.007825032230
         H           -3.539305629584    -1.217382332967     0.008409705373     1.007825032230
         H            3.474530370416    -0.807205332967     1.075029705373     1.007825032230
         H            3.983655370416     0.044656667033    -0.392997294627     1.007825032230
         H            3.177203370416    -1.540981332967    -0.514039294627     1.007825032230

  Basis Set: AUG-CC-PVTZ
    Blend: AUG-CC-PVTZ
  Basis Set: (AUG-CC-PVTZ AUX)
    Blend: AUG-CC-PVTZ-JKFIT
	 Reference Energy          =    -435.5983928349799044 [Eh]
	 Singles Energy            =      -0.0000000000000000 [Eh]
	 Same-Spin Energy          =      -0.4471896852072385 [Eh]
	 Opposite-Spin Energy      =      -1.3698454974746199 [Eh]
	 Correlation Energy        =      -1.8170351826818583 [Eh]
	 Total Energy              =    -437.4154280176617817 [Eh]

	 ================> DF-SCS-MP2 Energies <==================
	-----------------------------------------------------------
	 SCS Same-Spin Scale       =       0.3333333333333333 [-]
	 SCS Opposite-Spin Scale   =       1.2000000000000000 [-]
	 SCS Same-Spin Energy      =      -0.1490632284024128 [Eh]
	 SCS Opposite-Spin Energy  =      -1.6438145969695439 [Eh]
	 SCS Correlation Energy    =      -1.7928778253719568 [Eh]
	 SCS Total Energy          =    -437.3912706603518359 [Eh]
	-----------------------------------------------------------

  Dipole Moment: [D]
     X:     0.2134      Y:    -2.9971      Z:    -0.1513     Total:     3.0085

*** Psi4 exiting successfully. Buy a developer a beer!
