                               Psi4 1.3.2 release

  ==> Input File <==

--------------------------------------------------------------------------
#psi4
#
memory 32 gb

molecule  {
0 1
  O       -1.4890520    -1.1699510    -0.0104640
  O        1.7837190     1.3890130    -0.0214620
  N        0.7526660    -0.6498780    -0.0214550
  C       -0.5553190    -0.1742840    -0.0060060
  C       -1.1407710     1.0618160     0.0104930
  C        1.8652240     0.1617960    -0.0202730
  C       -2.5496710     0.8075520     0.0175600
  C       -2.7164660    -0.5449080     0.0047820
  C        3.1768767    -0.5810217     0.2300887
  H        0.8582920    -1.6573840    -0.0213170
  H       -0.6226040     2.0066250     0.0153600
  H       -3.3400310     1.5456830     0.0304840
  H       -3.5700130    -1.2048780     0.0045220
  H        3.4438230    -0.7947010     1.0711420
  H        3.9529480     0.0571610    -0.3968850
  H        3.1464960    -1.5284770    -0.5179270
units angstrom
no_reorient  #important for SAPT in psi4, default
symmetry c1  #important for SAPT in psi4, default
}

set PROPERTIES_ORIGIN ["COM"]
properties('MP2/aug-cc-pvtz', properties = ['dipole'])
--------------------------------------------------------------------------

    Molecular point group: c1
  Charge       = 0
  Multiplicity = 1
  Basis Set: AUG-CC-PVTZ
    Blend: AUG-CC-PVTZ
  Basis Set: (AUG-CC-PVTZ AUX)
    Blend: AUG-CC-PVTZ-JKFIT

    Orbital Energies [Eh]
    ---------------------

    Doubly Occupied:

       1A    -20.629964     2A    -20.537729     3A    -15.620841
       4A    -11.374688     5A    -11.339087     6A    -11.285244
       7A    -11.254704     8A    -11.234530     9A    -11.221371
      10A     -1.467054    11A     -1.391556    12A     -1.257021
      13A     -1.084678    14A     -1.037644    15A     -0.980490
      16A     -0.853067    17A     -0.808628    18A     -0.772139
      19A     -0.743481    20A     -0.702209    21A     -0.661003
      22A     -0.647960    23A     -0.639676    24A     -0.603894
      25A     -0.575285    26A     -0.566298    27A     -0.552004
      28A     -0.548671    29A     -0.521650    30A     -0.457197
      31A     -0.439221    32A     -0.399052    33A     -0.294291

  @DF-RHF Final Energy:  -435.55218665460256

   => Energetics <=

    Nuclear Repulsion Energy =            427.7210995017127289
    One-Electron Energy =               -1441.5419209901638169
    Two-Electron Energy =                 578.2686348338485232
    Total Energy =                       -435.5521866546025649
  Basis Set: (AUG-CC-PVTZ AUX)
    Blend: AUG-CC-PVTZ-RI
    Molecular point group: c1

    Geometry (in Angstrom), charge = 0, multiplicity = 1:

       Center              X                  Y                   Z               Mass
    ------------   -----------------  -----------------  -----------------  -----------------
         O           -1.457947711704    -1.182639670866    -0.028181053422    15.994914619570
         O            1.814823288296     1.376324329134    -0.039179053422    15.994914619570
         N            0.783770288296    -0.662566670866    -0.039172053422    14.003074004430
         C           -0.524214711704    -0.186972670866    -0.023723053422    12.000000000000
         C           -1.109666711704     1.049127329134    -0.007224053422    12.000000000000
         C            1.896328288296     0.149107329134    -0.037990053422    12.000000000000
         C           -2.518566711704     0.794863329134    -0.000157053422    12.000000000000
         C           -2.685361711704    -0.557596670866    -0.012935053422    12.000000000000
         C            3.207980988296    -0.593710370866     0.212371646578    12.000000000000
         H            0.889396288296    -1.670072670866    -0.039034053422     1.007825032230
         H           -0.591499711704     1.993936329134    -0.002357053422     1.007825032230
         H           -3.308926711704     1.532994329134     0.012766946578     1.007825032230
         H           -3.538908711704    -1.217566670866    -0.013195053422     1.007825032230
         H            3.474927288296    -0.807389670866     1.053424946578     1.007825032230
         H            3.984052288296     0.044472329134    -0.414602053422     1.007825032230
         H            3.177600288296    -1.541165670866    -0.535644053422     1.007825032230

  Basis Set: AUG-CC-PVTZ
    Blend: AUG-CC-PVTZ
  Basis Set: (AUG-CC-PVTZ AUX)
    Blend: AUG-CC-PVTZ-JKFIT
	 Reference Energy          =    -435.5521866546025649 [Eh]
	 Singles Energy            =      -0.0000000000000000 [Eh]
	 Same-Spin Energy          =      -0.4475881036992172 [Eh]
	 Opposite-Spin Energy      =      -1.3715898753142783 [Eh]
	 Correlation Energy        =      -1.8191779790134954 [Eh]
	 Total Energy              =    -437.3713646336160537 [Eh]

	 ================> DF-SCS-MP2 Energies <==================
	-----------------------------------------------------------
	 SCS Same-Spin Scale       =       0.3333333333333333 [-]
	 SCS Opposite-Spin Scale   =       1.2000000000000000 [-]
	 SCS Same-Spin Energy      =      -0.1491960345664057 [Eh]
	 SCS Opposite-Spin Energy  =      -1.6459078503771341 [Eh]
	 SCS Correlation Energy    =      -1.7951038849435399 [Eh]
	 SCS Total Energy          =    -437.3472905395461225 [Eh]
	-----------------------------------------------------------

  Dipole Moment: [D]
     X:     0.0236      Y:    -2.8437      Z:     0.1040     Total:     2.8457

*** Psi4 exiting successfully. Buy a developer a beer!
