                               Psi4 1.3.2 release

  ==> Input File <==

--------------------------------------------------------------------------
#psi4
#
memory 32 gb

molecule  {
0 1
  O       -1.4890520    -1.1699510    -0.0104640
  O        1.7837190     1.3890130    -0.0214620
  N        0.7526660    -0.6498780    -0.0214550
  C       -0.5553190    -0.1742840    -0.0060060
  C       -1.1407710     1.0618160     0.0104930
  C        1.8652240     0.1617960    -0.0202730
  C       -2.5496710     0.8075520     0.0175600
  C       -2.7164660    -0.5449080     0.0047820
  C        3.1811850    -0.5832010     0.0301470
  H        0.8582920    -1.6573840    -0.0213170
  H       -0.6229590     2.0071039    -0.0346364
  H       -3.3400310     1.5456830     0.0304840
  H       -3.5700130    -1.2048780     0.0045220
  H        3.4438230    -0.7947010     1.0711420
  H        3.9529480     0.0571610    -0.3968850
  H        3.1464960    -1.5284770    -0.5179270
units angstrom
no_reorient  #important for SAPT in psi4, default
symmetry c1  #important for SAPT in psi4, default
}

set PROPERTIES_ORIGIN ["COM"]
properties('MP2/aug-cc-pvtz', properties = ['dipole'])
--------------------------------------------------------------------------

    Molecular point group: c1
  Charge       = 0
  Multiplicity = 1
  Basis Set: AUG-CC-PVTZ
    Blend: AUG-CC-PVTZ
  Basis Set: (AUG-CC-PVTZ AUX)
    Blend: AUG-CC-PVTZ-JKFIT

    Orbital Energies [Eh]
    ---------------------

    Doubly Occupied:

       1A    -20.629454     2A    -20.535003     3A    -15.619926
       4A    -11.371408     5A    -11.338709     6A    -11.284582
       7A    -11.250862     8A    -11.233983     9A    -11.220625
      10A     -1.466540    11A     -1.389910    12A     -1.256302
      13A     -1.084049    14A     -1.036699    15A     -0.977842
      16A     -0.850243    17A     -0.805928    18A     -0.771071
      19A     -0.742151    20A     -0.684695    21A     -0.659498
      22A     -0.649793    23A     -0.621516    24A     -0.602434
      25A     -0.576119    26A     -0.569325    27A     -0.565594
      28A     -0.548268    29A     -0.543783    30A     -0.455755
      31A     -0.439883    32A     -0.398463    33A     -0.293722

  @DF-RHF Final Energy:  -435.60415200499870

   => Energetics <=

    Nuclear Repulsion Energy =            427.8276081286480235
    One-Electron Energy =               -1441.9152469996713535
    Two-Electron Energy =                 578.4834868660245775
    Total Energy =                       -435.6041520049986957
  Basis Set: (AUG-CC-PVTZ AUX)
    Blend: AUG-CC-PVTZ-RI
    Molecular point group: c1

    Geometry (in Angstrom), charge = 0, multiplicity = 1:

       Center              X                  Y                   Z               Mass
    ------------   -----------------  -----------------  -----------------  -----------------
         O           -1.458358289675    -1.182434397542    -0.008591021416    15.994914619570
         O            1.814412710325     1.376529602458    -0.019589021416    15.994914619570
         N            0.783359710325    -0.662361397542    -0.019582021416    14.003074004430
         C           -0.524625289675    -0.186767397542    -0.004133021416    12.000000000000
         C           -1.110077289675     1.049332602458     0.012365978584    12.000000000000
         C            1.895917710325     0.149312602458    -0.018400021416    12.000000000000
         C           -2.518977289675     0.795068602458     0.019432978584    12.000000000000
         C           -2.685772289675    -0.557391397542     0.006654978584    12.000000000000
         C            3.211878710325    -0.595684397542     0.032019978584    12.000000000000
         H            0.888985710325    -1.669867397542    -0.019444021416     1.007825032230
         H           -0.592265289675     1.994620502458    -0.032763421416     1.007825032230
         H           -3.309337289675     1.533199602458     0.032356978584     1.007825032230
         H           -3.539319289675    -1.217361397542     0.006394978584     1.007825032230
         H            3.474516710325    -0.807184397542     1.073014978584     1.007825032230
         H            3.983641710325     0.044677602458    -0.395012021416     1.007825032230
         H            3.177189710325    -1.540960397542    -0.516054021416     1.007825032230

  Basis Set: AUG-CC-PVTZ
    Blend: AUG-CC-PVTZ
  Basis Set: (AUG-CC-PVTZ AUX)
    Blend: AUG-CC-PVTZ-JKFIT
	 Reference Energy          =    -435.6041520049986957 [Eh]
	 Singles Energy            =      -0.0000000000000000 [Eh]
	 Same-Spin Energy          =      -0.4469146606312491 [Eh]
	 Opposite-Spin Energy      =      -1.3691449425091338 [Eh]
	 Correlation Energy        =      -1.8160596031403828 [Eh]
	 Total Energy              =    -437.4202116081390841 [Eh]

	 ================> DF-SCS-MP2 Energies <==================
	-----------------------------------------------------------
	 SCS Same-Spin Scale       =       0.3333333333333333 [-]
	 SCS Opposite-Spin Scale   =       1.2000000000000000 [-]
	 SCS Same-Spin Energy      =      -0.1489715535437497 [Eh]
	 SCS Opposite-Spin Energy  =      -1.6429739310109606 [Eh]
	 SCS Correlation Energy    =      -1.7919454845547103 [Eh]
	 SCS Total Energy          =    -437.3960974895534264 [Eh]
	-----------------------------------------------------------

  Dipole Moment: [D]
     X:     0.1636      Y:    -2.9464      Z:     0.0365     Total:     2.9512

*** Psi4 exiting successfully. Buy a developer a beer!
