                               Psi4 1.3.2 release

  ==> Input File <==

--------------------------------------------------------------------------
#psi4
#
memory 32 gb

molecule  {
0 1
  O       -1.4890520    -1.1699510    -0.0104640
  O        1.7837190     1.3890130    -0.0214620
  N        0.7526660    -0.6498780    -0.0214550
  C       -0.5553190    -0.1742840    -0.0060060
  C       -1.1393016     1.0597088     0.2104765
  C        1.8652240     0.1617960    -0.0202730
  C       -2.5496710     0.8075520     0.0175600
  C       -2.7164660    -0.5449080     0.0047820
  C        3.1811850    -0.5832010     0.0301470
  H        0.8582920    -1.6573840    -0.0213170
  H       -0.6226040     2.0066250     0.0153600
  H       -3.3400310     1.5456830     0.0304840
  H       -3.5700130    -1.2048780     0.0045220
  H        3.4438230    -0.7947010     1.0711420
  H        3.9529480     0.0571610    -0.3968850
  H        3.1464960    -1.5284770    -0.5179270
units angstrom
no_reorient  #important for SAPT in psi4, default
symmetry c1  #important for SAPT in psi4, default
}

set PROPERTIES_ORIGIN ["COM"]
properties('MP2/aug-cc-pvtz', properties = ['dipole'])
--------------------------------------------------------------------------

    Molecular point group: c1
  Charge       = 0
  Multiplicity = 1
  Basis Set: AUG-CC-PVTZ
    Blend: AUG-CC-PVTZ
  Basis Set: (AUG-CC-PVTZ AUX)
    Blend: AUG-CC-PVTZ-JKFIT

    Orbital Energies [Eh]
    ---------------------

    Doubly Occupied:

       1A    -20.630618     2A    -20.535983     3A    -15.621516
       4A    -11.372407     5A    -11.344009     6A    -11.284534
       7A    -11.251578     8A    -11.234961     9A    -11.223569
      10A     -1.467654    11A     -1.390805    12A     -1.257823
      13A     -1.080624    14A     -1.037428    15A     -0.977622
      16A     -0.850549    17A     -0.805012    18A     -0.770424
      19A     -0.740582    20A     -0.685354    21A     -0.660454
      22A     -0.649451    23A     -0.622428    24A     -0.603109
      25A     -0.574478    26A     -0.568206    27A     -0.560291
      28A     -0.547616    29A     -0.540260    30A     -0.456147
      31A     -0.440471    32A     -0.396874    33A     -0.294155

  @DF-RHF Final Energy:  -435.59369686821753

   => Energetics <=

    Nuclear Repulsion Energy =            427.3599690154044310
    One-Electron Energy =               -1440.9533505914719171
    Two-Electron Energy =                 577.9996847078499513
    Total Energy =                       -435.5936968682175348
  Basis Set: (AUG-CC-PVTZ AUX)
    Blend: AUG-CC-PVTZ-RI
    Molecular point group: c1

    Geometry (in Angstrom), charge = 0, multiplicity = 1:

       Center              X                  Y                   Z               Mass
    ------------   -----------------  -----------------  -----------------  -----------------
         O           -1.458502159422    -1.182228323765    -0.028185064692    15.994914619570
         O            1.814268840578     1.376735676235    -0.039183064692    15.994914619570
         N            0.783215840578    -0.662155323765    -0.039176064692    14.003074004430
         C           -0.524769159422    -0.186561323765    -0.023727064692    12.000000000000
         C           -1.108751759422     1.047431476235     0.192755435308    12.000000000000
         C            1.895773840578     0.149518676235    -0.037994064692    12.000000000000
         C           -2.519121159422     0.795274676235    -0.000161064692    12.000000000000
         C           -2.685916159422    -0.557185323765    -0.012939064692    12.000000000000
         C            3.211734840578    -0.595478323765     0.012425935308    12.000000000000
         H            0.888841840578    -1.669661323765    -0.039038064692     1.007825032230
         H           -0.592054159422     1.994347676235    -0.002361064692     1.007825032230
         H           -3.309481159422     1.533405676235     0.012762935308     1.007825032230
         H           -3.539463159422    -1.217155323765    -0.013199064692     1.007825032230
         H            3.474372840578    -0.806978323765     1.053420935308     1.007825032230
         H            3.983497840578     0.044883676235    -0.414606064692     1.007825032230
         H            3.177045840578    -1.540754323765    -0.535648064692     1.007825032230

  Basis Set: AUG-CC-PVTZ
    Blend: AUG-CC-PVTZ
  Basis Set: (AUG-CC-PVTZ AUX)
    Blend: AUG-CC-PVTZ-JKFIT
	 Reference Energy          =    -435.5936968682175348 [Eh]
	 Singles Energy            =      -0.0000000000000000 [Eh]
	 Same-Spin Energy          =      -0.4473686316700879 [Eh]
	 Opposite-Spin Energy      =      -1.3705466516138298 [Eh]
	 Correlation Energy        =      -1.8179152832839178 [Eh]
	 Total Energy              =    -437.4116121515014584 [Eh]

	 ================> DF-SCS-MP2 Energies <==================
	-----------------------------------------------------------
	 SCS Same-Spin Scale       =       0.3333333333333333 [-]
	 SCS Opposite-Spin Scale   =       1.2000000000000000 [-]
	 SCS Same-Spin Energy      =      -0.1491228772233626 [Eh]
	 SCS Opposite-Spin Energy  =      -1.6446559819365958 [Eh]
	 SCS Correlation Energy    =      -1.7937788591599584 [Eh]
	 SCS Total Energy          =    -437.3874757273774776 [Eh]
	-----------------------------------------------------------

  Dipole Moment: [D]
     X:     0.1943      Y:    -3.0179      Z:    -0.0930     Total:     3.0256

*** Psi4 exiting successfully. Buy a developer a beer!
