                               Psi4 1.3.2 release

  ==> Input File <==

--------------------------------------------------------------------------
#psi4
#
memory 32 gb

molecule  {
0 1
  O       -1.4890520    -1.1699510    -0.0104640
  O        1.7837190     1.3890130    -0.0214620
  N        0.7526660    -0.6498780    -0.0214550
  C       -0.5553190    -0.1742840    -0.0060060
  C       -1.1396690     1.0602356     0.1604806
  C        1.8652240     0.1617960    -0.0202730
  C       -2.5496710     0.8075520     0.0175600
  C       -2.7164660    -0.5449080     0.0047820
  C        3.1811850    -0.5832010     0.0301470
  H        0.8582920    -1.6573840    -0.0213170
  H       -0.6226040     2.0066250     0.0153600
  H       -3.3400310     1.5456830     0.0304840
  H       -3.5700130    -1.2048780     0.0045220
  H        3.4438230    -0.7947010     1.0711420
  H        3.9529480     0.0571610    -0.3968850
  H        3.1464960    -1.5284770    -0.5179270
units angstrom
no_reorient  #important for SAPT in psi4, default
symmetry c1  #important for SAPT in psi4, default
}

set PROPERTIES_ORIGIN ["COM"]
properties('MP2/aug-cc-pvtz', properties = ['dipole'])
--------------------------------------------------------------------------

    Molecular point group: c1
  Charge       = 0
  Multiplicity = 1
  Basis Set: AUG-CC-PVTZ
    Blend: AUG-CC-PVTZ
  Basis Set: (AUG-CC-PVTZ AUX)
    Blend: AUG-CC-PVTZ-JKFIT

    Orbital Energies [Eh]
    ---------------------

    Doubly Occupied:

       1A    -20.630099     2A    -20.535549     3A    -15.620810
       4A    -11.371967     5A    -11.341696     6A    -11.284545
       7A    -11.251261     8A    -11.234548     9A    -11.222256
      10A     -1.467157    11A     -1.390408    12A     -1.257150
      13A     -1.082121    14A     -1.037102    15A     -0.977720
      16A     -0.850417    17A     -0.805386    18A     -0.770692
      19A     -0.741288    20A     -0.685069    21A     -0.660027
      22A     -0.649596    23A     -0.622042    24A     -0.602804
      25A     -0.574829    26A     -0.568602    27A     -0.563029
      28A     -0.547837    29A     -0.541951    30A     -0.455967
      31A     -0.440221    32A     -0.397567    33A     -0.293957

  @DF-RHF Final Energy:  -435.59837026763046

   => Energetics <=

    Nuclear Repulsion Energy =            427.5654375105165172
    One-Electron Energy =               -1441.3762790603493613
    Two-Electron Energy =                 578.2124712822023866
    Total Energy =                       -435.5983702676304574
  Basis Set: (AUG-CC-PVTZ AUX)
    Blend: AUG-CC-PVTZ-RI
    Molecular point group: c1

    Geometry (in Angstrom), charge = 0, multiplicity = 1:

       Center              X                  Y                   Z               Mass
    ------------   -----------------  -----------------  -----------------  -----------------
         O           -1.458466902470    -1.182278877283    -0.023387288297    15.994914619570
         O            1.814304097530     1.376685122717    -0.034385288297    15.994914619570
         N            0.783251097530    -0.662205877283    -0.034378288297    14.003074004430
         C           -0.524733902470    -0.186611877283    -0.018929288297    12.000000000000
         C           -1.109083902470     1.047907722717     0.147557311703    12.000000000000
         C            1.895809097530     0.149468122717    -0.033196288297    12.000000000000
         C           -2.519085902470     0.795224122717     0.004636711703    12.000000000000
         C           -2.685880902470    -0.557235877283    -0.008141288297    12.000000000000
         C            3.211770097530    -0.595528877283     0.017223711703    12.000000000000
         H            0.888877097530    -1.669711877283    -0.034240288297     1.007825032230
         H           -0.592018902470     1.994297122717     0.002436711703     1.007825032230
         H           -3.309445902470     1.533355122717     0.017560711703     1.007825032230
         H           -3.539427902470    -1.217205877283    -0.008401288297     1.007825032230
         H            3.474408097530    -0.807028877283     1.058218711703     1.007825032230
         H            3.983533097530     0.044833122717    -0.409808288297     1.007825032230
         H            3.177081097530    -1.540804877283    -0.530850288297     1.007825032230

  Basis Set: AUG-CC-PVTZ
    Blend: AUG-CC-PVTZ
  Basis Set: (AUG-CC-PVTZ AUX)
    Blend: AUG-CC-PVTZ-JKFIT
	 Reference Energy          =    -435.5983702676304574 [Eh]
	 Singles Energy            =      -0.0000000000000000 [Eh]
	 Same-Spin Energy          =      -0.4471697715365508 [Eh]
	 Opposite-Spin Energy      =      -1.3698873274614041 [Eh]
	 Correlation Energy        =      -1.8170570989979549 [Eh]
	 Total Energy              =    -437.4154273666284212 [Eh]

	 ================> DF-SCS-MP2 Energies <==================
	-----------------------------------------------------------
	 SCS Same-Spin Scale       =       0.3333333333333333 [-]
	 SCS Opposite-Spin Scale   =       1.2000000000000000 [-]
	 SCS Same-Spin Energy      =      -0.1490565905121836 [Eh]
	 SCS Opposite-Spin Energy  =      -1.6438647929536849 [Eh]
	 SCS Correlation Energy    =      -1.7929213834658686 [Eh]
	 SCS Total Energy          =    -437.3912916510963100 [Eh]
	-----------------------------------------------------------

  Dipole Moment: [D]
     X:     0.1805      Y:    -2.9864      Z:    -0.0491     Total:     2.9923

*** Psi4 exiting successfully. Buy a developer a beer!
