                               Psi4 1.3.2 release

  ==> Input File <==

--------------------------------------------------------------------------
#psi4
#
memory 32 gb

molecule  {
0 1
  O       -1.4890520    -1.1699510    -0.0104640
  O        1.7837190     1.3890130    -0.0214620
  N        0.7526660    -0.6498780    -0.0214550
  C       -0.5553190    -0.1742840    -0.0060060
  C       -1.1407710     1.0618160     0.0104930
  C        1.8652240     0.1617960    -0.0202730
  C       -2.5496710     0.8075520     0.0175600
  C       -2.7164660    -0.5449080     0.0047820
  C        3.1811850    -0.5832010     0.0301470
  H        0.8582920    -1.6573840    -0.0213170
  H       -0.6243792     2.0090193    -0.2346222
  H       -3.3400310     1.5456830     0.0304840
  H       -3.5700130    -1.2048780     0.0045220
  H        3.4438230    -0.7947010     1.0711420
  H        3.9529480     0.0571610    -0.3968850
  H        3.1464960    -1.5284770    -0.5179270
units angstrom
no_reorient  #important for SAPT in psi4, default
symmetry c1  #important for SAPT in psi4, default
}

set PROPERTIES_ORIGIN ["COM"]
properties('MP2/aug-cc-pvtz', properties = ['dipole'])
--------------------------------------------------------------------------

    Molecular point group: c1
  Charge       = 0
  Multiplicity = 1
  Basis Set: AUG-CC-PVTZ
    Blend: AUG-CC-PVTZ
  Basis Set: (AUG-CC-PVTZ AUX)
    Blend: AUG-CC-PVTZ-JKFIT

    Orbital Energies [Eh]
    ---------------------

    Doubly Occupied:

       1A    -20.629779     2A    -20.535057     3A    -15.620381
       4A    -11.371523     5A    -11.339711     6A    -11.284648
       7A    -11.250967     8A    -11.233873     9A    -11.222485
      10A     -1.466949    11A     -1.389969    12A     -1.256678
      13A     -1.083786    14A     -1.036862    15A     -0.977851
      16A     -0.850020    17A     -0.806124    18A     -0.768961
      19A     -0.741046    20A     -0.684552    21A     -0.660063
      22A     -0.649602    23A     -0.621706    24A     -0.602378
      25A     -0.574492    26A     -0.568761    27A     -0.562435
      28A     -0.547299    29A     -0.543907    30A     -0.455865
      31A     -0.439797    32A     -0.397623    33A     -0.293938

  @DF-RHF Final Energy:  -435.60042638273035

   => Energetics <=

    Nuclear Repulsion Energy =            427.7130967823443939
    One-Electron Energy =               -1441.6888675203990715
    Two-Electron Energy =                 578.3753443553243869
    Total Energy =                       -435.6004263827303475
  Basis Set: (AUG-CC-PVTZ AUX)
    Blend: AUG-CC-PVTZ-RI
    Molecular point group: c1

    Geometry (in Angstrom), charge = 0, multiplicity = 1:

       Center              X                  Y                   Z               Mass
    ------------   -----------------  -----------------  -----------------  -----------------
         O           -1.458346843536    -1.182449834759    -0.006979230635    15.994914619570
         O            1.814424156464     1.376514165241    -0.017977230635    15.994914619570
         N            0.783371156464    -0.662376834759    -0.017970230635    14.003074004430
         C           -0.524613843536    -0.186782834759    -0.002521230635    12.000000000000
         C           -1.110065843536     1.049317165241     0.013977769365    12.000000000000
         C            1.895929156464     0.149297165241    -0.016788230635    12.000000000000
         C           -2.518965843536     0.795053165241     0.021044769365    12.000000000000
         C           -2.685760843536    -0.557406834759     0.008266769365    12.000000000000
         C            3.211890156464    -0.595699834759     0.033631769365    12.000000000000
         H            0.888997156464    -1.669882834759    -0.017832230635     1.007825032230
         H           -0.593674043536     1.996520465241    -0.231137430635     1.007825032230
         H           -3.309325843536     1.533184165241     0.033968769365     1.007825032230
         H           -3.539307843536    -1.217376834759     0.008006769365     1.007825032230
         H            3.474528156464    -0.807199834759     1.074626769365     1.007825032230
         H            3.983653156464     0.044662165241    -0.393400230635     1.007825032230
         H            3.177201156464    -1.540975834759    -0.514442230635     1.007825032230

  Basis Set: AUG-CC-PVTZ
    Blend: AUG-CC-PVTZ
  Basis Set: (AUG-CC-PVTZ AUX)
    Blend: AUG-CC-PVTZ-JKFIT
	 Reference Energy          =    -435.6004263827303475 [Eh]
	 Singles Energy            =      -0.0000000000000000 [Eh]
	 Same-Spin Energy          =      -0.4470977516439792 [Eh]
	 Opposite-Spin Energy      =      -1.3695584200553703 [Eh]
	 Correlation Energy        =      -1.8166561716993495 [Eh]
	 Total Energy              =    -437.4170825544296690 [Eh]

	 ================> DF-SCS-MP2 Energies <==================
	-----------------------------------------------------------
	 SCS Same-Spin Scale       =       0.3333333333333333 [-]
	 SCS Opposite-Spin Scale   =       1.2000000000000000 [-]
	 SCS Same-Spin Energy      =      -0.1490325838813264 [Eh]
	 SCS Opposite-Spin Energy  =      -1.6434701040664443 [Eh]
	 SCS Correlation Energy    =      -1.7925026879477708 [Eh]
	 SCS Total Energy          =    -437.3929290706781217 [Eh]
	-----------------------------------------------------------

  Dipole Moment: [D]
     X:     0.1637      Y:    -2.9783      Z:    -0.1279     Total:     2.9856

*** Psi4 exiting successfully. Buy a developer a beer!
