                               Psi4 1.3.2 release

  ==> Input File <==

--------------------------------------------------------------------------
#psi4
#
memory 32 gb

molecule  {
0 1
  O       -0.8946000     0.3180840    -0.2486650
  O        0.2608140    -1.4535000     0.5764690
  C        1.4696687     0.5096912    -0.2188248
  C        1.8184670     1.3890190     0.7353960
  C        2.6165010    -0.5169580    -0.7250520
  C        0.2447430    -0.3668820     0.0213200
  C       -2.1092640    -0.3317960     0.1925940
  C       -3.2536250     0.5656790    -0.2140850
  H        1.1864410     1.0054960    -1.2820320
  H        2.6888660     1.9907190     0.4595330
  H        2.0609350     0.8310830     1.6444090
  H        0.9859800     2.0639750     0.9510040
  H        3.4951390     0.0579210    -1.0318300
  H        2.3532220    -1.2022810    -1.5348280
  H        2.8748910    -1.1153660     0.1513080
  H       -2.1714740    -1.3192040    -0.2711440
  H       -2.0606790    -0.4764550     1.2759150
  H       -4.2047000     0.1215880     0.0924120
  H       -3.1592540     1.5451910     0.2586100
  H       -3.2661300     0.7008150    -1.2970470
units angstrom
no_reorient  #important for SAPT in psi4, default
symmetry c1  #important for SAPT in psi4, default
}

set PROPERTIES_ORIGIN ["COM"]
properties('MP2/aug-cc-pvtz', properties = ['dipole'])
--------------------------------------------------------------------------

    Molecular point group: c1
  Charge       = 0
  Multiplicity = 1
  Basis Set: AUG-CC-PVTZ
    Blend: AUG-CC-PVTZ
  Basis Set: (AUG-CC-PVTZ AUX)
    Blend: AUG-CC-PVTZ-JKFIT

    Orbital Energies [Eh]
    ---------------------

    Doubly Occupied:

       1A    -20.600409     2A    -20.542825     3A    -11.376203
       4A    -11.287029     5A    -11.252136     6A    -11.224265
       7A    -11.221436     8A    -11.217412     9A     -1.450954
      10A     -1.350462    11A     -1.114988    12A     -1.037408
      13A     -0.944540    14A     -0.894296    15A     -0.824633
      16A     -0.758941    17A     -0.693826    18A     -0.678786
      19A     -0.663063    20A     -0.633171    21A     -0.604119
      22A     -0.582004    23A     -0.563561    24A     -0.552624
      25A     -0.544437    26A     -0.528004    27A     -0.512432
      28A     -0.508624    29A     -0.493999    30A     -0.457570
      31A     -0.435869    32A     -0.427246

  @DF-RHF Final Energy:  -384.03995392344245

   => Energetics <=

    Nuclear Repulsion Energy =            396.5340191971039872
    One-Electron Energy =               -1309.1933991997368594
    Two-Electron Energy =                 528.6194260791903616
    Total Energy =                       -384.0399539234424537
  Basis Set: (AUG-CC-PVTZ AUX)
    Blend: AUG-CC-PVTZ-RI
    Molecular point group: c1

    Geometry (in Angstrom), charge = 0, multiplicity = 1:

       Center              X                  Y                   Z               Mass
    ------------   -----------------  -----------------  -----------------  -----------------
         O           -0.895374452182     0.308948087432    -0.267195745056    15.994914619570
         O            0.260039547818    -1.462635912568     0.557938254944    15.994914619570
         C            1.468894247818     0.500555287432    -0.237355545056    12.000000000000
         C            1.817692547818     1.379883087432     0.716865254944    12.000000000000
         C            2.615726547818    -0.526093912568    -0.743582745056    12.000000000000
         C            0.243968547818    -0.376017912568     0.002789254944    12.000000000000
         C           -2.110038452182    -0.340931912568     0.174063254944    12.000000000000
         C           -3.254399452182     0.556543087432    -0.232615745056    12.000000000000
         H            1.185666547818     0.996360087432    -1.300562745056     1.007825032230
         H            2.688091547818     1.981583087432     0.441002254944     1.007825032230
         H            2.060160547818     0.821947087432     1.625878254944     1.007825032230
         H            0.985205547818     2.054839087432     0.932473254944     1.007825032230
         H            3.494364547818     0.048785087432    -1.050360745056     1.007825032230
         H            2.352447547818    -1.211416912568    -1.553358745056     1.007825032230
         H            2.874116547818    -1.124501912568     0.132777254944     1.007825032230
         H           -2.172248452182    -1.328339912568    -0.289674745056     1.007825032230
         H           -2.061453452182    -0.485590912568     1.257384254944     1.007825032230
         H           -4.205474452182     0.112452087432     0.073881254944     1.007825032230
         H           -3.160028452182     1.536055087432     0.240079254944     1.007825032230
         H           -3.266904452182     0.691679087432    -1.315577745056     1.007825032230

  Basis Set: AUG-CC-PVTZ
    Blend: AUG-CC-PVTZ
  Basis Set: (AUG-CC-PVTZ AUX)
    Blend: AUG-CC-PVTZ-JKFIT
	 Reference Energy          =    -384.0399539234424537 [Eh]
	 Singles Energy            =      -0.0000000000000000 [Eh]
	 Same-Spin Energy          =      -0.3858662516374870 [Eh]
	 Opposite-Spin Energy      =      -1.2902338533396325 [Eh]
	 Correlation Energy        =      -1.6761001049771194 [Eh]
	 Total Energy              =    -385.7160540284195918 [Eh]

	 ================> DF-SCS-MP2 Energies <==================
	-----------------------------------------------------------
	 SCS Same-Spin Scale       =       0.3333333333333333 [-]
	 SCS Opposite-Spin Scale   =       1.2000000000000000 [-]
	 SCS Same-Spin Energy      =      -0.1286220838791623 [Eh]
	 SCS Opposite-Spin Energy  =      -1.5482806240075588 [Eh]
	 SCS Correlation Energy    =      -1.6769027078867211 [Eh]
	 SCS Total Energy          =    -385.7168566313291649 [Eh]
	-----------------------------------------------------------

  Dipole Moment: [D]
     X:    -0.7953      Y:     1.5864      Z:    -0.4555     Total:     1.8321

*** Psi4 exiting successfully. Buy a developer a beer!
