                               Psi4 1.3.2 release

  ==> Input File <==

--------------------------------------------------------------------------
#psi4
#
memory 32 gb

molecule  {
0 1
  O       -0.8946000     0.3180840    -0.2486650
  O        0.2608140    -1.4535000     0.5764690
  C        1.4734155     0.5538804    -0.1291962
  C        1.8184670     1.3890190     0.7353960
  C        2.6165010    -0.5169580    -0.7250520
  C        0.2447430    -0.3668820     0.0213200
  C       -2.1092640    -0.3317960     0.1925940
  C       -3.2536250     0.5656790    -0.2140850
  H        1.1864410     1.0054960    -1.2820320
  H        2.6888660     1.9907190     0.4595330
  H        2.0609350     0.8310830     1.6444090
  H        0.9859800     2.0639750     0.9510040
  H        3.4951390     0.0579210    -1.0318300
  H        2.3532220    -1.2022810    -1.5348280
  H        2.8748910    -1.1153660     0.1513080
  H       -2.1714740    -1.3192040    -0.2711440
  H       -2.0606790    -0.4764550     1.2759150
  H       -4.2047000     0.1215880     0.0924120
  H       -3.1592540     1.5451910     0.2586100
  H       -3.2661300     0.7008150    -1.2970470
units angstrom
no_reorient  #important for SAPT in psi4, default
symmetry c1  #important for SAPT in psi4, default
}

set PROPERTIES_ORIGIN ["COM"]
properties('MP2/aug-cc-pvtz', properties = ['dipole'])
--------------------------------------------------------------------------

    Molecular point group: c1
  Charge       = 0
  Multiplicity = 1
  Basis Set: AUG-CC-PVTZ
    Blend: AUG-CC-PVTZ
  Basis Set: (AUG-CC-PVTZ AUX)
    Blend: AUG-CC-PVTZ-JKFIT

    Orbital Energies [Eh]
    ---------------------

    Doubly Occupied:

       1A    -20.600798     2A    -20.544202     3A    -11.379174
       4A    -11.287344     5A    -11.257376     6A    -11.224408
       7A    -11.223458     8A    -11.212829     9A     -1.451376
      10A     -1.351259    11A     -1.136534    12A     -1.039100
      13A     -0.944853    14A     -0.893117    15A     -0.822238
      16A     -0.757514    17A     -0.694074    18A     -0.679558
      19A     -0.667711    20A     -0.642048    21A     -0.616413
      22A     -0.581294    23A     -0.571880    24A     -0.552582
      25A     -0.544061    26A     -0.533569    27A     -0.513056
      28A     -0.508249    29A     -0.490887    30A     -0.457541
      31A     -0.420490    32A     -0.404605

  @DF-RHF Final Energy:  -383.97477723887141

   => Energetics <=

    Nuclear Repulsion Energy =            396.9364406061523596
    One-Electron Energy =               -1309.8152362740347598
    Two-Electron Energy =                 528.9040184290109892
    Total Energy =                       -383.9747772388714111
  Basis Set: (AUG-CC-PVTZ AUX)
    Blend: AUG-CC-PVTZ-RI
    Molecular point group: c1

    Geometry (in Angstrom), charge = 0, multiplicity = 1:

       Center              X                  Y                   Z               Mass
    ------------   -----------------  -----------------  -----------------  -----------------
         O           -0.895761772611     0.304380088095    -0.276460981481    15.994914619570
         O            0.259652227389    -1.467203911905     0.548673018519    15.994914619570
         C            1.472253727389     0.540176488095    -0.156992181481    12.000000000000
         C            1.817305227389     1.375315088095     0.707600018519    12.000000000000
         C            2.615339227389    -0.530661911905    -0.752847981481    12.000000000000
         C            0.243581227389    -0.380585911905    -0.006475981481    12.000000000000
         C           -2.110425772611    -0.345499911905     0.164798018519    12.000000000000
         C           -3.254786772611     0.551975088095    -0.241880981481    12.000000000000
         H            1.185279227389     0.991792088095    -1.309827981481     1.007825032230
         H            2.687704227389     1.977015088095     0.431737018519     1.007825032230
         H            2.059773227389     0.817379088095     1.616613018519     1.007825032230
         H            0.984818227389     2.050271088095     0.923208018519     1.007825032230
         H            3.493977227389     0.044217088095    -1.059625981481     1.007825032230
         H            2.352060227389    -1.215984911905    -1.562623981481     1.007825032230
         H            2.873729227389    -1.129069911905     0.123512018519     1.007825032230
         H           -2.172635772611    -1.332907911905    -0.298939981481     1.007825032230
         H           -2.061840772611    -0.490158911905     1.248119018519     1.007825032230
         H           -4.205861772611     0.107884088095     0.064616018519     1.007825032230
         H           -3.160415772611     1.531487088095     0.230814018519     1.007825032230
         H           -3.267291772611     0.687111088095    -1.324842981481     1.007825032230

  Basis Set: AUG-CC-PVTZ
    Blend: AUG-CC-PVTZ
  Basis Set: (AUG-CC-PVTZ AUX)
    Blend: AUG-CC-PVTZ-JKFIT
	 Reference Energy          =    -383.9747772388714111 [Eh]
	 Singles Energy            =      -0.0000000000000000 [Eh]
	 Same-Spin Energy          =      -0.3881923866770505 [Eh]
	 Opposite-Spin Energy      =      -1.2942437879024102 [Eh]
	 Correlation Energy        =      -1.6824361745794607 [Eh]
	 Total Energy              =    -385.6572134134508474 [Eh]

	 ================> DF-SCS-MP2 Energies <==================
	-----------------------------------------------------------
	 SCS Same-Spin Scale       =       0.3333333333333333 [-]
	 SCS Opposite-Spin Scale   =       1.2000000000000000 [-]
	 SCS Same-Spin Energy      =      -0.1293974622256835 [Eh]
	 SCS Opposite-Spin Energy  =      -1.5530925454828923 [Eh]
	 SCS Correlation Energy    =      -1.6824900077085758 [Eh]
	 SCS Total Energy          =    -385.6572672465799769 [Eh]
	-----------------------------------------------------------

  Dipole Moment: [D]
     X:    -0.8355      Y:     1.6036      Z:    -0.3152     Total:     1.8355

*** Psi4 exiting successfully. Buy a developer a beer!
