                               Psi4 1.3.2 release

  ==> Input File <==

--------------------------------------------------------------------------
#psi4
#
memory 32 gb

molecule  {
0 1
  O       -0.8946000     0.3180840    -0.2486650
  O        0.2608140    -1.4535000     0.5764690
  C        1.4677952     0.4875967    -0.2636391
  C        1.8184670     1.3890190     0.7353960
  C        2.6165010    -0.5169580    -0.7250520
  C        0.2447430    -0.3668820     0.0213200
  C       -2.1092640    -0.3317960     0.1925940
  C       -3.2536250     0.5656790    -0.2140850
  H        1.1864410     1.0054960    -1.2820320
  H        2.6888660     1.9907190     0.4595330
  H        2.0609350     0.8310830     1.6444090
  H        0.9859800     2.0639750     0.9510040
  H        3.4951390     0.0579210    -1.0318300
  H        2.3532220    -1.2022810    -1.5348280
  H        2.8748910    -1.1153660     0.1513080
  H       -2.1714740    -1.3192040    -0.2711440
  H       -2.0606790    -0.4764550     1.2759150
  H       -4.2047000     0.1215880     0.0924120
  H       -3.1592540     1.5451910     0.2586100
  H       -3.2661300     0.7008150    -1.2970470
units angstrom
no_reorient  #important for SAPT in psi4, default
symmetry c1  #important for SAPT in psi4, default
}

set PROPERTIES_ORIGIN ["COM"]
properties('MP2/aug-cc-pvtz', properties = ['dipole'])
--------------------------------------------------------------------------

    Molecular point group: c1
  Charge       = 0
  Multiplicity = 1
  Basis Set: AUG-CC-PVTZ
    Blend: AUG-CC-PVTZ
  Basis Set: (AUG-CC-PVTZ AUX)
    Blend: AUG-CC-PVTZ-JKFIT

    Orbital Energies [Eh]
    ---------------------

    Doubly Occupied:

       1A    -20.600200     2A    -20.542167     3A    -11.375127
       4A    -11.286891     5A    -11.249940     6A    -11.224196
       7A    -11.220303     8A    -11.219922     9A     -1.450723
      10A     -1.350077    11A     -1.107348    12A     -1.036534
      13A     -0.943627    14A     -0.894711    15A     -0.825682
      16A     -0.759631    17A     -0.694567    18A     -0.678499
      19A     -0.661818    20A     -0.629298    21A     -0.599527
      22A     -0.582381    23A     -0.559338    24A     -0.552675
      25A     -0.544548    26A     -0.524507    27A     -0.511529
      28A     -0.508894    29A     -0.494522    30A     -0.458616
      31A     -0.447559    32A     -0.431505

  @DF-RHF Final Energy:  -384.06072475333656

   => Energetics <=

    Nuclear Repulsion Energy =            396.3505437947719088
    One-Electron Energy =               -1308.8888121861468790
    Two-Electron Energy =                 528.4775436380383553
    Total Energy =                       -384.0607247533365580
  Basis Set: (AUG-CC-PVTZ AUX)
    Blend: AUG-CC-PVTZ-RI
    Molecular point group: c1

    Geometry (in Angstrom), charge = 0, multiplicity = 1:

       Center              X                  Y                   Z               Mass
    ------------   -----------------  -----------------  -----------------  -----------------
         O           -0.895180781630     0.311232076763    -0.262563126844    15.994914619570
         O            0.260233218370    -1.460351923237     0.562570873156    15.994914619570
         C            1.467214418370     0.480744776763    -0.277537226844    12.000000000000
         C            1.817886218370     1.382167076763     0.721497873156    12.000000000000
         C            2.615920218370    -0.523809923237    -0.738950126844    12.000000000000
         C            0.244162218370    -0.373733923237     0.007421873156    12.000000000000
         C           -2.109844781630    -0.338647923237     0.178695873156    12.000000000000
         C           -3.254205781630     0.558827076763    -0.227983126844    12.000000000000
         H            1.185860218370     0.998644076763    -1.295930126844     1.007825032230
         H            2.688285218370     1.983867076763     0.445634873156     1.007825032230
         H            2.060354218370     0.824231076763     1.630510873156     1.007825032230
         H            0.985399218370     2.057123076763     0.937105873156     1.007825032230
         H            3.494558218370     0.051069076763    -1.045728126844     1.007825032230
         H            2.352641218370    -1.209132923237    -1.548726126844     1.007825032230
         H            2.874310218370    -1.122217923237     0.137409873156     1.007825032230
         H           -2.172054781630    -1.326055923237    -0.285042126844     1.007825032230
         H           -2.061259781630    -0.483306923237     1.262016873156     1.007825032230
         H           -4.205280781630     0.114736076763     0.078513873156     1.007825032230
         H           -3.159834781630     1.538339076763     0.244711873156     1.007825032230
         H           -3.266710781630     0.693963076763    -1.310945126844     1.007825032230

  Basis Set: AUG-CC-PVTZ
    Blend: AUG-CC-PVTZ
  Basis Set: (AUG-CC-PVTZ AUX)
    Blend: AUG-CC-PVTZ-JKFIT
	 Reference Energy          =    -384.0607247533365580 [Eh]
	 Singles Energy            =      -0.0000000000000000 [Eh]
	 Same-Spin Energy          =      -0.3850566488611720 [Eh]
	 Opposite-Spin Energy      =      -1.2887963099027102 [Eh]
	 Correlation Energy        =      -1.6738529587638822 [Eh]
	 Total Energy              =    -385.7345777121004176 [Eh]

	 ================> DF-SCS-MP2 Energies <==================
	-----------------------------------------------------------
	 SCS Same-Spin Scale       =       0.3333333333333333 [-]
	 SCS Opposite-Spin Scale   =       1.2000000000000000 [-]
	 SCS Same-Spin Energy      =      -0.1283522162870573 [Eh]
	 SCS Opposite-Spin Energy  =      -1.5465555718832522 [Eh]
	 SCS Correlation Energy    =      -1.6749077881703096 [Eh]
	 SCS Total Energy          =    -385.7356325415068454 [Eh]
	-----------------------------------------------------------

  Dipole Moment: [D]
     X:    -0.7748      Y:     1.5848      Z:    -0.5060     Total:     1.8351

*** Psi4 exiting successfully. Buy a developer a beer!
