                               Psi4 1.3.2 release

  ==> Input File <==

--------------------------------------------------------------------------
#psi4
#
memory 32 gb

molecule  {
0 1
  O       -0.8946000     0.3180840    -0.2486650
  O        0.2608140    -1.4535000     0.5764690
  C        1.4715421     0.5317858    -0.1740105
  C        1.8184670     1.3890190     0.7353960
  C        2.6165010    -0.5169580    -0.7250520
  C        0.2447430    -0.3668820     0.0213200
  C       -2.1092640    -0.3317960     0.1925940
  C       -3.2536250     0.5656790    -0.2140850
  H        1.1864410     1.0054960    -1.2820320
  H        2.6888660     1.9907190     0.4595330
  H        2.0609350     0.8310830     1.6444090
  H        0.9859800     2.0639750     0.9510040
  H        3.4951390     0.0579210    -1.0318300
  H        2.3532220    -1.2022810    -1.5348280
  H        2.8748910    -1.1153660     0.1513080
  H       -2.1714740    -1.3192040    -0.2711440
  H       -2.0606790    -0.4764550     1.2759150
  H       -4.2047000     0.1215880     0.0924120
  H       -3.1592540     1.5451910     0.2586100
  H       -3.2661300     0.7008150    -1.2970470
units angstrom
no_reorient  #important for SAPT in psi4, default
symmetry c1  #important for SAPT in psi4, default
}

set PROPERTIES_ORIGIN ["COM"]
properties('MP2/aug-cc-pvtz', properties = ['dipole'])
--------------------------------------------------------------------------

    Molecular point group: c1
  Charge       = 0
  Multiplicity = 1
  Basis Set: AUG-CC-PVTZ
    Blend: AUG-CC-PVTZ
  Basis Set: (AUG-CC-PVTZ AUX)
    Blend: AUG-CC-PVTZ-JKFIT

    Orbital Energies [Eh]
    ---------------------

    Doubly Occupied:

       1A    -20.600606     2A    -20.543499     3A    -11.377551
       4A    -11.287179     5A    -11.254624     6A    -11.224335
       7A    -11.222511     8A    -11.215007     9A     -1.451169
      10A     -1.350853    11A     -1.124683    12A     -1.038287
      13A     -0.944978    14A     -0.893762    15A     -0.823486
      16A     -0.758240    17A     -0.693618    18A     -0.679132
      19A     -0.665016    20A     -0.637410    21A     -0.609743
      22A     -0.581646    23A     -0.567909    24A     -0.552582
      25A     -0.544281    26A     -0.531093    27A     -0.512840
      28A     -0.508400    29A     -0.492646    30A     -0.457448
      31A     -0.426820    32A     -0.418078

  @DF-RHF Final Energy:  -384.01165197554832

   => Energetics <=

    Nuclear Repulsion Energy =            396.7276352150387879
    One-Electron Energy =               -1309.4997085867546502
    Two-Electron Energy =                 528.7604213961675441
    Total Energy =                       -384.0116519755482614
  Basis Set: (AUG-CC-PVTZ AUX)
    Blend: AUG-CC-PVTZ-RI
    Molecular point group: c1

    Geometry (in Angstrom), charge = 0, multiplicity = 1:

       Center              X                  Y                   Z               Mass
    ------------   -----------------  -----------------  -----------------  -----------------
         O           -0.895568112397     0.306664087763    -0.271828363269    15.994914619570
         O            0.259845887603    -1.464919912237     0.553305636731    15.994914619570
         C            1.470573987603     0.520365887763    -0.197173863269    12.000000000000
         C            1.817498887603     1.377599087763     0.712232636731    12.000000000000
         C            2.615532887603    -0.528377912237    -0.748215363269    12.000000000000
         C            0.243774887603    -0.378301912237    -0.001843363269    12.000000000000
         C           -2.110232112397    -0.343215912237     0.169430636731    12.000000000000
         C           -3.254593112397     0.554259087763    -0.237248363269    12.000000000000
         H            1.185472887603     0.994076087763    -1.305195363269     1.007825032230
         H            2.687897887603     1.979299087763     0.436369636731     1.007825032230
         H            2.059966887603     0.819663087763     1.621245636731     1.007825032230
         H            0.985011887603     2.052555087763     0.927840636731     1.007825032230
         H            3.494170887603     0.046501087763    -1.054993363269     1.007825032230
         H            2.352253887603    -1.213700912237    -1.557991363269     1.007825032230
         H            2.873922887603    -1.126785912237     0.128144636731     1.007825032230
         H           -2.172442112397    -1.330623912237    -0.294307363269     1.007825032230
         H           -2.061647112397    -0.487874912237     1.252751636731     1.007825032230
         H           -4.205668112397     0.110168087763     0.069248636731     1.007825032230
         H           -3.160222112397     1.533771087763     0.235446636731     1.007825032230
         H           -3.267098112397     0.689395087763    -1.320210363269     1.007825032230

  Basis Set: AUG-CC-PVTZ
    Blend: AUG-CC-PVTZ
  Basis Set: (AUG-CC-PVTZ AUX)
    Blend: AUG-CC-PVTZ-JKFIT
	 Reference Energy          =    -384.0116519755483182 [Eh]
	 Singles Energy            =      -0.0000000000000000 [Eh]
	 Same-Spin Energy          =      -0.3869064203352356 [Eh]
	 Opposite-Spin Energy      =      -1.2920471488849381 [Eh]
	 Correlation Energy        =      -1.6789535692201736 [Eh]
	 Total Energy              =    -385.6906055447685162 [Eh]

	 ================> DF-SCS-MP2 Energies <==================
	-----------------------------------------------------------
	 SCS Same-Spin Scale       =       0.3333333333333333 [-]
	 SCS Opposite-Spin Scale   =       1.2000000000000000 [-]
	 SCS Same-Spin Energy      =      -0.1289688067784119 [Eh]
	 SCS Opposite-Spin Energy  =      -1.5504565786619258 [Eh]
	 SCS Correlation Energy    =      -1.6794253854403376 [Eh]
	 SCS Total Energy          =    -385.6910773609886292 [Eh]
	-----------------------------------------------------------

  Dipole Moment: [D]
     X:    -0.8153      Y:     1.5923      Z:    -0.3928     Total:     1.8315

*** Psi4 exiting successfully. Buy a developer a beer!
