                               Psi4 1.3.2 release

  ==> Input File <==

--------------------------------------------------------------------------
#psi4
#
memory 32 gb

molecule  {
0 1
  O       -0.8946000     0.3180840    -0.2486650
  O        0.2608140    -1.4535000     0.5764690
  C        1.4640484     0.4434076    -0.3532677
  C        1.8184670     1.3890190     0.7353960
  C        2.6165010    -0.5169580    -0.7250520
  C        0.2447430    -0.3668820     0.0213200
  C       -2.1092640    -0.3317960     0.1925940
  C       -3.2536250     0.5656790    -0.2140850
  H        1.1864410     1.0054960    -1.2820320
  H        2.6888660     1.9907190     0.4595330
  H        2.0609350     0.8310830     1.6444090
  H        0.9859800     2.0639750     0.9510040
  H        3.4951390     0.0579210    -1.0318300
  H        2.3532220    -1.2022810    -1.5348280
  H        2.8748910    -1.1153660     0.1513080
  H       -2.1714740    -1.3192040    -0.2711440
  H       -2.0606790    -0.4764550     1.2759150
  H       -4.2047000     0.1215880     0.0924120
  H       -3.1592540     1.5451910     0.2586100
  H       -3.2661300     0.7008150    -1.2970470
units angstrom
no_reorient  #important for SAPT in psi4, default
symmetry c1  #important for SAPT in psi4, default
}

set PROPERTIES_ORIGIN ["COM"]
properties('MP2/aug-cc-pvtz', properties = ['dipole'])
--------------------------------------------------------------------------

    Molecular point group: c1
  Charge       = 0
  Multiplicity = 1
  Basis Set: AUG-CC-PVTZ
    Blend: AUG-CC-PVTZ
  Basis Set: (AUG-CC-PVTZ AUX)
    Blend: AUG-CC-PVTZ-JKFIT

    Orbital Energies [Eh]
    ---------------------

    Doubly Occupied:

       1A    -20.599721     2A    -20.540859     3A    -11.373786
       4A    -11.286637     5A    -11.246625     6A    -11.224884
       7A    -11.224051     8A    -11.218122     9A     -1.450193
      10A     -1.349303    11A     -1.097304    12A     -1.035100
      13A     -0.940893    14A     -0.895163    15A     -0.827536
      16A     -0.761061    17A     -0.697295    18A     -0.678053
      19A     -0.660909    20A     -0.622587    21A     -0.593024
      22A     -0.583218    23A     -0.555015    24A     -0.551220
      25A     -0.544574    26A     -0.519817    27A     -0.509376
      28A     -0.507330    29A     -0.489393    30A     -0.476819
      31A     -0.455185    32A     -0.435504

  @DF-RHF Final Energy:  -384.08302335142025

   => Energetics <=

    Nuclear Repulsion Energy =            395.9951262845111160
    One-Electron Energy =               -1308.2551851338205324
    Two-Electron Energy =                 528.1770354978891646
    Total Energy =                       -384.0830233514202519
  Basis Set: (AUG-CC-PVTZ AUX)
    Blend: AUG-CC-PVTZ-RI
    Molecular point group: c1

    Geometry (in Angstrom), charge = 0, multiplicity = 1:

       Center              X                  Y                   Z               Mass
    ------------   -----------------  -----------------  -----------------  -----------------
         O           -0.894793461200     0.315800065763    -0.253297890420    15.994914619570
         O            0.260620538800    -1.455783934237     0.571836109580    15.994914619570
         C            1.463854938800     0.441123665763    -0.357900590420    12.000000000000
         C            1.818273538800     1.386735065763     0.730763109580    12.000000000000
         C            2.616307538800    -0.519241934237    -0.729684890420    12.000000000000
         C            0.244549538800    -0.369165934237     0.016687109580    12.000000000000
         C           -2.109457461200    -0.334079934237     0.187961109580    12.000000000000
         C           -3.253818461200     0.563395065763    -0.218717890420    12.000000000000
         H            1.186247538800     1.003212065763    -1.286664890420     1.007825032230
         H            2.688672538800     1.988435065763     0.454900109580     1.007825032230
         H            2.060741538800     0.828799065763     1.639776109580     1.007825032230
         H            0.985786538800     2.061691065763     0.946371109580     1.007825032230
         H            3.494945538800     0.055637065763    -1.036462890420     1.007825032230
         H            2.353028538800    -1.204564934237    -1.539460890420     1.007825032230
         H            2.874697538800    -1.117649934237     0.146675109580     1.007825032230
         H           -2.171667461200    -1.321487934237    -0.275776890420     1.007825032230
         H           -2.060872461200    -0.478738934237     1.271282109580     1.007825032230
         H           -4.204893461200     0.119304065763     0.087779109580     1.007825032230
         H           -3.159447461200     1.542907065763     0.253977109580     1.007825032230
         H           -3.266323461200     0.698531065763    -1.301679890420     1.007825032230

  Basis Set: AUG-CC-PVTZ
    Blend: AUG-CC-PVTZ
  Basis Set: (AUG-CC-PVTZ AUX)
    Blend: AUG-CC-PVTZ-JKFIT
	 Reference Energy          =    -384.0830233514202519 [Eh]
	 Singles Energy            =      -0.0000000000000000 [Eh]
	 Same-Spin Energy          =      -0.3840671714290286 [Eh]
	 Opposite-Spin Energy      =      -1.2870080439430118 [Eh]
	 Correlation Energy        =      -1.6710752153720403 [Eh]
	 Total Energy              =    -385.7540985667922655 [Eh]

	 ================> DF-SCS-MP2 Energies <==================
	-----------------------------------------------------------
	 SCS Same-Spin Scale       =       0.3333333333333333 [-]
	 SCS Opposite-Spin Scale   =       1.2000000000000000 [-]
	 SCS Same-Spin Energy      =      -0.1280223904763428 [Eh]
	 SCS Opposite-Spin Energy  =      -1.5444096527316142 [Eh]
	 SCS Correlation Energy    =      -1.6724320432079571 [Eh]
	 SCS Total Energy          =    -385.7554553946281999 [Eh]
	-----------------------------------------------------------

  Dipole Moment: [D]
     X:    -0.7299      Y:     1.5897      Z:    -0.5803     Total:     1.8430

*** Psi4 exiting successfully. Buy a developer a beer!
