                               Psi4 1.3.2 release

  ==> Input File <==

--------------------------------------------------------------------------
#psi4
#
memory 32 gb

molecule  {
0 1
  O       -0.8946000     0.3180840    -0.2486650
  O        0.2608140    -1.4535000     0.5764690
  C        1.4659218     0.4655021    -0.3084534
  C        1.8184670     1.3890190     0.7353960
  C        2.6165010    -0.5169580    -0.7250520
  C        0.2447430    -0.3668820     0.0213200
  C       -2.1092640    -0.3317960     0.1925940
  C       -3.2536250     0.5656790    -0.2140850
  H        1.1864410     1.0054960    -1.2820320
  H        2.6888660     1.9907190     0.4595330
  H        2.0609350     0.8310830     1.6444090
  H        0.9859800     2.0639750     0.9510040
  H        3.4951390     0.0579210    -1.0318300
  H        2.3532220    -1.2022810    -1.5348280
  H        2.8748910    -1.1153660     0.1513080
  H       -2.1714740    -1.3192040    -0.2711440
  H       -2.0606790    -0.4764550     1.2759150
  H       -4.2047000     0.1215880     0.0924120
  H       -3.1592540     1.5451910     0.2586100
  H       -3.2661300     0.7008150    -1.2970470
units angstrom
no_reorient  #important for SAPT in psi4, default
symmetry c1  #important for SAPT in psi4, default
}

set PROPERTIES_ORIGIN ["COM"]
properties('MP2/aug-cc-pvtz', properties = ['dipole'])
--------------------------------------------------------------------------

    Molecular point group: c1
  Charge       = 0
  Multiplicity = 1
  Basis Set: AUG-CC-PVTZ
    Blend: AUG-CC-PVTZ
  Basis Set: (AUG-CC-PVTZ AUX)
    Blend: AUG-CC-PVTZ-JKFIT

    Orbital Energies [Eh]
    ---------------------

    Doubly Occupied:

       1A    -20.599972     2A    -20.541514     3A    -11.374322
       4A    -11.286761     5A    -11.248085     6A    -11.224125
       7A    -11.222439     8A    -11.219177     9A     -1.450471
      10A     -1.349692    11A     -1.101545    12A     -1.035742
      13A     -0.942365    14A     -0.895000    15A     -0.826645
      16A     -0.760330    17A     -0.695750    18A     -0.678259
      19A     -0.661155    20A     -0.625776    21A     -0.595869
      22A     -0.582788    23A     -0.556092    24A     -0.552460
      25A     -0.544607    26A     -0.521473    27A     -0.509699
      28A     -0.509143    29A     -0.493416    30A     -0.465176
      31A     -0.454124    32A     -0.434036

  @DF-RHF Final Energy:  -384.07483498188827

   => Energetics <=

    Nuclear Repulsion Energy =            396.1724250427316747
    One-Electron Energy =               -1308.5785068178402071
    Two-Electron Energy =                 528.3312467932203162
    Total Energy =                       -384.0748349818882161
  Basis Set: (AUG-CC-PVTZ AUX)
    Blend: AUG-CC-PVTZ-RI
    Molecular point group: c1

    Geometry (in Angstrom), charge = 0, multiplicity = 1:

       Center              X                  Y                   Z               Mass
    ------------   -----------------  -----------------  -----------------  -----------------
         O           -0.894987121415     0.313516076432    -0.257930508632    15.994914619570
         O            0.260426878585    -1.458067923568     0.567203491368    15.994914619570
         C            1.465534678585     0.460934176432    -0.317718908632    12.000000000000
         C            1.818079878585     1.384451076432     0.726130491368    12.000000000000
         C            2.616113878585    -0.521525923568    -0.734317508632    12.000000000000
         C            0.244355878585    -0.371449923568     0.012054491368    12.000000000000
         C           -2.109651121415    -0.336363923568     0.183328491368    12.000000000000
         C           -3.254012121415     0.561111076432    -0.223350508632    12.000000000000
         H            1.186053878585     1.000928076432    -1.291297508632     1.007825032230
         H            2.688478878585     1.986151076432     0.450267491368     1.007825032230
         H            2.060547878585     0.826515076432     1.635143491368     1.007825032230
         H            0.985592878585     2.059407076432     0.941738491368     1.007825032230
         H            3.494751878585     0.053353076432    -1.041095508632     1.007825032230
         H            2.352834878585    -1.206848923568    -1.544093508632     1.007825032230
         H            2.874503878585    -1.119933923568     0.142042491368     1.007825032230
         H           -2.171861121415    -1.323771923568    -0.280409508632     1.007825032230
         H           -2.061066121415    -0.481022923568     1.266649491368     1.007825032230
         H           -4.205087121415     0.117020076432     0.083146491368     1.007825032230
         H           -3.159641121415     1.540623076432     0.249344491368     1.007825032230
         H           -3.266517121415     0.696247076432    -1.306312508632     1.007825032230

  Basis Set: AUG-CC-PVTZ
    Blend: AUG-CC-PVTZ
  Basis Set: (AUG-CC-PVTZ AUX)
    Blend: AUG-CC-PVTZ-JKFIT
	 Reference Energy          =    -384.0748349818882730 [Eh]
	 Singles Energy            =      -0.0000000000000000 [Eh]
	 Same-Spin Energy          =      -0.3844619248110584 [Eh]
	 Opposite-Spin Energy      =      -1.2877246333553038 [Eh]
	 Correlation Energy        =      -1.6721865581663622 [Eh]
	 Total Energy              =    -385.7470215400546181 [Eh]

	 ================> DF-SCS-MP2 Energies <==================
	-----------------------------------------------------------
	 SCS Same-Spin Scale       =       0.3333333333333333 [-]
	 SCS Opposite-Spin Scale   =       1.2000000000000000 [-]
	 SCS Same-Spin Energy      =      -0.1281539749370195 [Eh]
	 SCS Opposite-Spin Energy  =      -1.5452695600263646 [Eh]
	 SCS Correlation Energy    =      -1.6734235349633841 [Eh]
	 SCS Total Energy          =    -385.7482585168516493 [Eh]
	-----------------------------------------------------------

  Dipole Moment: [D]
     X:    -0.7531      Y:     1.5863      Z:    -0.5468     Total:     1.8391

*** Psi4 exiting successfully. Buy a developer a beer!
