                               Psi4 1.3.2 release

  ==> Input File <==

--------------------------------------------------------------------------
#psi4
#
memory 32 gb

molecule  {
0 1
  C        0.7863980     0.0000030     0.0000120
  C       -0.7777834    -0.0263401    -0.1622523
  C        1.3524290    -1.3355510    -0.5066990
  C        1.3524640     1.1065670    -0.9032830
  C        1.3525400     0.2289610     1.4099520
  C       -1.3524910    -1.1062660     0.9036570
  C       -1.3524520    -0.2294520    -1.4098630
  C       -1.3524900     1.3357370     0.5062260
  H        1.0503260    -1.5480580    -1.5357290
  H        2.4470620    -1.2938500    -0.4906500
  H        1.0499830    -2.1772130     0.1221590
  H        1.0504580     2.1040080    -0.5727870
  H        1.0499540     0.9828170    -1.9465980
  H        2.4470950     1.0717320    -0.8752540
  H        1.0505330    -0.5559650     2.1085260
  H        2.4471690     0.2220440     1.3657150
  H        1.0501100     1.1943870     1.8244580
  H       -2.4471220    -1.0718850     0.8750370
  H       -1.0505830    -0.9818080     1.9470560
  H       -1.0499150    -2.1037750     0.5738810
  H       -1.0500140     0.5549800    -2.1088100
  H       -1.0503580    -1.1952220    -1.8238120
  H       -2.4470840    -0.2220600    -1.3657770
  H       -1.0503710     2.1771240    -0.1231520
  H       -2.4471210     1.2938540     0.4905180
  H       -1.0501240     1.5488250     1.5350580
units angstrom
no_reorient  #important for SAPT in psi4, default
symmetry c1  #important for SAPT in psi4, default
}

set PROPERTIES_ORIGIN ["COM"]
properties('MP2/aug-cc-pvtz', properties = ['dipole'])
--------------------------------------------------------------------------

    Molecular point group: c1
  Charge       = 0
  Multiplicity = 1
  Basis Set: AUG-CC-PVTZ
    Blend: AUG-CC-PVTZ
  Basis Set: (AUG-CC-PVTZ AUX)
    Blend: AUG-CC-PVTZ-JKFIT

    Orbital Energies [Eh]
    ---------------------

    Doubly Occupied:

       1A    -11.233042     2A    -11.232121     3A    -11.208970
       4A    -11.206651     5A    -11.206639     6A    -11.204623
       7A    -11.204606     8A    -11.202887     9A     -1.129449
      10A     -1.044970    11A     -0.943840    12A     -0.934146
      13A     -0.914980    14A     -0.902581    15A     -0.804800
      16A     -0.692899    17A     -0.649209    18A     -0.608458
      19A     -0.603175    20A     -0.597141    21A     -0.587678
      22A     -0.554857    23A     -0.529273    24A     -0.528989
      25A     -0.526943    26A     -0.516246    27A     -0.504586
      28A     -0.497544    29A     -0.490254    30A     -0.470065
      31A     -0.456757    32A     -0.410143    33A     -0.399921

  @DF-RHF Final Energy:  -313.49935852792743

   => Energetics <=

    Nuclear Repulsion Energy =            437.9812820458187161
    One-Electron Energy =               -1290.9643974195869305
    Two-Electron Energy =                 539.4837568458408441
    Total Energy =                       -313.4993585279273702
  Basis Set: (AUG-CC-PVTZ AUX)
    Blend: AUG-CC-PVTZ-RI
    Molecular point group: c1

    Geometry (in Angstrom), charge = 0, multiplicity = 1:

       Center              X                  Y                   Z               Mass
    ------------   -----------------  -----------------  -----------------  -----------------
         C            0.785492336657     0.002772899707     0.017071324947    12.000000000000
         C           -0.778689063343    -0.023570200293    -0.145192975053    12.000000000000
         C            1.351523336657    -1.332781100293    -0.489639675053    12.000000000000
         C            1.351558336657     1.109336899707    -0.886223675053    12.000000000000
         C            1.351634336657     0.231730899707     1.427011324947    12.000000000000
         C           -1.353396663343    -1.103496100293     0.920716324947    12.000000000000
         C           -1.353357663343    -0.226682100293    -1.392803675053    12.000000000000
         C           -1.353395663343     1.338506899707     0.523285324947    12.000000000000
         H            1.049420336657    -1.545288100293    -1.518669675053     1.007825032230
         H            2.446156336657    -1.291080100293    -0.473590675053     1.007825032230
         H            1.049077336657    -2.174443100293     0.139218324947     1.007825032230
         H            1.049552336657     2.106777899707    -0.555727675053     1.007825032230
         H            1.049048336657     0.985586899707    -1.929538675053     1.007825032230
         H            2.446189336657     1.074501899707    -0.858194675053     1.007825032230
         H            1.049627336657    -0.553195100293     2.125585324947     1.007825032230
         H            2.446263336657     0.224813899707     1.382774324947     1.007825032230
         H            1.049204336657     1.197156899707     1.841517324947     1.007825032230
         H           -2.448027663343    -1.069115100293     0.892096324947     1.007825032230
         H           -1.051488663343    -0.979038100293     1.964115324947     1.007825032230
         H           -1.050820663343    -2.101005100293     0.590940324947     1.007825032230
         H           -1.050919663343     0.557749899707    -2.091750675053     1.007825032230
         H           -1.051263663343    -1.192452100293    -1.806752675053     1.007825032230
         H           -2.447989663343    -0.219290100293    -1.348717675053     1.007825032230
         H           -1.051276663343     2.179893899707    -0.106092675053     1.007825032230
         H           -2.448026663343     1.296623899707     0.507577324947     1.007825032230
         H           -1.051029663343     1.551594899707     1.552117324947     1.007825032230

  Basis Set: AUG-CC-PVTZ
    Blend: AUG-CC-PVTZ
  Basis Set: (AUG-CC-PVTZ AUX)
    Blend: AUG-CC-PVTZ-JKFIT
	 Reference Energy          =    -313.4993585279274271 [Eh]
	 Singles Energy            =      -0.0000000000000000 [Eh]
	 Same-Spin Energy          =      -0.3489638313373226 [Eh]
	 Opposite-Spin Energy      =      -1.2748450199962360 [Eh]
	 Correlation Energy        =      -1.6238088513335587 [Eh]
	 Total Energy              =    -315.1231673792609627 [Eh]

	 ================> DF-SCS-MP2 Energies <==================
	-----------------------------------------------------------
	 SCS Same-Spin Scale       =       0.3333333333333333 [-]
	 SCS Opposite-Spin Scale   =       1.2000000000000000 [-]
	 SCS Same-Spin Energy      =      -0.1163212771124408 [Eh]
	 SCS Opposite-Spin Energy  =      -1.5298140239954832 [Eh]
	 SCS Correlation Energy    =      -1.6461353011079241 [Eh]
	 SCS Total Energy          =    -315.1454938290353311 [Eh]
	-----------------------------------------------------------

  Dipole Moment: [D]
     X:     0.0303      Y:    -0.0087      Z:    -0.0538     Total:     0.0623

*** Psi4 exiting successfully. Buy a developer a beer!
