                               Psi4 1.3.2 release

  ==> Input File <==

--------------------------------------------------------------------------
#psi4
#
memory 32 gb

molecule  {
0 1
  C        0.8107955     0.0449760    -0.0160675
  C       -0.7863980     0.0000120     0.0000240
  C        1.3524290    -1.3355510    -0.5066990
  C        1.3524640     1.1065670    -0.9032830
  C        1.3525400     0.2289610     1.4099520
  C       -1.3524910    -1.1062660     0.9036570
  C       -1.3524520    -0.2294520    -1.4098630
  C       -1.3524900     1.3357370     0.5062260
  H        1.0503260    -1.5480580    -1.5357290
  H        2.4470620    -1.2938500    -0.4906500
  H        1.0499830    -2.1772130     0.1221590
  H        1.0504580     2.1040080    -0.5727870
  H        1.0499540     0.9828170    -1.9465980
  H        2.4470950     1.0717320    -0.8752540
  H        1.0505330    -0.5559650     2.1085260
  H        2.4471690     0.2220440     1.3657150
  H        1.0501100     1.1943870     1.8244580
  H       -2.4471220    -1.0718850     0.8750370
  H       -1.0505830    -0.9818080     1.9470560
  H       -1.0499150    -2.1037750     0.5738810
  H       -1.0500140     0.5549800    -2.1088100
  H       -1.0503580    -1.1952220    -1.8238120
  H       -2.4470840    -0.2220600    -1.3657770
  H       -1.0503710     2.1771240    -0.1231520
  H       -2.4471210     1.2938540     0.4905180
  H       -1.0501240     1.5488250     1.5350580
units angstrom
no_reorient  #important for SAPT in psi4, default
symmetry c1  #important for SAPT in psi4, default
}

set PROPERTIES_ORIGIN ["COM"]
properties('MP2/aug-cc-pvtz', properties = ['dipole'])
--------------------------------------------------------------------------

    Molecular point group: c1
  Charge       = 0
  Multiplicity = 1
  Basis Set: AUG-CC-PVTZ
    Blend: AUG-CC-PVTZ
  Basis Set: (AUG-CC-PVTZ AUX)
    Blend: AUG-CC-PVTZ-JKFIT

    Orbital Energies [Eh]
    ---------------------

    Doubly Occupied:

       1A    -11.230939     2A    -11.230259     3A    -11.206036
       4A    -11.205719     5A    -11.205650     6A    -11.205118
       7A    -11.204881     8A    -11.204685     9A     -1.124694
      10A     -1.041380    11A     -0.941235    12A     -0.937256
      13A     -0.911916    14A     -0.908362    15A     -0.799999
      16A     -0.692346    17A     -0.648690    18A     -0.602299
      19A     -0.600232    20A     -0.596270    21A     -0.594045
      22A     -0.553572    23A     -0.528686    24A     -0.528321
      25A     -0.527840    26A     -0.509045    27A     -0.506439
      28A     -0.490230    29A     -0.487458    30A     -0.476475
      31A     -0.441752    32A     -0.428769    33A     -0.415395

  @DF-RHF Final Energy:  -313.52581315202508

   => Energetics <=

    Nuclear Repulsion Energy =            437.7819632768594715
    One-Electron Energy =               -1290.6435695707104969
    Two-Electron Energy =                 539.3357931418260023
    Total Energy =                       -313.5258131520250799
  Basis Set: (AUG-CC-PVTZ AUX)
    Blend: AUG-CC-PVTZ-RI
    Molecular point group: c1

    Geometry (in Angstrom), charge = 0, multiplicity = 1:

       Center              X                  Y                   Z               Mass
    ------------   -----------------  -----------------  -----------------  -----------------
         C            0.808230528889     0.040247259250    -0.014378321596    12.000000000000
         C           -0.788962971111    -0.004716740750     0.001713178404    12.000000000000
         C            1.349864028889    -1.340279740750    -0.505009821596    12.000000000000
         C            1.349899028889     1.101838259250    -0.901593821596    12.000000000000
         C            1.349975028889     0.224232259250     1.411641178404    12.000000000000
         C           -1.355055971111    -1.110994740750     0.905346178404    12.000000000000
         C           -1.355016971111    -0.234180740750    -1.408173821596    12.000000000000
         C           -1.355054971111     1.331008259250     0.507915178404    12.000000000000
         H            1.047761028889    -1.552786740750    -1.534039821596     1.007825032230
         H            2.444497028889    -1.298578740750    -0.488960821596     1.007825032230
         H            1.047418028889    -2.181941740750     0.123848178404     1.007825032230
         H            1.047893028889     2.099279259250    -0.571097821596     1.007825032230
         H            1.047389028889     0.978088259250    -1.944908821596     1.007825032230
         H            2.444530028889     1.067003259250    -0.873564821596     1.007825032230
         H            1.047968028889    -0.560693740750     2.110215178404     1.007825032230
         H            2.444604028889     0.217315259250     1.367404178404     1.007825032230
         H            1.047545028889     1.189658259250     1.826147178404     1.007825032230
         H           -2.449686971111    -1.076613740750     0.876726178404     1.007825032230
         H           -1.053147971111    -0.986536740750     1.948745178404     1.007825032230
         H           -1.052479971111    -2.108503740750     0.575570178404     1.007825032230
         H           -1.052578971111     0.550251259250    -2.107120821596     1.007825032230
         H           -1.052922971111    -1.199950740750    -1.822122821596     1.007825032230
         H           -2.449648971111    -0.226788740750    -1.364087821596     1.007825032230
         H           -1.052935971111     2.172395259250    -0.121462821596     1.007825032230
         H           -2.449685971111     1.289125259250     0.492207178404     1.007825032230
         H           -1.052688971111     1.544096259250     1.536747178404     1.007825032230

  Basis Set: AUG-CC-PVTZ
    Blend: AUG-CC-PVTZ
  Basis Set: (AUG-CC-PVTZ AUX)
    Blend: AUG-CC-PVTZ-JKFIT
	 Reference Energy          =    -313.5258131520250799 [Eh]
	 Singles Energy            =      -0.0000000000000000 [Eh]
	 Same-Spin Energy          =      -0.3478489297712763 [Eh]
	 Opposite-Spin Energy      =      -1.2726446857873805 [Eh]
	 Correlation Energy        =      -1.6204936155586569 [Eh]
	 Total Energy              =    -315.1463067675837237 [Eh]

	 ================> DF-SCS-MP2 Energies <==================
	-----------------------------------------------------------
	 SCS Same-Spin Scale       =       0.3333333333333333 [-]
	 SCS Opposite-Spin Scale   =       1.2000000000000000 [-]
	 SCS Same-Spin Energy      =      -0.1159496432570921 [Eh]
	 SCS Opposite-Spin Energy  =      -1.5271736229448567 [Eh]
	 SCS Correlation Energy    =      -1.6431232662019488 [Eh]
	 SCS Total Energy          =    -315.1689364182270197 [Eh]
	-----------------------------------------------------------

  Dipole Moment: [D]
     X:     0.0126      Y:     0.0151      Z:    -0.0046     Total:     0.0202

*** Psi4 exiting successfully. Buy a developer a beer!
