                               Psi4 1.3.2 release

  ==> Input File <==

--------------------------------------------------------------------------
#psi4
#
memory 32 gb

molecule  {
0 1
  C        0.7863980     0.0000030     0.0000120
  C       -0.7863980     0.0000120     0.0000240
  C        1.3657540    -1.3383975    -0.4836018
  C        1.3524640     1.1065670    -0.9032830
  C        1.3525400     0.2289610     1.4099520
  C       -1.3524910    -1.1062660     0.9036570
  C       -1.3524520    -0.2294520    -1.4098630
  C       -1.3524900     1.3357370     0.5062260
  H        1.0503260    -1.5480580    -1.5357290
  H        2.4470620    -1.2938500    -0.4906500
  H        1.0499830    -2.1772130     0.1221590
  H        1.0504580     2.1040080    -0.5727870
  H        1.0499540     0.9828170    -1.9465980
  H        2.4470950     1.0717320    -0.8752540
  H        1.0505330    -0.5559650     2.1085260
  H        2.4471690     0.2220440     1.3657150
  H        1.0501100     1.1943870     1.8244580
  H       -2.4471220    -1.0718850     0.8750370
  H       -1.0505830    -0.9818080     1.9470560
  H       -1.0499150    -2.1037750     0.5738810
  H       -1.0500140     0.5549800    -2.1088100
  H       -1.0503580    -1.1952220    -1.8238120
  H       -2.4470840    -0.2220600    -1.3657770
  H       -1.0503710     2.1771240    -0.1231520
  H       -2.4471210     1.2938540     0.4905180
  H       -1.0501240     1.5488250     1.5350580
units angstrom
no_reorient  #important for SAPT in psi4, default
symmetry c1  #important for SAPT in psi4, default
}

set PROPERTIES_ORIGIN ["COM"]
properties('MP2/aug-cc-pvtz', properties = ['dipole'])
--------------------------------------------------------------------------

    Molecular point group: c1
  Charge       = 0
  Multiplicity = 1
  Basis Set: AUG-CC-PVTZ
    Blend: AUG-CC-PVTZ
  Basis Set: (AUG-CC-PVTZ AUX)
    Blend: AUG-CC-PVTZ-JKFIT

    Orbital Energies [Eh]
    ---------------------

    Doubly Occupied:

       1A    -11.230797     2A    -11.230204     3A    -11.205754
       4A    -11.205738     5A    -11.205694     6A    -11.205576
       7A    -11.205419     8A    -11.205112     9A     -1.125501
      10A     -1.039434    11A     -0.939240    12A     -0.938092
      13A     -0.909883    14A     -0.909188    15A     -0.804849
      16A     -0.691261    17A     -0.648060    18A     -0.601540
      19A     -0.600611    20A     -0.595242    21A     -0.593650
      22A     -0.554360    23A     -0.530153    24A     -0.528121
      25A     -0.526119    26A     -0.509548    27A     -0.507502
      28A     -0.489251    29A     -0.481906    30A     -0.478768
      31A     -0.433409    32A     -0.430360    33A     -0.426331

  @DF-RHF Final Energy:  -313.52794887378388

   => Energetics <=

    Nuclear Repulsion Energy =            437.8822447643839268
    One-Electron Energy =               -1290.8470457845755845
    Two-Electron Energy =                 539.4368521464077730
    Total Energy =                       -313.5279488737838847
  Basis Set: (AUG-CC-PVTZ AUX)
    Blend: AUG-CC-PVTZ-RI
    Molecular point group: c1

    Geometry (in Angstrom), charge = 0, multiplicity = 1:

       Center              X                  Y                   Z               Mass
    ------------   -----------------  -----------------  -----------------  -----------------
         C            0.784997116937     0.000301679294    -0.002417595879    12.000000000000
         C           -0.787798883063     0.000310679294    -0.002405595879    12.000000000000
         C            1.364353116937    -1.338098820706    -0.486031395879    12.000000000000
         C            1.351063116937     1.106865679294    -0.905712595879    12.000000000000
         C            1.351139116937     0.229259679294     1.407522404121    12.000000000000
         C           -1.353891883063    -1.105967320706     0.901227404121    12.000000000000
         C           -1.353852883063    -0.229153320706    -1.412292595879    12.000000000000
         C           -1.353890883063     1.336035679294     0.503796404121    12.000000000000
         H            1.048925116937    -1.547759320706    -1.538158595879     1.007825032230
         H            2.445661116937    -1.293551320706    -0.493079595879     1.007825032230
         H            1.048582116937    -2.176914320706     0.119729404121     1.007825032230
         H            1.049057116937     2.104306679294    -0.575216595879     1.007825032230
         H            1.048553116937     0.983115679294    -1.949027595879     1.007825032230
         H            2.445694116937     1.072030679294    -0.877683595879     1.007825032230
         H            1.049132116937    -0.555666320706     2.106096404121     1.007825032230
         H            2.445768116937     0.222342679294     1.363285404121     1.007825032230
         H            1.048709116937     1.194685679294     1.822028404121     1.007825032230
         H           -2.448522883063    -1.071586320706     0.872607404121     1.007825032230
         H           -1.051983883063    -0.981509320706     1.944626404121     1.007825032230
         H           -1.051315883063    -2.103476320706     0.571451404121     1.007825032230
         H           -1.051414883063     0.555278679294    -2.111239595879     1.007825032230
         H           -1.051758883063    -1.194923320706    -1.826241595879     1.007825032230
         H           -2.448484883063    -0.221761320706    -1.368206595879     1.007825032230
         H           -1.051771883063     2.177422679294    -0.125581595879     1.007825032230
         H           -2.448521883063     1.294152679294     0.488088404121     1.007825032230
         H           -1.051524883063     1.549123679294     1.532628404121     1.007825032230

  Basis Set: AUG-CC-PVTZ
    Blend: AUG-CC-PVTZ
  Basis Set: (AUG-CC-PVTZ AUX)
    Blend: AUG-CC-PVTZ-JKFIT
	 Reference Energy          =    -313.5279488737838847 [Eh]
	 Singles Energy            =      -0.0000000000000000 [Eh]
	 Same-Spin Energy          =      -0.3476776540989354 [Eh]
	 Opposite-Spin Energy      =      -1.2724763162769768 [Eh]
	 Correlation Energy        =      -1.6201539703759122 [Eh]
	 Total Energy              =    -315.1481028441597800 [Eh]

	 ================> DF-SCS-MP2 Energies <==================
	-----------------------------------------------------------
	 SCS Same-Spin Scale       =       0.3333333333333333 [-]
	 SCS Opposite-Spin Scale   =       1.2000000000000000 [-]
	 SCS Same-Spin Energy      =      -0.1158925513663118 [Eh]
	 SCS Opposite-Spin Energy  =      -1.5269715795323722 [Eh]
	 SCS Correlation Energy    =      -1.6428641308986840 [Eh]
	 SCS Total Energy          =    -315.1708130046825431 [Eh]
	-----------------------------------------------------------

  Dipole Moment: [D]
     X:     0.0001      Y:     0.0013      Z:     0.0076     Total:     0.0077

*** Psi4 exiting successfully. Buy a developer a beer!
