                               Psi4 1.4a3.dev225

  ==> Input File <==

--------------------------------------------------------------------------
#psi4
#
memory 32 gb

molecule  {
0 1
  C       -0.7850910     0.0000000     0.0000000
  C        0.7850910    -0.0000010    -0.0000010
  C       -1.3439760    -0.4944350    -1.3423090
  C       -1.3439740    -0.9152570     1.0993500
  C       -1.3366939     1.3913360     0.2397980
  C        1.3439730     1.1443700    -0.8583020
  C        1.3439730    -1.3154970    -0.5619030
  C        1.3439760     0.1711260     1.4202020
  H       -1.1416160    -1.5573230    -1.5000190
  H       -2.4313800    -0.3612870    -1.3560980
  H       -0.9341760     0.0624770    -2.1904460
  H       -1.1416360    -0.5203790     2.0986910
  H       -0.9341530    -1.9282130     1.0411340
  H       -2.4313740    -0.9937940     0.9909190
  H       -1.1416250     2.0777130    -0.5986780
  H       -2.4313730     1.3550610     0.3651840
  H       -0.9341560     1.8657500     1.1493220
  H        2.4313750     1.0400720    -0.9422290
  H        1.1416220     2.1223900    -0.4132370
  H        0.9341610     1.1376140    -1.8729120
  H        0.9341510    -2.1907970    -0.0487560
  H        1.1416360    -1.4190650    -1.6314290
  H        2.4313730    -1.3360370    -0.4296020
  H        1.1416200    -0.7033180     2.0446640
  H        2.4313790     0.2959480     1.3718390
  H        0.9341720     1.0531860     1.9216540
units angstrom
no_reorient  #important for SAPT in psi4, default
symmetry c1  #important for SAPT in psi4, default
}

set PROPERTIES_ORIGIN ["COM"]
properties('MP2/aug-cc-pvtz', properties = ['dipole'])
--------------------------------------------------------------------------

    Molecular point group: c1
  Charge       = 0
  Multiplicity = 1
  Basis Set: AUG-CC-PVTZ
    Blend: AUG-CC-PVTZ
  Basis Set: (AUG-CC-PVTZ AUX)
    Blend: AUG-CC-PVTZ-JKFIT

    Orbital Energies [Eh]
    ---------------------

    Doubly Occupied:

       1A    -11.229747     2A    -11.228568     3A    -11.206986
       4A    -11.205971     5A    -11.205953     6A    -11.205920
       7A    -11.205881     8A    -11.205858     9A     -1.128105
      10A     -1.039406    11A     -0.940420    12A     -0.940241
      13A     -0.908772    14A     -0.908234    15A     -0.804505
      16A     -0.691478    17A     -0.648377    18A     -0.606505
      19A     -0.605911    20A     -0.589540    21A     -0.588924
      22A     -0.551219    23A     -0.531169    24A     -0.530211
      25A     -0.520080    26A     -0.508271    27A     -0.506922
      28A     -0.495303    29A     -0.483470    30A     -0.480808
      31A     -0.433856    32A     -0.431026    33A     -0.424481

  @DF-RHF Final Energy:  -313.52875625222214

   => Energetics <=

    Nuclear Repulsion Energy =            438.9434408311430502
    One-Electron Energy =               -1292.9601515924398427
    Two-Electron Energy =                 540.4879545090745978
    Total Energy =                       -313.5287562522221378
  Basis Set: (AUG-CC-PVTZ AUX)
    Blend: AUG-CC-PVTZ-RI
    Molecular point group: c1

    Geometry (in Angstrom), charge = 0, multiplicity = 1:

       Center              X                  Y                   Z               Mass
    ------------   -----------------  -----------------  -----------------  -----------------
         C           -0.785856170397     0.001930054091     0.000332737946    12.000000000000
         C            0.784325829603     0.001929054091     0.000331737946    12.000000000000
         C           -1.344741170397    -0.492504945909    -1.341976262054    12.000000000000
         C           -1.344739170397    -0.913326945909     1.099682737946    12.000000000000
         C           -1.337459070397     1.393266054091     0.240130737946    12.000000000000
         C            1.343207829603     1.146300054091    -0.857969262054    12.000000000000
         C            1.343207829603    -1.313566945909    -0.561570262054    12.000000000000
         C            1.343210829603     0.173056054091     1.420534737946    12.000000000000
         H           -1.142381170397    -1.555392945909    -1.499686262054     1.007825032230
         H           -2.432145170397    -0.359356945909    -1.355765262054     1.007825032230
         H           -0.934941170397     0.064407054091    -2.190113262054     1.007825032230
         H           -1.142401170397    -0.518448945909     2.099023737946     1.007825032230
         H           -0.934918170397    -1.926282945909     1.041466737946     1.007825032230
         H           -2.432139170397    -0.991863945909     0.991251737946     1.007825032230
         H           -1.142390170397     2.079643054091    -0.598345262054     1.007825032230
         H           -2.432138170397     1.356991054091     0.365516737946     1.007825032230
         H           -0.934921170397     1.867680054091     1.149654737946     1.007825032230
         H            2.430609829603     1.042002054091    -0.941896262054     1.007825032230
         H            1.140856829603     2.124320054091    -0.412904262054     1.007825032230
         H            0.933395829603     1.139544054091    -1.872579262054     1.007825032230
         H            0.933385829603    -2.188866945909    -0.048423262054     1.007825032230
         H            1.140870829603    -1.417134945909    -1.631096262054     1.007825032230
         H            2.430607829603    -1.334106945909    -0.429269262054     1.007825032230
         H            1.140854829603    -0.701387945909     2.044996737946     1.007825032230
         H            2.430613829603     0.297878054091     1.372171737946     1.007825032230
         H            0.933406829603     1.055116054091     1.921986737946     1.007825032230

  Basis Set: AUG-CC-PVTZ
    Blend: AUG-CC-PVTZ
  Basis Set: (AUG-CC-PVTZ AUX)
    Blend: AUG-CC-PVTZ-JKFIT
	 Reference Energy          =    -313.5287562522221378 [Eh]
	 Singles Energy            =      -0.0000000000000000 [Eh]
	 Same-Spin Energy          =      -0.3479471012637763 [Eh]
	 Opposite-Spin Energy      =      -1.2733140492368049 [Eh]
	 Correlation Energy        =      -1.6212611505005812 [Eh]
	 Total Energy              =    -315.1500174027227104 [Eh]

	 ================> DF-SCS-MP2 Energies <==================
	-----------------------------------------------------------
	 SCS Same-Spin Scale       =       0.3333333333333333 [-]
	 SCS Opposite-Spin Scale   =       1.2000000000000000 [-]
	 SCS Same-Spin Energy      =      -0.1159823670879254 [Eh]
	 SCS Opposite-Spin Energy  =      -1.5279768590841658 [Eh]
	 SCS Correlation Energy    =      -1.6439592261720912 [Eh]
	 SCS Total Energy          =    -315.1727154783942524 [Eh]
	-----------------------------------------------------------

  Dipole Moment: [D]
     X:    -0.0018      Y:     0.0033      Z:     0.0003     Total:     0.0038

*** Psi4 exiting successfully. Buy a developer a beer!
