                               Psi4 1.3.2 release

  ==> Input File <==

--------------------------------------------------------------------------
#psi4
#
memory 32 gb

molecule  {
0 1
  C        0.8358530     0.0901731    -0.0304097
  C       -0.7863980     0.0000120     0.0000240
  C        1.3524290    -1.3355510    -0.5066990
  C        1.3524640     1.1065670    -0.9032830
  C        1.3525400     0.2289610     1.4099520
  C       -1.3524910    -1.1062660     0.9036570
  C       -1.3524520    -0.2294520    -1.4098630
  C       -1.3524900     1.3357370     0.5062260
  H        1.0503260    -1.5480580    -1.5357290
  H        2.4470620    -1.2938500    -0.4906500
  H        1.0499830    -2.1772130     0.1221590
  H        1.0504580     2.1040080    -0.5727870
  H        1.0499540     0.9828170    -1.9465980
  H        2.4470950     1.0717320    -0.8752540
  H        1.0505330    -0.5559650     2.1085260
  H        2.4471690     0.2220440     1.3657150
  H        1.0501100     1.1943870     1.8244580
  H       -2.4471220    -1.0718850     0.8750370
  H       -1.0505830    -0.9818080     1.9470560
  H       -1.0499150    -2.1037750     0.5738810
  H       -1.0500140     0.5549800    -2.1088100
  H       -1.0503580    -1.1952220    -1.8238120
  H       -2.4470840    -0.2220600    -1.3657770
  H       -1.0503710     2.1771240    -0.1231520
  H       -2.4471210     1.2938540     0.4905180
  H       -1.0501240     1.5488250     1.5350580
units angstrom
no_reorient  #important for SAPT in psi4, default
symmetry c1  #important for SAPT in psi4, default
}

set PROPERTIES_ORIGIN ["COM"]
properties('MP2/aug-cc-pvtz', properties = ['dipole'])
--------------------------------------------------------------------------

    Molecular point group: c1
  Charge       = 0
  Multiplicity = 1
  Basis Set: AUG-CC-PVTZ
    Blend: AUG-CC-PVTZ
  Basis Set: (AUG-CC-PVTZ AUX)
    Blend: AUG-CC-PVTZ-JKFIT

    Orbital Energies [Eh]
    ---------------------

    Doubly Occupied:

       1A    -11.231513     2A    -11.230774     3A    -11.206589
       4A    -11.206150     5A    -11.206016     6A    -11.204764
       7A    -11.203910     8A    -11.203891     9A     -1.124838
      10A     -1.044510    11A     -0.944154    12A     -0.935767
      13A     -0.913978    14A     -0.907219    15A     -0.795256
      16A     -0.693902    17A     -0.649838    18A     -0.605737
      19A     -0.599751    20A     -0.595928    21A     -0.593100
      22A     -0.554005    23A     -0.529415    24A     -0.528692
      25A     -0.527878    26A     -0.511358    27A     -0.505534
      28A     -0.495727    29A     -0.490156    30A     -0.472108
      31A     -0.448094    32A     -0.424519    33A     -0.403679

  @DF-RHF Final Energy:  -313.51672436876635

   => Energetics <=

    Nuclear Repulsion Energy =            437.6309683124313779
    One-Electron Energy =               -1290.3178870693948284
    Two-Electron Energy =                 539.1701943881971602
    Total Energy =                       -313.5167243687662904
  Basis Set: (AUG-CC-PVTZ AUX)
    Blend: AUG-CC-PVTZ-RI
    Molecular point group: c1

    Geometry (in Angstrom), charge = 0, multiplicity = 1:

       Center              X                  Y                   Z               Mass
    ------------   -----------------  -----------------  -----------------  -----------------
         C            0.830653652165     0.080692640674    -0.027212679319    12.000000000000
         C           -0.791597347835    -0.009468459326     0.003221020681    12.000000000000
         C            1.347229652165    -1.345031459326    -0.503501979319    12.000000000000
         C            1.347264652165     1.097086540674    -0.900085979319    12.000000000000
         C            1.347340652165     0.219480540674     1.413149020681    12.000000000000
         C           -1.357690347835    -1.115746459326     0.906854020681    12.000000000000
         C           -1.357651347835    -0.238932459326    -1.406665979319    12.000000000000
         C           -1.357689347835     1.326256540674     0.509423020681    12.000000000000
         H            1.045126652165    -1.557538459326    -1.532531979319     1.007825032230
         H            2.441862652165    -1.303330459326    -0.487452979319     1.007825032230
         H            1.044783652165    -2.186693459326     0.125356020681     1.007825032230
         H            1.045258652165     2.094527540674    -0.569589979319     1.007825032230
         H            1.044754652165     0.973336540674    -1.943400979319     1.007825032230
         H            2.441895652165     1.062251540674    -0.872056979319     1.007825032230
         H            1.045333652165    -0.565445459326     2.111723020681     1.007825032230
         H            2.441969652165     0.212563540674     1.368912020681     1.007825032230
         H            1.044910652165     1.184906540674     1.827655020681     1.007825032230
         H           -2.452321347835    -1.081365459326     0.878234020681     1.007825032230
         H           -1.055782347835    -0.991288459326     1.950253020681     1.007825032230
         H           -1.055114347835    -2.113255459326     0.577078020681     1.007825032230
         H           -1.055213347835     0.545499540674    -2.105612979319     1.007825032230
         H           -1.055557347835    -1.204702459326    -1.820614979319     1.007825032230
         H           -2.452283347835    -0.231540459326    -1.362579979319     1.007825032230
         H           -1.055570347835     2.167643540674    -0.119954979319     1.007825032230
         H           -2.452320347835     1.284373540674     0.493715020681     1.007825032230
         H           -1.055323347835     1.539344540674     1.538255020681     1.007825032230

  Basis Set: AUG-CC-PVTZ
    Blend: AUG-CC-PVTZ
  Basis Set: (AUG-CC-PVTZ AUX)
    Blend: AUG-CC-PVTZ-JKFIT
	 Reference Energy          =    -313.5167243687663472 [Eh]
	 Singles Energy            =      -0.0000000000000000 [Eh]
	 Same-Spin Energy          =      -0.3482948576995107 [Eh]
	 Opposite-Spin Energy      =      -1.2733201711760314 [Eh]
	 Correlation Energy        =      -1.6216150288755422 [Eh]
	 Total Energy              =    -315.1383393976419143 [Eh]

	 ================> DF-SCS-MP2 Energies <==================
	-----------------------------------------------------------
	 SCS Same-Spin Scale       =       0.3333333333333333 [-]
	 SCS Opposite-Spin Scale   =       1.2000000000000000 [-]
	 SCS Same-Spin Energy      =      -0.1160982858998369 [Eh]
	 SCS Opposite-Spin Energy  =      -1.5279842054112376 [Eh]
	 SCS Correlation Energy    =      -1.6440824913110745 [Eh]
	 SCS Total Energy          =    -315.1608068600774004 [Eh]
	-----------------------------------------------------------

  Dipole Moment: [D]
     X:     0.0223      Y:     0.0308      Z:    -0.0075     Total:     0.0387

*** Psi4 exiting successfully. Buy a developer a beer!
