                               Psi4 1.3.2 release

  ==> Input File <==

--------------------------------------------------------------------------
#psi4
#
memory 32 gb

molecule  {
0 1
  C        0.7173918     0.1446578     0.0134030
  C       -0.7863980     0.0000120     0.0000240
  C        1.3524290    -1.3355510    -0.5066990
  C        1.3524640     1.1065670    -0.9032830
  C        1.3525400     0.2289610     1.4099520
  C       -1.3524910    -1.1062660     0.9036570
  C       -1.3524520    -0.2294520    -1.4098630
  C       -1.3524900     1.3357370     0.5062260
  H        1.0503260    -1.5480580    -1.5357290
  H        2.4470620    -1.2938500    -0.4906500
  H        1.0499830    -2.1772130     0.1221590
  H        1.0504580     2.1040080    -0.5727870
  H        1.0499540     0.9828170    -1.9465980
  H        2.4470950     1.0717320    -0.8752540
  H        1.0505330    -0.5559650     2.1085260
  H        2.4471690     0.2220440     1.3657150
  H        1.0501100     1.1943870     1.8244580
  H       -2.4471220    -1.0718850     0.8750370
  H       -1.0505830    -0.9818080     1.9470560
  H       -1.0499150    -2.1037750     0.5738810
  H       -1.0500140     0.5549800    -2.1088100
  H       -1.0503580    -1.1952220    -1.8238120
  H       -2.4470840    -0.2220600    -1.3657770
  H       -1.0503710     2.1771240    -0.1231520
  H       -2.4471210     1.2938540     0.4905180
  H       -1.0501240     1.5488250     1.5350580
units angstrom
no_reorient  #important for SAPT in psi4, default
symmetry c1  #important for SAPT in psi4, default
}

set PROPERTIES_ORIGIN ["COM"]
properties('MP2/aug-cc-pvtz', properties = ['dipole'])
--------------------------------------------------------------------------

    Molecular point group: c1
  Charge       = 0
  Multiplicity = 1
  Basis Set: AUG-CC-PVTZ
    Blend: AUG-CC-PVTZ
  Basis Set: (AUG-CC-PVTZ AUX)
    Blend: AUG-CC-PVTZ-JKFIT

    Orbital Energies [Eh]
    ---------------------

    Doubly Occupied:

       1A    -11.234320     2A    -11.230456     3A    -11.208433
       4A    -11.207463     5A    -11.207149     6A    -11.206306
       7A    -11.204727     8A    -11.204430     9A     -1.131596
      10A     -1.037223    11A     -0.943595    12A     -0.934570
      13A     -0.913095    14A     -0.900855    15A     -0.817495
      16A     -0.690173    17A     -0.646368    18A     -0.605372
      19A     -0.604706    20A     -0.597383    21A     -0.586226
      22A     -0.554124    23A     -0.530722    24A     -0.527702
      25A     -0.527051    26A     -0.513258    27A     -0.504858
      28A     -0.494030    29A     -0.488077    30A     -0.472640
      31A     -0.453685    32A     -0.436126    33A     -0.386467

  @DF-RHF Final Energy:  -313.50580138583359

   => Energetics <=

    Nuclear Repulsion Energy =            438.3211329991993921
    One-Electron Energy =               -1291.6525108533021466
    Two-Electron Energy =                 539.8255764682692188
    Total Energy =                       -313.5058013858335926
  Basis Set: (AUG-CC-PVTZ AUX)
    Blend: AUG-CC-PVTZ-RI
    Molecular point group: c1

    Geometry (in Angstrom), charge = 0, multiplicity = 1:

       Center              X                  Y                   Z               Mass
    ------------   -----------------  -----------------  -----------------  -----------------
         C            0.724646664594     0.129449186409     0.011993848593    12.000000000000
         C           -0.779143135406    -0.015196613591    -0.001385151407    12.000000000000
         C            1.359683864594    -1.350759613591    -0.508108151407    12.000000000000
         C            1.359718864594     1.091358386409    -0.904692151407    12.000000000000
         C            1.359794864594     0.213752386409     1.408542848593    12.000000000000
         C           -1.345236135406    -1.121474613591     0.902247848593    12.000000000000
         C           -1.345197135406    -0.244660613591    -1.411272151407    12.000000000000
         C           -1.345235135406     1.320528386409     0.504816848593    12.000000000000
         H            1.057580864594    -1.563266613591    -1.537138151407     1.007825032230
         H            2.454316864594    -1.309058613591    -0.492059151407     1.007825032230
         H            1.057237864594    -2.192421613591     0.120749848593     1.007825032230
         H            1.057712864594     2.088799386409    -0.574196151407     1.007825032230
         H            1.057208864594     0.967608386409    -1.948007151407     1.007825032230
         H            2.454349864594     1.056523386409    -0.876663151407     1.007825032230
         H            1.057787864594    -0.571173613591     2.107116848593     1.007825032230
         H            2.454423864594     0.206835386409     1.364305848593     1.007825032230
         H            1.057364864594     1.179178386409     1.823048848593     1.007825032230
         H           -2.439867135406    -1.087093613591     0.873627848593     1.007825032230
         H           -1.043328135406    -0.997016613591     1.945646848593     1.007825032230
         H           -1.042660135406    -2.118983613591     0.572471848593     1.007825032230
         H           -1.042759135406     0.539771386409    -2.110219151407     1.007825032230
         H           -1.043103135406    -1.210430613591    -1.825221151407     1.007825032230
         H           -2.439829135406    -0.237268613591    -1.367186151407     1.007825032230
         H           -1.043116135406     2.161915386409    -0.124561151407     1.007825032230
         H           -2.439866135406     1.278645386409     0.489108848593     1.007825032230
         H           -1.042869135406     1.533616386409     1.533648848593     1.007825032230

  Basis Set: AUG-CC-PVTZ
    Blend: AUG-CC-PVTZ
  Basis Set: (AUG-CC-PVTZ AUX)
    Blend: AUG-CC-PVTZ-JKFIT
	 Reference Energy          =    -313.5058013858335926 [Eh]
	 Singles Energy            =      -0.0000000000000000 [Eh]
	 Same-Spin Energy          =      -0.3487313631213316 [Eh]
	 Opposite-Spin Energy      =      -1.2747696074398547 [Eh]
	 Correlation Energy        =      -1.6235009705611863 [Eh]
	 Total Energy              =    -315.1293023563947600 [Eh]

	 ================> DF-SCS-MP2 Energies <==================
	-----------------------------------------------------------
	 SCS Same-Spin Scale       =       0.3333333333333333 [-]
	 SCS Opposite-Spin Scale   =       1.2000000000000000 [-]
	 SCS Same-Spin Energy      =      -0.1162437877071105 [Eh]
	 SCS Opposite-Spin Energy  =      -1.5297235289278255 [Eh]
	 SCS Correlation Energy    =      -1.6459673166349360 [Eh]
	 SCS Total Energy          =    -315.1517687024685301 [Eh]
	-----------------------------------------------------------

  Dipole Moment: [D]
     X:    -0.0670      Y:     0.0665      Z:     0.0137     Total:     0.0954

*** Psi4 exiting successfully. Buy a developer a beer!
