                               Psi4 1.3.2 release

  ==> Input File <==

--------------------------------------------------------------------------
#psi4
#
memory 32 gb

molecule  {
0 1
  C        0.7863980     0.0000030     0.0000120
  C       -0.7861587    -0.0043878    -0.0270702
  C        1.3524290    -1.3355510    -0.5066990
  C        1.3524640     1.1065670    -0.9032830
  C        1.3525400     0.2289610     1.4099520
  C       -1.3524910    -1.1062660     0.9036570
  C       -1.3524520    -0.2294520    -1.4098630
  C       -1.3524900     1.3357370     0.5062260
  H        1.0503260    -1.5480580    -1.5357290
  H        2.4470620    -1.2938500    -0.4906500
  H        1.0499830    -2.1772130     0.1221590
  H        1.0504580     2.1040080    -0.5727870
  H        1.0499540     0.9828170    -1.9465980
  H        2.4470950     1.0717320    -0.8752540
  H        1.0505330    -0.5559650     2.1085260
  H        2.4471690     0.2220440     1.3657150
  H        1.0501100     1.1943870     1.8244580
  H       -2.4471220    -1.0718850     0.8750370
  H       -1.0505830    -0.9818080     1.9470560
  H       -1.0499150    -2.1037750     0.5738810
  H       -1.0500140     0.5549800    -2.1088100
  H       -1.0503580    -1.1952220    -1.8238120
  H       -2.4470840    -0.2220600    -1.3657770
  H       -1.0503710     2.1771240    -0.1231520
  H       -2.4471210     1.2938540     0.4905180
  H       -1.0501240     1.5488250     1.5350580
units angstrom
no_reorient  #important for SAPT in psi4, default
symmetry c1  #important for SAPT in psi4, default
}

set PROPERTIES_ORIGIN ["COM"]
properties('MP2/aug-cc-pvtz', properties = ['dipole'])
--------------------------------------------------------------------------

    Molecular point group: c1
  Charge       = 0
  Multiplicity = 1
  Basis Set: AUG-CC-PVTZ
    Blend: AUG-CC-PVTZ
  Basis Set: (AUG-CC-PVTZ AUX)
    Blend: AUG-CC-PVTZ-JKFIT

    Orbital Energies [Eh]
    ---------------------

    Doubly Occupied:

       1A    -11.230708     2A    -11.230186     3A    -11.206007
       4A    -11.205655     5A    -11.205639     6A    -11.205323
       7A    -11.205306     8A    -11.205288     9A     -1.125594
      10A     -1.039239    11A     -0.939842    12A     -0.937759
      13A     -0.910543    14A     -0.908427    15A     -0.804648
      16A     -0.691211    17A     -0.647794    18A     -0.601444
      19A     -0.600895    20A     -0.595814    21A     -0.593958
      22A     -0.553410    23A     -0.528262    24A     -0.528119
      25A     -0.527763    26A     -0.508440    27A     -0.506958
      28A     -0.490017    29A     -0.483963    30A     -0.478348
      31A     -0.437095    32A     -0.428194    33A     -0.424163

  @DF-RHF Final Energy:  -313.52792729135984

   => Energetics <=

    Nuclear Repulsion Energy =            437.9329280874034680
    One-Electron Energy =               -1290.9496829909862754
    Two-Electron Energy =                 539.4888276122229627
    Total Energy =                       -313.5279272913597879
  Basis Set: (AUG-CC-PVTZ AUX)
    Blend: AUG-CC-PVTZ-RI
    Molecular point group: c1

    Geometry (in Angstrom), charge = 0, multiplicity = 1:

       Center              X                  Y                   Z               Mass
    ------------   -----------------  -----------------  -----------------  -----------------
         C            0.786372859270     0.000464982790     0.002859189750    12.000000000000
         C           -0.786183840730    -0.003925817210    -0.024223010250    12.000000000000
         C            1.352403859270    -1.335089017210    -0.503851810250    12.000000000000
         C            1.352438859270     1.107028982790    -0.900435810250    12.000000000000
         C            1.352514859270     0.229422982790     1.412799189750    12.000000000000
         C           -1.352516140730    -1.105804017210     0.906504189750    12.000000000000
         C           -1.352477140730    -0.228990017210    -1.407015810250    12.000000000000
         C           -1.352515140730     1.336198982790     0.509073189750    12.000000000000
         H            1.050300859270    -1.547596017210    -1.532881810250     1.007825032230
         H            2.447036859270    -1.293388017210    -0.487802810250     1.007825032230
         H            1.049957859270    -2.176751017210     0.125006189750     1.007825032230
         H            1.050432859270     2.104469982790    -0.569939810250     1.007825032230
         H            1.049928859270     0.983278982790    -1.943750810250     1.007825032230
         H            2.447069859270     1.072193982790    -0.872406810250     1.007825032230
         H            1.050507859270    -0.555503017210     2.111373189750     1.007825032230
         H            2.447143859270     0.222505982790     1.368562189750     1.007825032230
         H            1.050084859270     1.194848982790     1.827305189750     1.007825032230
         H           -2.447147140730    -1.071423017210     0.877884189750     1.007825032230
         H           -1.050608140730    -0.981346017210     1.949903189750     1.007825032230
         H           -1.049940140730    -2.103313017210     0.576728189750     1.007825032230
         H           -1.050039140730     0.555441982790    -2.105962810250     1.007825032230
         H           -1.050383140730    -1.194760017210    -1.820964810250     1.007825032230
         H           -2.447109140730    -0.221598017210    -1.362929810250     1.007825032230
         H           -1.050396140730     2.177585982790    -0.120304810250     1.007825032230
         H           -2.447146140730     1.294315982790     0.493365189750     1.007825032230
         H           -1.050149140730     1.549286982790     1.537905189750     1.007825032230

  Basis Set: AUG-CC-PVTZ
    Blend: AUG-CC-PVTZ
  Basis Set: (AUG-CC-PVTZ AUX)
    Blend: AUG-CC-PVTZ-JKFIT
	 Reference Energy          =    -313.5279272913598447 [Eh]
	 Singles Energy            =      -0.0000000000000000 [Eh]
	 Same-Spin Energy          =      -0.3477186295711223 [Eh]
	 Opposite-Spin Energy      =      -1.2725338145087299 [Eh]
	 Correlation Energy        =      -1.6202524440798522 [Eh]
	 Total Energy              =    -315.1481797354396690 [Eh]

	 ================> DF-SCS-MP2 Energies <==================
	-----------------------------------------------------------
	 SCS Same-Spin Scale       =       0.3333333333333333 [-]
	 SCS Opposite-Spin Scale   =       1.2000000000000000 [-]
	 SCS Same-Spin Energy      =      -0.1159062098570408 [Eh]
	 SCS Opposite-Spin Energy  =      -1.5270405774104758 [Eh]
	 SCS Correlation Energy    =      -1.6429467872675165 [Eh]
	 SCS Total Energy          =    -315.1708740786273779 [Eh]
	-----------------------------------------------------------

  Dipole Moment: [D]
     X:     0.0009      Y:    -0.0015      Z:    -0.0090     Total:     0.0092

*** Psi4 exiting successfully. Buy a developer a beer!
