                               Psi4 1.3.2 release

  ==> Input File <==

--------------------------------------------------------------------------
#psi4
#
memory 32 gb

molecule  {
0 1
  C        0.7863980     0.0000030     0.0000120
  C       -0.7863980     0.0000120     0.0000240
  C        1.3524290    -1.3355510    -0.5066990
  C        1.3524640     1.1065670    -0.9032830
  C        1.3525400     0.2289610     1.4099520
  C       -1.3524910    -1.1062660     0.9036570
  C       -1.3524520    -0.2294520    -1.4098630
  C       -1.3524900     1.3357370     0.5062260
  H        1.0503260    -1.5480580    -1.5357290
  H        2.4470620    -1.2938500    -0.4906500
  H        1.0499830    -2.1772130     0.1221590
  H        1.0504580     2.1040080    -0.5727870
  H        1.0499540     0.9828170    -1.9465980
  H        2.4470950     1.0717320    -0.8752540
  H        0.9952865    -0.6995523     2.2363169
  H        2.4471690     0.2220440     1.3657150
  H        1.0501100     1.1943870     1.8244580
  H       -2.4471220    -1.0718850     0.8750370
  H       -1.0505830    -0.9818080     1.9470560
  H       -1.0499150    -2.1037750     0.5738810
  H       -1.0500140     0.5549800    -2.1088100
  H       -1.0503580    -1.1952220    -1.8238120
  H       -2.4470840    -0.2220600    -1.3657770
  H       -1.0503710     2.1771240    -0.1231520
  H       -2.4471210     1.2938540     0.4905180
  H       -1.0501240     1.5488250     1.5350580
units angstrom
no_reorient  #important for SAPT in psi4, default
symmetry c1  #important for SAPT in psi4, default
}

set PROPERTIES_ORIGIN ["COM"]
properties('MP2/aug-cc-pvtz', properties = ['dipole'])
--------------------------------------------------------------------------

    Molecular point group: c1
  Charge       = 0
  Multiplicity = 1
  Basis Set: AUG-CC-PVTZ
    Blend: AUG-CC-PVTZ
  Basis Set: (AUG-CC-PVTZ AUX)
    Blend: AUG-CC-PVTZ-JKFIT

    Orbital Energies [Eh]
    ---------------------

    Doubly Occupied:

       1A    -11.233194     2A    -11.230844     3A    -11.228784
       4A    -11.208240     5A    -11.205972     6A    -11.205945
       7A    -11.205929     8A    -11.204278     9A     -1.125816
      10A     -1.039043    11A     -0.939437    12A     -0.934669
      13A     -0.910046    14A     -0.903219    15A     -0.803821
      16A     -0.689888    17A     -0.647332    18A     -0.602146
      19A     -0.599789    20A     -0.595598    21A     -0.587683
      22A     -0.552971    23A     -0.529682    24A     -0.528692
      25A     -0.520632    26A     -0.508461    27A     -0.506125
      28A     -0.486413    29A     -0.482474    30A     -0.470310
      31A     -0.433723    32A     -0.428511    33A     -0.426273

  @DF-RHF Final Energy:  -313.50827993661238

   => Energetics <=

    Nuclear Repulsion Energy =            437.1450140996300888
    One-Electron Energy =               -1289.3547097211719574
    Two-Electron Energy =                 538.7014156849295432
    Total Energy =                       -313.5082799366123254
  Basis Set: (AUG-CC-PVTZ AUX)
    Blend: AUG-CC-PVTZ-RI
    Molecular point group: c1

    Geometry (in Angstrom), charge = 0, multiplicity = 1:

       Center              X                  Y                   Z               Mass
    ------------   -----------------  -----------------  -----------------  -----------------
         C            0.786885825533     0.001270244664    -0.001117662232    12.000000000000
         C           -0.785910174467     0.001279244664    -0.001105662232    12.000000000000
         C            1.352916825533    -1.334283755336    -0.507828662232    12.000000000000
         C            1.352951825533     1.107834244664    -0.904412662232    12.000000000000
         C            1.353027825533     0.230228244664     1.408822337768    12.000000000000
         C           -1.352003174467    -1.104998755336     0.902527337768    12.000000000000
         C           -1.351964174467    -0.228184755336    -1.410992662232    12.000000000000
         C           -1.352002174467     1.337004244664     0.505096337768    12.000000000000
         H            1.050813825533    -1.546790755336    -1.536858662232     1.007825032230
         H            2.447549825533    -1.292582755336    -0.491779662232     1.007825032230
         H            1.050470825533    -2.175945755336     0.121029337768     1.007825032230
         H            1.050945825533     2.105275244664    -0.573916662232     1.007825032230
         H            1.050441825533     0.984084244664    -1.947727662232     1.007825032230
         H            2.447582825533     1.072999244664    -0.876383662232     1.007825032230
         H            0.995774325533    -0.698285055336     2.235187237768     1.007825032230
         H            2.447656825533     0.223311244664     1.364585337768     1.007825032230
         H            1.050597825533     1.195654244664     1.823328337768     1.007825032230
         H           -2.446634174467    -1.070617755336     0.873907337768     1.007825032230
         H           -1.050095174467    -0.980540755336     1.945926337768     1.007825032230
         H           -1.049427174467    -2.102507755336     0.572751337768     1.007825032230
         H           -1.049526174467     0.556247244664    -2.109939662232     1.007825032230
         H           -1.049870174467    -1.193954755336    -1.824941662232     1.007825032230
         H           -2.446596174467    -0.220792755336    -1.366906662232     1.007825032230
         H           -1.049883174467     2.178391244664    -0.124281662232     1.007825032230
         H           -2.446633174467     1.295121244664     0.489388337768     1.007825032230
         H           -1.049636174467     1.550092244664     1.533928337768     1.007825032230

  Basis Set: AUG-CC-PVTZ
    Blend: AUG-CC-PVTZ
  Basis Set: (AUG-CC-PVTZ AUX)
    Blend: AUG-CC-PVTZ-JKFIT
	 Reference Energy          =    -313.5082799366123822 [Eh]
	 Singles Energy            =      -0.0000000000000000 [Eh]
	 Same-Spin Energy          =      -0.3479261215141423 [Eh]
	 Opposite-Spin Energy      =      -1.2743364737776783 [Eh]
	 Correlation Energy        =      -1.6222625952918206 [Eh]
	 Total Energy              =    -315.1305425319042115 [Eh]

	 ================> DF-SCS-MP2 Energies <==================
	-----------------------------------------------------------
	 SCS Same-Spin Scale       =       0.3333333333333333 [-]
	 SCS Opposite-Spin Scale   =       1.2000000000000000 [-]
	 SCS Same-Spin Energy      =      -0.1159753738380474 [Eh]
	 SCS Opposite-Spin Energy  =      -1.5292037685332140 [Eh]
	 SCS Correlation Energy    =      -1.6451791423712614 [Eh]
	 SCS Total Energy          =    -315.1534590789836443 [Eh]
	-----------------------------------------------------------

  Dipole Moment: [D]
     X:     0.0206      Y:     0.0988      Z:    -0.1366     Total:     0.1699

*** Psi4 exiting successfully. Buy a developer a beer!
