                               Psi4 1.3.2 release

  ==> Input File <==

--------------------------------------------------------------------------
#psi4
#
memory 32 gb

molecule  {
0 1
  C        0.7863980     0.0000030     0.0000120
  C       -0.7863980     0.0000120     0.0000240
  C        1.3524290    -1.3355510    -0.5066990
  C        1.3524640     1.1065670    -0.9032830
  C        1.3156941     0.2140598     1.3181896
  C       -1.3524910    -1.1062660     0.9036570
  C       -1.3524520    -0.2294520    -1.4098630
  C       -1.3524900     1.3357370     0.5062260
  H        1.0503260    -1.5480580    -1.5357290
  H        2.4470620    -1.2938500    -0.4906500
  H        1.0499830    -2.1772130     0.1221590
  H        1.0504580     2.1040080    -0.5727870
  H        1.0499540     0.9828170    -1.9465980
  H        2.4470950     1.0717320    -0.8752540
  H        1.0505330    -0.5559650     2.1085260
  H        2.4471690     0.2220440     1.3657150
  H        1.0501100     1.1943870     1.8244580
  H       -2.4471220    -1.0718850     0.8750370
  H       -1.0505830    -0.9818080     1.9470560
  H       -1.0499150    -2.1037750     0.5738810
  H       -1.0500140     0.5549800    -2.1088100
  H       -1.0503580    -1.1952220    -1.8238120
  H       -2.4470840    -0.2220600    -1.3657770
  H       -1.0503710     2.1771240    -0.1231520
  H       -2.4471210     1.2938540     0.4905180
  H       -1.0501240     1.5488250     1.5350580
units angstrom
no_reorient  #important for SAPT in psi4, default
symmetry c1  #important for SAPT in psi4, default
}

set PROPERTIES_ORIGIN ["COM"]
properties('MP2/aug-cc-pvtz', properties = ['dipole'])
--------------------------------------------------------------------------

    Molecular point group: c1
  Charge       = 0
  Multiplicity = 1
  Basis Set: AUG-CC-PVTZ
    Blend: AUG-CC-PVTZ
  Basis Set: (AUG-CC-PVTZ AUX)
    Blend: AUG-CC-PVTZ-JKFIT

    Orbital Energies [Eh]
    ---------------------

    Doubly Occupied:

       1A    -11.231021     2A    -11.225168     3A    -11.211864
       4A    -11.206102     5A    -11.206083     6A    -11.205726
       7A    -11.205429     8A    -11.205411     9A     -1.134388
      10A     -1.045629    11A     -0.939798    12A     -0.938958
      13A     -0.910160    14A     -0.907664    15A     -0.804444
      16A     -0.696257    17A     -0.650576    18A     -0.605450
      19A     -0.602143    20A     -0.595680    21A     -0.593673
      22A     -0.552521    23A     -0.528589    24A     -0.524214
      25A     -0.523677    26A     -0.508011    27A     -0.503995
      28A     -0.487669    29A     -0.486495    30A     -0.472059
      31A     -0.442408    32A     -0.428912    33A     -0.422533

  @DF-RHF Final Energy:  -313.51665821385222

   => Energetics <=

    Nuclear Repulsion Energy =            439.8452377157950082
    One-Electron Energy =               -1294.7183760442501352
    Two-Electron Energy =                 541.3564801146028458
    Total Energy =                       -313.5166582138522244
  Basis Set: (AUG-CC-PVTZ AUX)
    Blend: AUG-CC-PVTZ-RI
    Molecular point group: c1

    Geometry (in Angstrom), charge = 0, multiplicity = 1:

       Center              X                  Y                   Z               Mass
    ------------   -----------------  -----------------  -----------------  -----------------
         C            0.790271747334     0.001569029232     0.009657968593    12.000000000000
         C           -0.782524252666     0.001578029232     0.009669968593    12.000000000000
         C            1.356302747334    -1.333984970768    -0.497053031407    12.000000000000
         C            1.356337747334     1.108133029232    -0.893637031407    12.000000000000
         C            1.319567847334     0.215625829232     1.327835568593    12.000000000000
         C           -1.348617252666    -1.104699970768     0.913302968593    12.000000000000
         C           -1.348578252666    -0.227885970768    -1.400217031407    12.000000000000
         C           -1.348616252666     1.337303029232     0.515871968593    12.000000000000
         H            1.054199747334    -1.546491970768    -1.526083031407     1.007825032230
         H            2.450935747334    -1.292283970768    -0.481004031407     1.007825032230
         H            1.053856747334    -2.175646970768     0.131804968593     1.007825032230
         H            1.054331747334     2.105574029232    -0.563141031407     1.007825032230
         H            1.053827747334     0.984383029232    -1.936952031407     1.007825032230
         H            2.450968747334     1.073298029232    -0.865608031407     1.007825032230
         H            1.054406747334    -0.554398970768     2.118171968593     1.007825032230
         H            2.451042747334     0.223610029232     1.375360968593     1.007825032230
         H            1.053983747334     1.195953029232     1.834103968593     1.007825032230
         H           -2.443248252666    -1.070318970768     0.884682968593     1.007825032230
         H           -1.046709252666    -0.980241970768     1.956701968593     1.007825032230
         H           -1.046041252666    -2.102208970768     0.583526968593     1.007825032230
         H           -1.046140252666     0.556546029232    -2.099164031407     1.007825032230
         H           -1.046484252666    -1.193655970768    -1.814166031407     1.007825032230
         H           -2.443210252666    -0.220493970768    -1.356131031407     1.007825032230
         H           -1.046497252666     2.178690029232    -0.113506031407     1.007825032230
         H           -2.443247252666     1.295420029232     0.500163968593     1.007825032230
         H           -1.046250252666     1.550391029232     1.544703968593     1.007825032230

  Basis Set: AUG-CC-PVTZ
    Blend: AUG-CC-PVTZ
  Basis Set: (AUG-CC-PVTZ AUX)
    Blend: AUG-CC-PVTZ-JKFIT
	 Reference Energy          =    -313.5166582138522244 [Eh]
	 Singles Energy            =      -0.0000000000000000 [Eh]
	 Same-Spin Energy          =      -0.3490415261096333 [Eh]
	 Opposite-Spin Energy      =      -1.2740788472074618 [Eh]
	 Correlation Energy        =      -1.6231203733170951 [Eh]
	 Total Energy              =    -315.1397785871693031 [Eh]

	 ================> DF-SCS-MP2 Energies <==================
	-----------------------------------------------------------
	 SCS Same-Spin Scale       =       0.3333333333333333 [-]
	 SCS Opposite-Spin Scale   =       1.2000000000000000 [-]
	 SCS Same-Spin Energy      =      -0.1163471753698778 [Eh]
	 SCS Opposite-Spin Energy  =      -1.5288946166489541 [Eh]
	 SCS Correlation Energy    =      -1.6452417920188318 [Eh]
	 SCS Total Energy          =    -315.1619000058710753 [Eh]
	-----------------------------------------------------------

  Dipole Moment: [D]
     X:     0.0003      Y:    -0.0006      Z:    -0.0037     Total:     0.0038

*** Psi4 exiting successfully. Buy a developer a beer!
