                               Psi4 1.3.2 release

  ==> Input File <==

--------------------------------------------------------------------------
#psi4
#
memory 32 gb

molecule  {
0 1
  C        0.7744561    -0.0223823     0.0086972
  C       -0.7863980     0.0000120     0.0000240
  C        1.3524290    -1.3355510    -0.5066990
  C        1.3524640     1.1065670    -0.9032830
  C        1.3525400     0.2289610     1.4099520
  C       -1.3524910    -1.1062660     0.9036570
  C       -1.3524520    -0.2294520    -1.4098630
  C       -1.3524900     1.3357370     0.5062260
  H        1.0503260    -1.5480580    -1.5357290
  H        2.4470620    -1.2938500    -0.4906500
  H        1.0499830    -2.1772130     0.1221590
  H        1.0504580     2.1040080    -0.5727870
  H        1.0499540     0.9828170    -1.9465980
  H        2.4470950     1.0717320    -0.8752540
  H        1.0505330    -0.5559650     2.1085260
  H        2.4471690     0.2220440     1.3657150
  H        1.0501100     1.1943870     1.8244580
  H       -2.4471220    -1.0718850     0.8750370
  H       -1.0505830    -0.9818080     1.9470560
  H       -1.0499150    -2.1037750     0.5738810
  H       -1.0500140     0.5549800    -2.1088100
  H       -1.0503580    -1.1952220    -1.8238120
  H       -2.4470840    -0.2220600    -1.3657770
  H       -1.0503710     2.1771240    -0.1231520
  H       -2.4471210     1.2938540     0.4905180
  H       -1.0501240     1.5488250     1.5350580
units angstrom
no_reorient  #important for SAPT in psi4, default
symmetry c1  #important for SAPT in psi4, default
}

set PROPERTIES_ORIGIN ["COM"]
properties('MP2/aug-cc-pvtz', properties = ['dipole'])
--------------------------------------------------------------------------

    Molecular point group: c1
  Charge       = 0
  Multiplicity = 1
  Basis Set: AUG-CC-PVTZ
    Blend: AUG-CC-PVTZ
  Basis Set: (AUG-CC-PVTZ AUX)
    Blend: AUG-CC-PVTZ-JKFIT

    Orbital Energies [Eh]
    ---------------------

    Doubly Occupied:

       1A    -11.230751     2A    -11.230086     3A    -11.205978
       4A    -11.205757     5A    -11.205693     6A    -11.205613
       7A    -11.205497     8A    -11.205307     9A     -1.126181
      10A     -1.038286    11A     -0.939552    12A     -0.937743
      13A     -0.910087    14A     -0.908193    15A     -0.806909
      16A     -0.690723    17A     -0.647370    18A     -0.601501
      19A     -0.601243    20A     -0.595458    21A     -0.593687
      22A     -0.553366    23A     -0.528207    24A     -0.527933
      25A     -0.527756    26A     -0.508369    27A     -0.507077
      28A     -0.489970    29A     -0.483233    30A     -0.478611
      31A     -0.434651    32A     -0.430862    33A     -0.424776

  @DF-RHF Final Energy:  -313.52797217176385

   => Energetics <=

    Nuclear Repulsion Energy =            438.0050134730144578
    One-Electron Energy =               -1291.0931201854186838
    Two-Electron Energy =                 539.5601345406403198
    Total Energy =                       -313.5279721717638495
  Basis Set: (AUG-CC-PVTZ AUX)
    Blend: AUG-CC-PVTZ-RI
    Molecular point group: c1

    Geometry (in Angstrom), charge = 0, multiplicity = 1:

       Center              X                  Y                   Z               Mass
    ------------   -----------------  -----------------  -----------------  -----------------
         C            0.775711608566    -0.020029442918     0.007782784700    12.000000000000
         C           -0.785142491434     0.002364857082    -0.000890415300    12.000000000000
         C            1.353684508566    -1.333198142918    -0.507613415300    12.000000000000
         C            1.353719508566     1.108919857082    -0.904197415300    12.000000000000
         C            1.353795508566     0.231313857082     1.409037584700    12.000000000000
         C           -1.351235491434    -1.103913142918     0.902742584700    12.000000000000
         C           -1.351196491434    -0.227099142918    -1.410777415300    12.000000000000
         C           -1.351234491434     1.338089857082     0.505311584700    12.000000000000
         H            1.051581508566    -1.545705142918    -1.536643415300     1.007825032230
         H            2.448317508566    -1.291497142918    -0.491564415300     1.007825032230
         H            1.051238508566    -2.174860142918     0.121244584700     1.007825032230
         H            1.051713508566     2.106360857082    -0.573701415300     1.007825032230
         H            1.051209508566     0.985169857082    -1.947512415300     1.007825032230
         H            2.448350508566     1.074084857082    -0.876168415300     1.007825032230
         H            1.051788508566    -0.553612142918     2.107611584700     1.007825032230
         H            2.448424508566     0.224396857082     1.364800584700     1.007825032230
         H            1.051365508566     1.196739857082     1.823543584700     1.007825032230
         H           -2.445866491434    -1.069532142918     0.874122584700     1.007825032230
         H           -1.049327491434    -0.979455142918     1.946141584700     1.007825032230
         H           -1.048659491434    -2.101422142918     0.572966584700     1.007825032230
         H           -1.048758491434     0.557332857082    -2.109724415300     1.007825032230
         H           -1.049102491434    -1.192869142918    -1.824726415300     1.007825032230
         H           -2.445828491434    -0.219707142918    -1.366691415300     1.007825032230
         H           -1.049115491434     2.179476857082    -0.124066415300     1.007825032230
         H           -2.445865491434     1.296206857082     0.489603584700     1.007825032230
         H           -1.048868491434     1.551177857082     1.534143584700     1.007825032230

  Basis Set: AUG-CC-PVTZ
    Blend: AUG-CC-PVTZ
  Basis Set: (AUG-CC-PVTZ AUX)
    Blend: AUG-CC-PVTZ-JKFIT
	 Reference Energy          =    -313.5279721717638495 [Eh]
	 Singles Energy            =      -0.0000000000000000 [Eh]
	 Same-Spin Energy          =      -0.3477033163767913 [Eh]
	 Opposite-Spin Energy      =      -1.2725645379159849 [Eh]
	 Correlation Energy        =      -1.6202678542927762 [Eh]
	 Total Energy              =    -315.1482400260566124 [Eh]

	 ================> DF-SCS-MP2 Energies <==================
	-----------------------------------------------------------
	 SCS Same-Spin Scale       =       0.3333333333333333 [-]
	 SCS Opposite-Spin Scale   =       1.2000000000000000 [-]
	 SCS Same-Spin Energy      =      -0.1159011054589304 [Eh]
	 SCS Opposite-Spin Energy  =      -1.5270774454991818 [Eh]
	 SCS Correlation Energy    =      -1.6429785509581123 [Eh]
	 SCS Total Energy          =    -315.1709507227219547 [Eh]
	-----------------------------------------------------------

  Dipole Moment: [D]
     X:    -0.0078      Y:    -0.0079      Z:     0.0033     Total:     0.0115

*** Psi4 exiting successfully. Buy a developer a beer!
