                               Psi4 1.3.2 release

  ==> Input File <==

--------------------------------------------------------------------------
#psi4
#
memory 32 gb

molecule  {
0 1
  C        0.7863980     0.0000030     0.0000120
  C       -0.7777807     0.0263640     0.1623001
  C        1.3524290    -1.3355510    -0.5066990
  C        1.3524640     1.1065670    -0.9032830
  C        1.3525400     0.2289610     1.4099520
  C       -1.3524910    -1.1062660     0.9036570
  C       -1.3524520    -0.2294520    -1.4098630
  C       -1.3524900     1.3357370     0.5062260
  H        1.0503260    -1.5480580    -1.5357290
  H        2.4470620    -1.2938500    -0.4906500
  H        1.0499830    -2.1772130     0.1221590
  H        1.0504580     2.1040080    -0.5727870
  H        1.0499540     0.9828170    -1.9465980
  H        2.4470950     1.0717320    -0.8752540
  H        1.0505330    -0.5559650     2.1085260
  H        2.4471690     0.2220440     1.3657150
  H        1.0501100     1.1943870     1.8244580
  H       -2.4471220    -1.0718850     0.8750370
  H       -1.0505830    -0.9818080     1.9470560
  H       -1.0499150    -2.1037750     0.5738810
  H       -1.0500140     0.5549800    -2.1088100
  H       -1.0503580    -1.1952220    -1.8238120
  H       -2.4470840    -0.2220600    -1.3657770
  H       -1.0503710     2.1771240    -0.1231520
  H       -2.4471210     1.2938540     0.4905180
  H       -1.0501240     1.5488250     1.5350580
units angstrom
no_reorient  #important for SAPT in psi4, default
symmetry c1  #important for SAPT in psi4, default
}

set PROPERTIES_ORIGIN ["COM"]
properties('MP2/aug-cc-pvtz', properties = ['dipole'])
--------------------------------------------------------------------------

    Molecular point group: c1
  Charge       = 0
  Multiplicity = 1
  Basis Set: AUG-CC-PVTZ
    Blend: AUG-CC-PVTZ
  Basis Set: (AUG-CC-PVTZ AUX)
    Blend: AUG-CC-PVTZ-JKFIT

    Orbital Energies [Eh]
    ---------------------

    Doubly Occupied:

       1A    -11.233748     2A    -11.232156     3A    -11.207327
       4A    -11.207309     5A    -11.206205     6A    -11.206182
       7A    -11.204216     8A    -11.203736     9A     -1.128422
      10A     -1.042725    11A     -0.946971    12A     -0.933475
      13A     -0.915205    14A     -0.901949    15A     -0.805065
      16A     -0.692880    17A     -0.649035    18A     -0.606481
      19A     -0.603226    20A     -0.597015    21A     -0.587800
      22A     -0.554268    23A     -0.531735    24A     -0.527869
      25A     -0.527640    26A     -0.515649    27A     -0.504449
      28A     -0.499491    29A     -0.488773    30A     -0.469493
      31A     -0.446875    32A     -0.437404    33A     -0.384925

  @DF-RHF Final Energy:  -313.50449390269540

   => Energetics <=

    Nuclear Repulsion Energy =            437.9355039652173787
    One-Electron Energy =               -1290.8805914584952461
    Two-Electron Energy =                 539.4405935905825800
    Total Energy =                       -313.5044939026953443
  Basis Set: (AUG-CC-PVTZ AUX)
    Blend: AUG-CC-PVTZ-RI
    Molecular point group: c1

    Geometry (in Angstrom), charge = 0, multiplicity = 1:

       Center              X                  Y                   Z               Mass
    ------------   -----------------  -----------------  -----------------  -----------------
         C            0.785492052797    -0.002768054270    -0.017049927700    12.000000000000
         C           -0.778686647203     0.023592945730     0.145238172300    12.000000000000
         C            1.351523052797    -1.338322054270    -0.523760927700    12.000000000000
         C            1.351558052797     1.103795945730    -0.920344927700    12.000000000000
         C            1.351634052797     0.226189945730     1.392890072300    12.000000000000
         C           -1.353396947203    -1.109037054270     0.886595072300    12.000000000000
         C           -1.353357947203    -0.232223054270    -1.426924927700    12.000000000000
         C           -1.353395947203     1.332965945730     0.489164072300    12.000000000000
         H            1.049420052797    -1.550829054270    -1.552790927700     1.007825032230
         H            2.446156052797    -1.296621054270    -0.507711927700     1.007825032230
         H            1.049077052797    -2.179984054270     0.105097072300     1.007825032230
         H            1.049552052797     2.101236945730    -0.589848927700     1.007825032230
         H            1.049048052797     0.980045945730    -1.963659927700     1.007825032230
         H            2.446189052797     1.068960945730    -0.892315927700     1.007825032230
         H            1.049627052797    -0.558736054270     2.091464072300     1.007825032230
         H            2.446263052797     0.219272945730     1.348653072300     1.007825032230
         H            1.049204052797     1.191615945730     1.807396072300     1.007825032230
         H           -2.448027947203    -1.074656054270     0.857975072300     1.007825032230
         H           -1.051488947203    -0.984579054270     1.929994072300     1.007825032230
         H           -1.050820947203    -2.106546054270     0.556819072300     1.007825032230
         H           -1.050919947203     0.552208945730    -2.125871927700     1.007825032230
         H           -1.051263947203    -1.197993054270    -1.840873927700     1.007825032230
         H           -2.447989947203    -0.224831054270    -1.382838927700     1.007825032230
         H           -1.051276947203     2.174352945730    -0.140213927700     1.007825032230
         H           -2.448026947203     1.291082945730     0.473456072300     1.007825032230
         H           -1.051029947203     1.546053945730     1.517996072300     1.007825032230

  Basis Set: AUG-CC-PVTZ
    Blend: AUG-CC-PVTZ
  Basis Set: (AUG-CC-PVTZ AUX)
    Blend: AUG-CC-PVTZ-JKFIT
	 Reference Energy          =    -313.5044939026954012 [Eh]
	 Singles Energy            =      -0.0000000000000000 [Eh]
	 Same-Spin Energy          =      -0.3488277373053338 [Eh]
	 Opposite-Spin Energy      =      -1.2746672328931783 [Eh]
	 Correlation Energy        =      -1.6234949701985122 [Eh]
	 Total Energy              =    -315.1279888728939227 [Eh]

	 ================> DF-SCS-MP2 Energies <==================
	-----------------------------------------------------------
	 SCS Same-Spin Scale       =       0.3333333333333333 [-]
	 SCS Opposite-Spin Scale   =       1.2000000000000000 [-]
	 SCS Same-Spin Energy      =      -0.1162759124351113 [Eh]
	 SCS Opposite-Spin Energy  =      -1.5296006794718140 [Eh]
	 SCS Correlation Energy    =      -1.6458765919069254 [Eh]
	 SCS Total Energy          =    -315.1503704946023277 [Eh]
	-----------------------------------------------------------

  Dipole Moment: [D]
     X:     0.0325      Y:     0.0121      Z:     0.0742     Total:     0.0819

*** Psi4 exiting successfully. Buy a developer a beer!
