                               Psi4 1.3.2 release

  ==> Input File <==

--------------------------------------------------------------------------
#psi4
#
memory 32 gb

molecule  {
0 1
  C        0.7863980     0.0000030     0.0000120
  C       -0.7863980     0.0000120     0.0000240
  C        1.3524290    -1.3355510    -0.5066990
  C        1.3524640     1.1065670    -0.9032830
  C        1.3525400     0.2289610     1.4099520
  C       -1.3524910    -1.1062660     0.9036570
  C       -1.3524520    -0.2294520    -1.4098630
  C       -1.3524900     1.3357370     0.5062260
  H        1.0503260    -1.5480580    -1.5357290
  H        2.4470620    -1.2938500    -0.4906500
  H        1.0499830    -2.1772130     0.1221590
  H        1.0504580     2.1040080    -0.5727870
  H        1.0499540     0.9828170    -1.9465980
  H        2.4470950     1.0717320    -0.8752540
  H        1.0781562    -0.4841713     2.0446306
  H        2.4471690     0.2220440     1.3657150
  H        1.0501100     1.1943870     1.8244580
  H       -2.4471220    -1.0718850     0.8750370
  H       -1.0505830    -0.9818080     1.9470560
  H       -1.0499150    -2.1037750     0.5738810
  H       -1.0500140     0.5549800    -2.1088100
  H       -1.0503580    -1.1952220    -1.8238120
  H       -2.4470840    -0.2220600    -1.3657770
  H       -1.0503710     2.1771240    -0.1231520
  H       -2.4471210     1.2938540     0.4905180
  H       -1.0501240     1.5488250     1.5350580
units angstrom
no_reorient  #important for SAPT in psi4, default
symmetry c1  #important for SAPT in psi4, default
}

set PROPERTIES_ORIGIN ["COM"]
properties('MP2/aug-cc-pvtz', properties = ['dipole'])
--------------------------------------------------------------------------

    Molecular point group: c1
  Charge       = 0
  Multiplicity = 1
  Basis Set: AUG-CC-PVTZ
    Blend: AUG-CC-PVTZ
  Basis Set: (AUG-CC-PVTZ AUX)
    Blend: AUG-CC-PVTZ-JKFIT

    Orbital Energies [Eh]
    ---------------------

    Doubly Occupied:

       1A    -11.230323     2A    -11.229304     3A    -11.206037
       4A    -11.205447     5A    -11.205416     6A    -11.205398
       7A    -11.204533     8A    -11.192959     9A     -1.125845
      10A     -1.039902    11A     -0.943958    12A     -0.938577
      13A     -0.913730    14A     -0.909328    15A     -0.805600
      16A     -0.692895    17A     -0.648789    18A     -0.605658
      19A     -0.600659    20A     -0.597464    21A     -0.594818
      22A     -0.554210    23A     -0.533064    24A     -0.527847
      25A     -0.527566    26A     -0.508505    27A     -0.507390
      28A     -0.492553    29A     -0.482011    30A     -0.480537
      31A     -0.433224    32A     -0.431876    33A     -0.425021

  @DF-RHF Final Energy:  -313.52275278248783

   => Energetics <=

    Nuclear Repulsion Energy =            438.3955115411631596
    One-Electron Energy =               -1291.8356360783493528
    Two-Electron Energy =                 539.9173717546983653
    Total Energy =                       -313.5227527824878280
  Basis Set: (AUG-CC-PVTZ AUX)
    Blend: AUG-CC-PVTZ-RI
    Molecular point group: c1

    Geometry (in Angstrom), charge = 0, multiplicity = 1:

       Center              X                  Y                   Z               Mass
    ------------   -----------------  -----------------  -----------------  -----------------
         C            0.786154114164    -0.000631496581     0.000574862841    12.000000000000
         C           -0.786641885836    -0.000622496581     0.000586862841    12.000000000000
         C            1.352185114164    -1.336185496581    -0.506136137159    12.000000000000
         C            1.352220114164     1.105932503419    -0.902720137159    12.000000000000
         C            1.352296114164     0.228326503419     1.410514862841    12.000000000000
         C           -1.352734885836    -1.106900496581     0.904219862841    12.000000000000
         C           -1.352695885836    -0.230086496581    -1.409300137159    12.000000000000
         C           -1.352733885836     1.335102503419     0.506788862841    12.000000000000
         H            1.050082114164    -1.548692496581    -1.535166137159     1.007825032230
         H            2.446818114164    -1.294484496581    -0.490087137159     1.007825032230
         H            1.049739114164    -2.177847496581     0.122721862841     1.007825032230
         H            1.050214114164     2.103373503419    -0.572224137159     1.007825032230
         H            1.049710114164     0.982182503419    -1.946035137159     1.007825032230
         H            2.446851114164     1.071097503419    -0.874691137159     1.007825032230
         H            1.077912314164    -0.484805796581     2.045193462841     1.007825032230
         H            2.446925114164     0.221409503419     1.366277862841     1.007825032230
         H            1.049866114164     1.193752503419     1.825020862841     1.007825032230
         H           -2.447365885836    -1.072519496581     0.875599862841     1.007825032230
         H           -1.050826885836    -0.982442496581     1.947618862841     1.007825032230
         H           -1.050158885836    -2.104409496581     0.574443862841     1.007825032230
         H           -1.050257885836     0.554345503419    -2.108247137159     1.007825032230
         H           -1.050601885836    -1.195856496581    -1.823249137159     1.007825032230
         H           -2.447327885836    -0.222694496581    -1.365214137159     1.007825032230
         H           -1.050614885836     2.176489503419    -0.122589137159     1.007825032230
         H           -2.447364885836     1.293219503419     0.491080862841     1.007825032230
         H           -1.050367885836     1.548190503419     1.535620862841     1.007825032230

  Basis Set: AUG-CC-PVTZ
    Blend: AUG-CC-PVTZ
  Basis Set: (AUG-CC-PVTZ AUX)
    Blend: AUG-CC-PVTZ-JKFIT
	 Reference Energy          =    -313.5227527824878280 [Eh]
	 Singles Energy            =      -0.0000000000000000 [Eh]
	 Same-Spin Energy          =      -0.3475905625486828 [Eh]
	 Opposite-Spin Energy      =      -1.2718603327998235 [Eh]
	 Correlation Energy        =      -1.6194508953485063 [Eh]
	 Total Energy              =    -315.1422036778363349 [Eh]

	 ================> DF-SCS-MP2 Energies <==================
	-----------------------------------------------------------
	 SCS Same-Spin Scale       =       0.3333333333333333 [-]
	 SCS Opposite-Spin Scale   =       1.2000000000000000 [-]
	 SCS Same-Spin Energy      =      -0.1158635208495609 [Eh]
	 SCS Opposite-Spin Energy  =      -1.5262323993597882 [Eh]
	 SCS Correlation Energy    =      -1.6420959202093490 [Eh]
	 SCS Total Energy          =    -315.1648487026971566 [Eh]
	-----------------------------------------------------------

  Dipole Moment: [D]
     X:    -0.0079      Y:    -0.0357      Z:     0.0498     Total:     0.0617

*** Psi4 exiting successfully. Buy a developer a beer!
