                               Psi4 1.3.2 release

  ==> Input File <==

--------------------------------------------------------------------------
#psi4
#
memory 32 gb

molecule  {
0 1
  C        0.7863980     0.0000030     0.0000120
  C       -0.7863980     0.0000120     0.0000240
  C        1.3789025    -1.3408363    -0.4603573
  C        1.3524640     1.1065670    -0.9032830
  C        1.3525400     0.2289610     1.4099520
  C       -1.3524910    -1.1062660     0.9036570
  C       -1.3524520    -0.2294520    -1.4098630
  C       -1.3524900     1.3357370     0.5062260
  H        1.0503260    -1.5480580    -1.5357290
  H        2.4470620    -1.2938500    -0.4906500
  H        1.0499830    -2.1772130     0.1221590
  H        1.0504580     2.1040080    -0.5727870
  H        1.0499540     0.9828170    -1.9465980
  H        2.4470950     1.0717320    -0.8752540
  H        1.0505330    -0.5559650     2.1085260
  H        2.4471690     0.2220440     1.3657150
  H        1.0501100     1.1943870     1.8244580
  H       -2.4471220    -1.0718850     0.8750370
  H       -1.0505830    -0.9818080     1.9470560
  H       -1.0499150    -2.1037750     0.5738810
  H       -1.0500140     0.5549800    -2.1088100
  H       -1.0503580    -1.1952220    -1.8238120
  H       -2.4470840    -0.2220600    -1.3657770
  H       -1.0503710     2.1771240    -0.1231520
  H       -2.4471210     1.2938540     0.4905180
  H       -1.0501240     1.5488250     1.5350580
units angstrom
no_reorient  #important for SAPT in psi4, default
symmetry c1  #important for SAPT in psi4, default
}

set PROPERTIES_ORIGIN ["COM"]
properties('MP2/aug-cc-pvtz', properties = ['dipole'])
--------------------------------------------------------------------------

    Molecular point group: c1
  Charge       = 0
  Multiplicity = 1
  Basis Set: AUG-CC-PVTZ
    Blend: AUG-CC-PVTZ
  Basis Set: (AUG-CC-PVTZ AUX)
    Blend: AUG-CC-PVTZ-JKFIT

    Orbital Energies [Eh]
    ---------------------

    Doubly Occupied:

       1A    -11.231043     2A    -11.230331     3A    -11.206004
       4A    -11.205955     5A    -11.205876     6A    -11.205870
       7A    -11.205315     8A    -11.204758     9A     -1.125562
      10A     -1.039826    11A     -0.939747    12A     -0.937499
      13A     -0.910310    14A     -0.908915    15A     -0.805135
      16A     -0.691520    17A     -0.648595    18A     -0.602213
      19A     -0.600404    20A     -0.595518    21A     -0.592457
      22A     -0.555525    23A     -0.532305    24A     -0.528176
      25A     -0.524445    26A     -0.511065    27A     -0.507383
      28A     -0.488613    29A     -0.482703    30A     -0.476117
      31A     -0.434461    32A     -0.428446    33A     -0.426706

  @DF-RHF Final Energy:  -313.52574018370024

   => Energetics <=

    Nuclear Repulsion Energy =            437.8369085267935930
    One-Electron Energy =               -1290.7477066064327573
    Two-Electron Energy =                 539.3850578959388713
    Total Energy =                       -313.5257401837002362
  Basis Set: (AUG-CC-PVTZ AUX)
    Blend: AUG-CC-PVTZ-RI
    Molecular point group: c1

    Geometry (in Angstrom), charge = 0, multiplicity = 1:

       Center              X                  Y                   Z               Mass
    ------------   -----------------  -----------------  -----------------  -----------------
         C            0.783614772236     0.000558078294    -0.004861365998    12.000000000000
         C           -0.789181227764     0.000567078294    -0.004849365998    12.000000000000
         C            1.376119272236    -1.340281221706    -0.465230665998    12.000000000000
         C            1.349680772236     1.107122078294    -0.908156365998    12.000000000000
         C            1.349756772236     0.229516078294     1.405078634002    12.000000000000
         C           -1.355274227764    -1.105710921706     0.898783634002    12.000000000000
         C           -1.355235227764    -0.228896921706    -1.414736365998    12.000000000000
         C           -1.355273227764     1.336292078294     0.501352634002    12.000000000000
         H            1.047542772236    -1.547502921706    -1.540602365998     1.007825032230
         H            2.444278772236    -1.293294921706    -0.495523365998     1.007825032230
         H            1.047199772236    -2.176657921706     0.117285634002     1.007825032230
         H            1.047674772236     2.104563078294    -0.577660365998     1.007825032230
         H            1.047170772236     0.983372078294    -1.951471365998     1.007825032230
         H            2.444311772236     1.072287078294    -0.880127365998     1.007825032230
         H            1.047749772236    -0.555409921706     2.103652634002     1.007825032230
         H            2.444385772236     0.222599078294     1.360841634002     1.007825032230
         H            1.047326772236     1.194942078294     1.819584634002     1.007825032230
         H           -2.449905227764    -1.071329921706     0.870163634002     1.007825032230
         H           -1.053366227764    -0.981252921706     1.942182634002     1.007825032230
         H           -1.052698227764    -2.103219921706     0.569007634002     1.007825032230
         H           -1.052797227764     0.555535078294    -2.113683365998     1.007825032230
         H           -1.053141227764    -1.194666921706    -1.828685365998     1.007825032230
         H           -2.449867227764    -0.221504921706    -1.370650365998     1.007825032230
         H           -1.053154227764     2.177679078294    -0.128025365998     1.007825032230
         H           -2.449904227764     1.294409078294     0.485644634002     1.007825032230
         H           -1.052907227764     1.549380078294     1.530184634002     1.007825032230

  Basis Set: AUG-CC-PVTZ
    Blend: AUG-CC-PVTZ
  Basis Set: (AUG-CC-PVTZ AUX)
    Blend: AUG-CC-PVTZ-JKFIT
	 Reference Energy          =    -313.5257401837002362 [Eh]
	 Singles Energy            =      -0.0000000000000000 [Eh]
	 Same-Spin Energy          =      -0.3477009601172931 [Eh]
	 Opposite-Spin Energy      =      -1.2725627732503586 [Eh]
	 Correlation Energy        =      -1.6202637333676517 [Eh]
	 Total Energy              =    -315.1460039170679011 [Eh]

	 ================> DF-SCS-MP2 Energies <==================
	-----------------------------------------------------------
	 SCS Same-Spin Scale       =       0.3333333333333333 [-]
	 SCS Opposite-Spin Scale   =       1.2000000000000000 [-]
	 SCS Same-Spin Energy      =      -0.1159003200390977 [Eh]
	 SCS Opposite-Spin Energy  =      -1.5270753279004303 [Eh]
	 SCS Correlation Energy    =      -1.6429756479395281 [Eh]
	 SCS Total Energy          =    -315.1687158316397586 [Eh]
	-----------------------------------------------------------

  Dipole Moment: [D]
     X:    -0.0006      Y:     0.0048      Z:     0.0174     Total:     0.0181

*** Psi4 exiting successfully. Buy a developer a beer!
