                               Psi4 1.3.2 release

  ==> Input File <==

--------------------------------------------------------------------------
#psi4
#
memory 32 gb

molecule  {
0 1
  C        0.7863980     0.0000030     0.0000120
  C       -0.7863980     0.0000120     0.0000240
  C        1.4296525    -1.3465018    -0.3660484
  C        1.3524640     1.1065670    -0.9032830
  C        1.3525400     0.2289610     1.4099520
  C       -1.3524910    -1.1062660     0.9036570
  C       -1.3524520    -0.2294520    -1.4098630
  C       -1.3524900     1.3357370     0.5062260
  H        1.0503260    -1.5480580    -1.5357290
  H        2.4470620    -1.2938500    -0.4906500
  H        1.0499830    -2.1772130     0.1221590
  H        1.0504580     2.1040080    -0.5727870
  H        1.0499540     0.9828170    -1.9465980
  H        2.4470950     1.0717320    -0.8752540
  H        1.0505330    -0.5559650     2.1085260
  H        2.4471690     0.2220440     1.3657150
  H        1.0501100     1.1943870     1.8244580
  H       -2.4471220    -1.0718850     0.8750370
  H       -1.0505830    -0.9818080     1.9470560
  H       -1.0499150    -2.1037750     0.5738810
  H       -1.0500140     0.5549800    -2.1088100
  H       -1.0503580    -1.1952220    -1.8238120
  H       -2.4470840    -0.2220600    -1.3657770
  H       -1.0503710     2.1771240    -0.1231520
  H       -2.4471210     1.2938540     0.4905180
  H       -1.0501240     1.5488250     1.5350580
units angstrom
no_reorient  #important for SAPT in psi4, default
symmetry c1  #important for SAPT in psi4, default
}

set PROPERTIES_ORIGIN ["COM"]
properties('MP2/aug-cc-pvtz', properties = ['dipole'])
--------------------------------------------------------------------------

    Molecular point group: c1
  Charge       = 0
  Multiplicity = 1
  Basis Set: AUG-CC-PVTZ
    Blend: AUG-CC-PVTZ
  Basis Set: (AUG-CC-PVTZ AUX)
    Blend: AUG-CC-PVTZ-JKFIT

    Orbital Energies [Eh]
    ---------------------

    Doubly Occupied:

       1A    -11.232430     2A    -11.231692     3A    -11.209595
       4A    -11.207233     5A    -11.206933     6A    -11.206751
       7A    -11.204939     8A    -11.203998     9A     -1.126386
      10A     -1.041943    11A     -0.942186    12A     -0.935855
      13A     -0.912379    14A     -0.908261    15A     -0.806820
      16A     -0.693623    17A     -0.652781    18A     -0.606827
      19A     -0.600255    20A     -0.596956    21A     -0.590820
      22A     -0.560820    23A     -0.539086    24A     -0.528667
      25A     -0.520079    26A     -0.514131    27A     -0.507067
      28A     -0.486791    29A     -0.485345    30A     -0.464397
      31A     -0.438666    32A     -0.430457    33A     -0.413263

  @DF-RHF Final Energy:  -313.50465331771585

   => Energetics <=

    Nuclear Repulsion Energy =            437.6919056811150313
    One-Electron Energy =               -1290.3782581570419552
    Two-Electron Energy =                 539.1816991582111314
    Total Energy =                       -313.5046533177157926
  Basis Set: (AUG-CC-PVTZ AUX)
    Blend: AUG-CC-PVTZ-RI
    Molecular point group: c1

    Geometry (in Angstrom), charge = 0, multiplicity = 1:

       Center              X                  Y                   Z               Mass
    ------------   -----------------  -----------------  -----------------  -----------------
         C            0.778279259167     0.001153710792    -0.014776368333    12.000000000000
         C           -0.794516740833     0.001162710792    -0.014764368333    12.000000000000
         C            1.421533759167    -1.345351089208    -0.380836768333    12.000000000000
         C            1.344345259167     1.107717710792    -0.918071368333    12.000000000000
         C            1.344421259167     0.230111710792     1.395163631667    12.000000000000
         C           -1.360609740833    -1.105115289208     0.888868631667    12.000000000000
         C           -1.360570740833    -0.228301289208    -1.424651368333    12.000000000000
         C           -1.360608740833     1.336887710792     0.491437631667    12.000000000000
         H            1.042207259167    -1.546907289208    -1.550517368333     1.007825032230
         H            2.438943259167    -1.292699289208    -0.505438368333     1.007825032230
         H            1.041864259167    -2.176062289208     0.107370631667     1.007825032230
         H            1.042339259167     2.105158710792    -0.587575368333     1.007825032230
         H            1.041835259167     0.983967710792    -1.961386368333     1.007825032230
         H            2.438976259167     1.072882710792    -0.890042368333     1.007825032230
         H            1.042414259167    -0.554814289208     2.093737631667     1.007825032230
         H            2.439050259167     0.223194710792     1.350926631667     1.007825032230
         H            1.041991259167     1.195537710792     1.809669631667     1.007825032230
         H           -2.455240740833    -1.070734289208     0.860248631667     1.007825032230
         H           -1.058701740833    -0.980657289208     1.932267631667     1.007825032230
         H           -1.058033740833    -2.102624289208     0.559092631667     1.007825032230
         H           -1.058132740833     0.556130710792    -2.123598368333     1.007825032230
         H           -1.058476740833    -1.194071289208    -1.838600368333     1.007825032230
         H           -2.455202740833    -0.220909289208    -1.380565368333     1.007825032230
         H           -1.058489740833     2.178274710792    -0.137940368333     1.007825032230
         H           -2.455239740833     1.295004710792     0.475729631667     1.007825032230
         H           -1.058242740833     1.549975710792     1.520269631667     1.007825032230

  Basis Set: AUG-CC-PVTZ
    Blend: AUG-CC-PVTZ
  Basis Set: (AUG-CC-PVTZ AUX)
    Blend: AUG-CC-PVTZ-JKFIT
	 Reference Energy          =    -313.5046533177158494 [Eh]
	 Singles Energy            =      -0.0000000000000000 [Eh]
	 Same-Spin Energy          =      -0.3480913888131721 [Eh]
	 Opposite-Spin Energy      =      -1.2736673168825114 [Eh]
	 Correlation Energy        =      -1.6217587056956835 [Eh]
	 Total Energy              =    -315.1264120234115467 [Eh]

	 ================> DF-SCS-MP2 Energies <==================
	-----------------------------------------------------------
	 SCS Same-Spin Scale       =       0.3333333333333333 [-]
	 SCS Opposite-Spin Scale   =       1.2000000000000000 [-]
	 SCS Same-Spin Energy      =      -0.1160304629377240 [Eh]
	 SCS Opposite-Spin Energy  =      -1.5284007802590136 [Eh]
	 SCS Correlation Energy    =      -1.6444312431967376 [Eh]
	 SCS Total Energy          =    -315.1490845609125699 [Eh]
	-----------------------------------------------------------

  Dipole Moment: [D]
     X:    -0.0102      Y:     0.0389      Z:     0.0776     Total:     0.0874

*** Psi4 exiting successfully. Buy a developer a beer!
