                               Psi4 1.3.2 release

  ==> Input File <==

--------------------------------------------------------------------------
#psi4
#
memory 32 gb

molecule  {
0 1
  C        0.7863980     0.0000030     0.0000120
  C       -0.7825677    -0.0175739    -0.1082701
  C        1.3524290    -1.3355510    -0.5066990
  C        1.3524640     1.1065670    -0.9032830
  C        1.3525400     0.2289610     1.4099520
  C       -1.3524910    -1.1062660     0.9036570
  C       -1.3524520    -0.2294520    -1.4098630
  C       -1.3524900     1.3357370     0.5062260
  H        1.0503260    -1.5480580    -1.5357290
  H        2.4470620    -1.2938500    -0.4906500
  H        1.0499830    -2.1772130     0.1221590
  H        1.0504580     2.1040080    -0.5727870
  H        1.0499540     0.9828170    -1.9465980
  H        2.4470950     1.0717320    -0.8752540
  H        1.0505330    -0.5559650     2.1085260
  H        2.4471690     0.2220440     1.3657150
  H        1.0501100     1.1943870     1.8244580
  H       -2.4471220    -1.0718850     0.8750370
  H       -1.0505830    -0.9818080     1.9470560
  H       -1.0499150    -2.1037750     0.5738810
  H       -1.0500140     0.5549800    -2.1088100
  H       -1.0503580    -1.1952220    -1.8238120
  H       -2.4470840    -0.2220600    -1.3657770
  H       -1.0503710     2.1771240    -0.1231520
  H       -2.4471210     1.2938540     0.4905180
  H       -1.0501240     1.5488250     1.5350580
units angstrom
no_reorient  #important for SAPT in psi4, default
symmetry c1  #important for SAPT in psi4, default
}

set PROPERTIES_ORIGIN ["COM"]
properties('MP2/aug-cc-pvtz', properties = ['dipole'])
--------------------------------------------------------------------------

    Molecular point group: c1
  Charge       = 0
  Multiplicity = 1
  Basis Set: AUG-CC-PVTZ
    Blend: AUG-CC-PVTZ
  Basis Set: (AUG-CC-PVTZ AUX)
    Blend: AUG-CC-PVTZ-JKFIT

    Orbital Energies [Eh]
    ---------------------

    Doubly Occupied:

       1A    -11.231708     2A    -11.231057     3A    -11.207678
       4A    -11.206211     5A    -11.206198     6A    -11.204825
       7A    -11.204808     8A    -11.204028     9A     -1.127154
      10A     -1.041601    11A     -0.942651    12A     -0.935305
      13A     -0.913331    14A     -0.904992    15A     -0.804725
      16A     -0.691932    17A     -0.648391    18A     -0.604906
      19A     -0.601829    20A     -0.596905    21A     -0.590139
      22A     -0.553965    23A     -0.528818    24A     -0.528573
      25A     -0.527242    26A     -0.512208    27A     -0.505391
      28A     -0.492962    29A     -0.490153    30A     -0.472422
      31A     -0.450367    32A     -0.416443    33A     -0.412495

  @DF-RHF Final Energy:  -313.51599496338503

   => Energetics <=

    Nuclear Repulsion Energy =            437.9511717287618922
    One-Electron Energy =               -1290.9515107955335225
    Two-Electron Energy =                 539.4843441033865474
    Total Energy =                       -313.5159949633850829
  Basis Set: (AUG-CC-PVTZ AUX)
    Blend: AUG-CC-PVTZ-RI
    Molecular point group: c1

    Geometry (in Angstrom), charge = 0, multiplicity = 1:

       Center              X                  Y                   Z               Mass
    ------------   -----------------  -----------------  -----------------  -----------------
         C            0.785995325724     0.001851280502     0.011396000147    12.000000000000
         C           -0.782970374276    -0.015725619498    -0.096886099853    12.000000000000
         C            1.352026325724    -1.333702719498    -0.495314999853    12.000000000000
         C            1.352061325724     1.108415280502    -0.891898999853    12.000000000000
         C            1.352137325724     0.230809280502     1.421336000147    12.000000000000
         C           -1.352893674276    -1.104417719498     0.915041000147    12.000000000000
         C           -1.352854674276    -0.227603719498    -1.398478999853    12.000000000000
         C           -1.352892674276     1.337585280502     0.517610000147    12.000000000000
         H            1.049923325724    -1.546209719498    -1.524344999853     1.007825032230
         H            2.446659325724    -1.292001719498    -0.479265999853     1.007825032230
         H            1.049580325724    -2.175364719498     0.133543000147     1.007825032230
         H            1.050055325724     2.105856280502    -0.561402999853     1.007825032230
         H            1.049551325724     0.984665280502    -1.935213999853     1.007825032230
         H            2.446692325724     1.073580280502    -0.863869999853     1.007825032230
         H            1.050130325724    -0.554116719498     2.119910000147     1.007825032230
         H            2.446766325724     0.223892280502     1.377099000147     1.007825032230
         H            1.049707325724     1.196235280502     1.835842000147     1.007825032230
         H           -2.447524674276    -1.070036719498     0.886421000147     1.007825032230
         H           -1.050985674276    -0.979959719498     1.958440000147     1.007825032230
         H           -1.050317674276    -2.101926719498     0.585265000147     1.007825032230
         H           -1.050416674276     0.556828280502    -2.097425999853     1.007825032230
         H           -1.050760674276    -1.193373719498    -1.812427999853     1.007825032230
         H           -2.447486674276    -0.220211719498    -1.354392999853     1.007825032230
         H           -1.050773674276     2.178972280502    -0.111767999853     1.007825032230
         H           -2.447523674276     1.295702280502     0.501902000147     1.007825032230
         H           -1.050526674276     1.550673280502     1.546442000147     1.007825032230

  Basis Set: AUG-CC-PVTZ
    Blend: AUG-CC-PVTZ
  Basis Set: (AUG-CC-PVTZ AUX)
    Blend: AUG-CC-PVTZ-JKFIT
	 Reference Energy          =    -313.5159949633850260 [Eh]
	 Singles Energy            =      -0.0000000000000000 [Eh]
	 Same-Spin Energy          =      -0.3482438676743680 [Eh]
	 Opposite-Spin Energy      =      -1.2735193681907395 [Eh]
	 Correlation Energy        =      -1.6217632358651075 [Eh]
	 Total Energy              =    -315.1377581992501291 [Eh]

	 ================> DF-SCS-MP2 Energies <==================
	-----------------------------------------------------------
	 SCS Same-Spin Scale       =       0.3333333333333333 [-]
	 SCS Opposite-Spin Scale   =       1.2000000000000000 [-]
	 SCS Same-Spin Energy      =      -0.1160812892247893 [Eh]
	 SCS Opposite-Spin Energy  =      -1.5282232418288875 [Eh]
	 SCS Correlation Energy    =      -1.6443045310536768 [Eh]
	 SCS Total Energy          =    -315.1602994944386751 [Eh]
	-----------------------------------------------------------

  Dipole Moment: [D]
     X:     0.0135      Y:    -0.0057      Z:    -0.0350     Total:     0.0379

*** Psi4 exiting successfully. Buy a developer a beer!
