                               Psi4 1.3.2 release

  ==> Input File <==

--------------------------------------------------------------------------
#psi4
#
memory 32 gb

molecule  {
0 1
  C        0.7863980     0.0000030     0.0000120
  C       -0.7863980     0.0000120     0.0000240
  C        1.3252659    -1.3286385    -0.5524233
  C        1.3524640     1.1065670    -0.9032830
  C        1.3525400     0.2289610     1.4099520
  C       -1.3524910    -1.1062660     0.9036570
  C       -1.3524520    -0.2294520    -1.4098630
  C       -1.3524900     1.3357370     0.5062260
  H        1.0503260    -1.5480580    -1.5357290
  H        2.4470620    -1.2938500    -0.4906500
  H        1.0499830    -2.1772130     0.1221590
  H        1.0504580     2.1040080    -0.5727870
  H        1.0499540     0.9828170    -1.9465980
  H        2.4470950     1.0717320    -0.8752540
  H        1.0505330    -0.5559650     2.1085260
  H        2.4471690     0.2220440     1.3657150
  H        1.0501100     1.1943870     1.8244580
  H       -2.4471220    -1.0718850     0.8750370
  H       -1.0505830    -0.9818080     1.9470560
  H       -1.0499150    -2.1037750     0.5738810
  H       -1.0500140     0.5549800    -2.1088100
  H       -1.0503580    -1.1952220    -1.8238120
  H       -2.4470840    -0.2220600    -1.3657770
  H       -1.0503710     2.1771240    -0.1231520
  H       -2.4471210     1.2938540     0.4905180
  H       -1.0501240     1.5488250     1.5350580
units angstrom
no_reorient  #important for SAPT in psi4, default
symmetry c1  #important for SAPT in psi4, default
}

set PROPERTIES_ORIGIN ["COM"]
properties('MP2/aug-cc-pvtz', properties = ['dipole'])
--------------------------------------------------------------------------

    Molecular point group: c1
  Charge       = 0
  Multiplicity = 1
  Basis Set: AUG-CC-PVTZ
    Blend: AUG-CC-PVTZ
  Basis Set: (AUG-CC-PVTZ AUX)
    Blend: AUG-CC-PVTZ-JKFIT

    Orbital Energies [Eh]
    ---------------------

    Doubly Occupied:

       1A    -11.230844     2A    -11.229870     3A    -11.206550
       4A    -11.206161     5A    -11.205766     6A    -11.205253
       7A    -11.205162     8A    -11.205155     9A     -1.125671
      10A     -1.038593    11A     -0.940469    12A     -0.937999
      13A     -0.910295    14A     -0.908942    15A     -0.804529
      16A     -0.691604    17A     -0.647873    18A     -0.603121
      19A     -0.600359    20A     -0.597025    21A     -0.594609
      22A     -0.551967    23A     -0.531823    24A     -0.528087
      25A     -0.524685    26A     -0.507948    27A     -0.503133
      28A     -0.491429    29A     -0.484110    30A     -0.478891
      31A     -0.435604    32A     -0.430145    33A     -0.423314

  @DF-RHF Final Energy:  -313.52528140160916

   => Energetics <=

    Nuclear Repulsion Energy =            438.0462921849418194
    One-Electron Energy =               -1291.1691741316160460
    Two-Electron Energy =                 539.5976005450650064
    Total Energy =                       -313.5252814016091634
  Basis Set: (AUG-CC-PVTZ AUX)
    Blend: AUG-CC-PVTZ-RI
    Molecular point group: c1

    Geometry (in Angstrom), charge = 0, multiplicity = 1:

       Center              X                  Y                   Z               Mass
    ------------   -----------------  -----------------  -----------------  -----------------
         C            0.789253762981    -0.000724316215     0.004817832943    12.000000000000
         C           -0.783542237019    -0.000715316215     0.004829832943    12.000000000000
         C            1.328121662981    -1.329365816215    -0.547617467057    12.000000000000
         C            1.355319762981     1.105839683785    -0.898477167057    12.000000000000
         C            1.355395762981     0.228233683785     1.414757832943    12.000000000000
         C           -1.349635237019    -1.106993316215     0.908462832943    12.000000000000
         C           -1.349596237019    -0.230179316215    -1.405057167057    12.000000000000
         C           -1.349634237019     1.335009683785     0.511031832943    12.000000000000
         H            1.053181762981    -1.548785316215    -1.530923167057     1.007825032230
         H            2.449917762981    -1.294577316215    -0.485844167057     1.007825032230
         H            1.052838762981    -2.177940316215     0.126964832943     1.007825032230
         H            1.053313762981     2.103280683785    -0.567981167057     1.007825032230
         H            1.052809762981     0.982089683785    -1.941792167057     1.007825032230
         H            2.449950762981     1.071004683785    -0.870448167057     1.007825032230
         H            1.053388762981    -0.556692316215     2.113331832943     1.007825032230
         H            2.450024762981     0.221316683785     1.370520832943     1.007825032230
         H            1.052965762981     1.193659683785     1.829263832943     1.007825032230
         H           -2.444266237019    -1.072612316215     0.879842832943     1.007825032230
         H           -1.047727237019    -0.982535316215     1.951861832943     1.007825032230
         H           -1.047059237019    -2.104502316215     0.578686832943     1.007825032230
         H           -1.047158237019     0.554252683785    -2.104004167057     1.007825032230
         H           -1.047502237019    -1.195949316215    -1.819006167057     1.007825032230
         H           -2.444228237019    -0.222787316215    -1.360971167057     1.007825032230
         H           -1.047515237019     2.176396683785    -0.118346167057     1.007825032230
         H           -2.444265237019     1.293126683785     0.495323832943     1.007825032230
         H           -1.047268237019     1.548097683785     1.539863832943     1.007825032230

  Basis Set: AUG-CC-PVTZ
    Blend: AUG-CC-PVTZ
  Basis Set: (AUG-CC-PVTZ AUX)
    Blend: AUG-CC-PVTZ-JKFIT
	 Reference Energy          =    -313.5252814016091634 [Eh]
	 Singles Energy            =      -0.0000000000000000 [Eh]
	 Same-Spin Energy          =      -0.3477908326753740 [Eh]
	 Opposite-Spin Energy      =      -1.2726997069599992 [Eh]
	 Correlation Energy        =      -1.6204905396353733 [Eh]
	 Total Energy              =    -315.1457719412445613 [Eh]

	 ================> DF-SCS-MP2 Energies <==================
	-----------------------------------------------------------
	 SCS Same-Spin Scale       =       0.3333333333333333 [-]
	 SCS Opposite-Spin Scale   =       1.2000000000000000 [-]
	 SCS Same-Spin Energy      =      -0.1159302775584580 [Eh]
	 SCS Opposite-Spin Energy  =      -1.5272396483519990 [Eh]
	 SCS Correlation Energy    =      -1.6431699259104571 [Eh]
	 SCS Total Energy          =    -315.1684513275196196 [Eh]
	-----------------------------------------------------------

  Dipole Moment: [D]
     X:    -0.0027      Y:     0.0042      Z:    -0.0080     Total:     0.0094

*** Psi4 exiting successfully. Buy a developer a beer!
