                               Psi4 1.4a3.dev225

  ==> Input File <==

--------------------------------------------------------------------------
#psi4
#
memory 32 gb

molecule  {
0 1
  C       -0.7850910     0.0000000     0.0000000
  C        0.7850910    -0.0000010    -0.0000010
  C       -1.3439760    -0.4944350    -1.3423090
  C       -1.3439740    -0.9152570     1.0993500
  C       -1.3439720     1.4096940     0.2429620
  C        1.3439730     1.1443700    -0.8583020
  C        1.3439730    -1.3154970    -0.5619030
  C        1.3439760     0.1711260     1.4202020
  H       -1.1416160    -1.5573230    -1.5000190
  H       -2.4313800    -0.3612870    -1.3560980
  H       -0.9341760     0.0624770    -2.1904460
  H       -1.1416360    -0.5203790     2.0986910
  H       -0.9341530    -1.9282130     1.0411340
  H       -2.4313740    -0.9937940     0.9909190
  H       -1.1453262     2.0654940    -0.5832833
  H       -2.4313730     1.3550610     0.3651840
  H       -0.9341560     1.8657500     1.1493220
  H        2.4313750     1.0400720    -0.9422290
  H        1.1416220     2.1223900    -0.4132370
  H        0.9341610     1.1376140    -1.8729120
  H        0.9341510    -2.1907970    -0.0487560
  H        1.1416360    -1.4190650    -1.6314290
  H        2.4313730    -1.3360370    -0.4296020
  H        1.1416200    -0.7033180     2.0446640
  H        2.4313790     0.2959480     1.3718390
  H        0.9341720     1.0531860     1.9216540
units angstrom
no_reorient  #important for SAPT in psi4, default
symmetry c1  #important for SAPT in psi4, default
}

set PROPERTIES_ORIGIN ["COM"]
properties('MP2/aug-cc-pvtz', properties = ['dipole'])
--------------------------------------------------------------------------

    Molecular point group: c1
  Charge       = 0
  Multiplicity = 1
  Basis Set: AUG-CC-PVTZ
    Blend: AUG-CC-PVTZ
  Basis Set: (AUG-CC-PVTZ AUX)
    Blend: AUG-CC-PVTZ-JKFIT

    Orbital Energies [Eh]
    ---------------------

    Doubly Occupied:

       1A    -11.229759     2A    -11.229202     3A    -11.205996
       4A    -11.205886     5A    -11.205875     6A    -11.205847
       7A    -11.205687     8A    -11.203422     9A     -1.126683
      10A     -1.038323    11A     -0.941072    12A     -0.940198
      13A     -0.909487    14A     -0.908613    15A     -0.804674
      16A     -0.690827    17A     -0.647964    18A     -0.606643
      19A     -0.605844    20A     -0.589989    21A     -0.589167
      22A     -0.551581    23A     -0.531574    24A     -0.531169
      25A     -0.521494    26A     -0.508282    27A     -0.508069
      28A     -0.496898    29A     -0.482280    30A     -0.481756
      31A     -0.431694    32A     -0.431390    33A     -0.424533

  @DF-RHF Final Energy:  -313.52950072580143

   => Energetics <=

    Nuclear Repulsion Energy =            438.6585704826516690
    One-Electron Energy =               -1292.3923838692264781
    Two-Electron Energy =                 540.2043126607734393
    Total Energy =                       -313.5295007258014266
  Basis Set: (AUG-CC-PVTZ AUX)
    Blend: AUG-CC-PVTZ-RI
    Molecular point group: c1

    Geometry (in Angstrom), charge = 0, multiplicity = 1:

       Center              X                  Y                   Z               Mass
    ------------   -----------------  -----------------  -----------------  -----------------
         C           -0.785058319658     0.000107907289    -0.000135833681    12.000000000000
         C            0.785123680342     0.000106907289    -0.000136833681    12.000000000000
         C           -1.343943319658    -0.494327092711    -1.342444833681    12.000000000000
         C           -1.343941319658    -0.915149092711     1.099214166319    12.000000000000
         C           -1.343939319658     1.409801907289     0.242826166319    12.000000000000
         C            1.344005680342     1.144477907289    -0.858437833681    12.000000000000
         C            1.344005680342    -1.315389092711    -0.562038833681    12.000000000000
         C            1.344008680342     0.171233907289     1.420066166319    12.000000000000
         H           -1.141583319658    -1.557215092711    -1.500154833681     1.007825032230
         H           -2.431347319658    -0.361179092711    -1.356233833681     1.007825032230
         H           -0.934143319658     0.062584907289    -2.190581833681     1.007825032230
         H           -1.141603319658    -0.520271092711     2.098555166319     1.007825032230
         H           -0.934120319658    -1.928105092711     1.040998166319     1.007825032230
         H           -2.431341319658    -0.993686092711     0.990783166319     1.007825032230
         H           -1.145293519658     2.065601907289    -0.583419133681     1.007825032230
         H           -2.431340319658     1.355168907289     0.365048166319     1.007825032230
         H           -0.934123319658     1.865857907289     1.149186166319     1.007825032230
         H            2.431407680342     1.040179907289    -0.942364833681     1.007825032230
         H            1.141654680342     2.122497907289    -0.413372833681     1.007825032230
         H            0.934193680342     1.137721907289    -1.873047833681     1.007825032230
         H            0.934183680342    -2.190689092711    -0.048891833681     1.007825032230
         H            1.141668680342    -1.418957092711    -1.631564833681     1.007825032230
         H            2.431405680342    -1.335929092711    -0.429737833681     1.007825032230
         H            1.141652680342    -0.703210092711     2.044528166319     1.007825032230
         H            2.431411680342     0.296055907289     1.371703166319     1.007825032230
         H            0.934204680342     1.053293907289     1.921518166319     1.007825032230

  Basis Set: AUG-CC-PVTZ
    Blend: AUG-CC-PVTZ
  Basis Set: (AUG-CC-PVTZ AUX)
    Blend: AUG-CC-PVTZ-JKFIT
	 Reference Energy          =    -313.5295007258014266 [Eh]
	 Singles Energy            =      -0.0000000000000000 [Eh]
	 Same-Spin Energy          =      -0.3477327390679433 [Eh]
	 Opposite-Spin Energy      =      -1.2729796474012001 [Eh]
	 Correlation Energy        =      -1.6207123864691435 [Eh]
	 Total Energy              =    -315.1502131122705919 [Eh]

	 ================> DF-SCS-MP2 Energies <==================
	-----------------------------------------------------------
	 SCS Same-Spin Scale       =       0.3333333333333333 [-]
	 SCS Opposite-Spin Scale   =       1.2000000000000000 [-]
	 SCS Same-Spin Energy      =      -0.1159109130226478 [Eh]
	 SCS Opposite-Spin Energy  =      -1.5275755768814401 [Eh]
	 SCS Correlation Energy    =      -1.6434864899040877 [Eh]
	 SCS Total Energy          =    -315.1729872157055183 [Eh]
	-----------------------------------------------------------

  Dipole Moment: [D]
     X:     0.0007      Y:     0.0105      Z:    -0.0083     Total:     0.0134

*** Psi4 exiting successfully. Buy a developer a beer!
