                               Psi4 1.3.2 release

  ==> Input File <==

--------------------------------------------------------------------------
#psi4
#
memory 32 gb

molecule  {
0 1
  C        0.7863980     0.0000030     0.0000120
  C       -0.7854394     0.0088103     0.0542040
  C        1.3524290    -1.3355510    -0.5066990
  C        1.3524640     1.1065670    -0.9032830
  C        1.3525400     0.2289610     1.4099520
  C       -1.3524910    -1.1062660     0.9036570
  C       -1.3524520    -0.2294520    -1.4098630
  C       -1.3524900     1.3357370     0.5062260
  H        1.0503260    -1.5480580    -1.5357290
  H        2.4470620    -1.2938500    -0.4906500
  H        1.0499830    -2.1772130     0.1221590
  H        1.0504580     2.1040080    -0.5727870
  H        1.0499540     0.9828170    -1.9465980
  H        2.4470950     1.0717320    -0.8752540
  H        1.0505330    -0.5559650     2.1085260
  H        2.4471690     0.2220440     1.3657150
  H        1.0501100     1.1943870     1.8244580
  H       -2.4471220    -1.0718850     0.8750370
  H       -1.0505830    -0.9818080     1.9470560
  H       -1.0499150    -2.1037750     0.5738810
  H       -1.0500140     0.5549800    -2.1088100
  H       -1.0503580    -1.1952220    -1.8238120
  H       -2.4470840    -0.2220600    -1.3657770
  H       -1.0503710     2.1771240    -0.1231520
  H       -2.4471210     1.2938540     0.4905180
  H       -1.0501240     1.5488250     1.5350580
units angstrom
no_reorient  #important for SAPT in psi4, default
symmetry c1  #important for SAPT in psi4, default
}

set PROPERTIES_ORIGIN ["COM"]
properties('MP2/aug-cc-pvtz', properties = ['dipole'])
--------------------------------------------------------------------------

    Molecular point group: c1
  Charge       = 0
  Multiplicity = 1
  Basis Set: AUG-CC-PVTZ
    Blend: AUG-CC-PVTZ
  Basis Set: (AUG-CC-PVTZ AUX)
    Blend: AUG-CC-PVTZ-JKFIT

    Orbital Energies [Eh]
    ---------------------

    Doubly Occupied:

       1A    -11.230923     2A    -11.230383     3A    -11.206040
       4A    -11.206022     5A    -11.205659     6A    -11.205468
       7A    -11.205448     8A    -11.204716     9A     -1.125853
      10A     -1.039591    11A     -0.941126    12A     -0.936686
      13A     -0.911560    14A     -0.907255    15A     -0.804677
      16A     -0.691355    17A     -0.647905    18A     -0.602143
      19A     -0.601052    20A     -0.596321    21A     -0.592827
      22A     -0.553490    23A     -0.528658    24A     -0.527902
      25A     -0.527747    26A     -0.509399    27A     -0.506376
      28A     -0.490348    29A     -0.486825    30A     -0.475908
      31A     -0.438961    32A     -0.432131    33A     -0.416404

  @DF-RHF Final Energy:  -313.52579531535980

   => Energetics <=

    Nuclear Repulsion Energy =            437.9342511116478818
    One-Electron Energy =               -1290.9457742813181085
    Two-Electron Energy =                 539.4857278543104258
    Total Energy =                       -313.5257953153598010
  Basis Set: (AUG-CC-PVTZ AUX)
    Blend: AUG-CC-PVTZ-RI
    Molecular point group: c1

    Geometry (in Angstrom), charge = 0, multiplicity = 1:

       Center              X                  Y                   Z               Mass
    ------------   -----------------  -----------------  -----------------  -----------------
         C            0.786297236914    -0.000922576521    -0.005685432049    12.000000000000
         C           -0.785540163086     0.007884723479     0.048506567951    12.000000000000
         C            1.352328236914    -1.336476576521    -0.512396432049    12.000000000000
         C            1.352363236914     1.105641423479    -0.908980432049    12.000000000000
         C            1.352439236914     0.228035423479     1.404254567951    12.000000000000
         C           -1.352591763086    -1.107191576521     0.897959567951    12.000000000000
         C           -1.352552763086    -0.230377576521    -1.415560432049    12.000000000000
         C           -1.352590763086     1.334811423479     0.500528567951    12.000000000000
         H            1.050225236914    -1.548983576521    -1.541426432049     1.007825032230
         H            2.446961236914    -1.294775576521    -0.496347432049     1.007825032230
         H            1.049882236914    -2.178138576521     0.116461567951     1.007825032230
         H            1.050357236914     2.103082423479    -0.578484432049     1.007825032230
         H            1.049853236914     0.981891423479    -1.952295432049     1.007825032230
         H            2.446994236914     1.070806423479    -0.880951432049     1.007825032230
         H            1.050432236914    -0.556890576521     2.102828567951     1.007825032230
         H            2.447068236914     0.221118423479     1.360017567951     1.007825032230
         H            1.050009236914     1.193461423479     1.818760567951     1.007825032230
         H           -2.447222763086    -1.072810576521     0.869339567951     1.007825032230
         H           -1.050683763086    -0.982733576521     1.941358567951     1.007825032230
         H           -1.050015763086    -2.104700576521     0.568183567951     1.007825032230
         H           -1.050114763086     0.554054423479    -2.114507432049     1.007825032230
         H           -1.050458763086    -1.196147576521    -1.829509432049     1.007825032230
         H           -2.447184763086    -0.222985576521    -1.371474432049     1.007825032230
         H           -1.050471763086     2.176198423479    -0.128849432049     1.007825032230
         H           -2.447221763086     1.292928423479     0.484820567951     1.007825032230
         H           -1.050224763086     1.547899423479     1.529360567951     1.007825032230

  Basis Set: AUG-CC-PVTZ
    Blend: AUG-CC-PVTZ
  Basis Set: (AUG-CC-PVTZ AUX)
    Blend: AUG-CC-PVTZ-JKFIT
	 Reference Energy          =    -313.5257953153598010 [Eh]
	 Singles Energy            =      -0.0000000000000000 [Eh]
	 Same-Spin Energy          =      -0.3478169806725842 [Eh]
	 Opposite-Spin Energy      =      -1.2727232483862054 [Eh]
	 Correlation Energy        =      -1.6205402290587896 [Eh]
	 Total Energy              =    -315.1463355444186050 [Eh]

	 ================> DF-SCS-MP2 Energies <==================
	-----------------------------------------------------------
	 SCS Same-Spin Scale       =       0.3333333333333333 [-]
	 SCS Opposite-Spin Scale   =       1.2000000000000000 [-]
	 SCS Same-Spin Energy      =      -0.1159389935575280 [Eh]
	 SCS Opposite-Spin Energy  =      -1.5272678980634464 [Eh]
	 SCS Correlation Energy    =      -1.6432068916209746 [Eh]
	 SCS Total Energy          =    -315.1690022069807924 [Eh]
	-----------------------------------------------------------

  Dipole Moment: [D]
     X:     0.0035      Y:     0.0033      Z:     0.0201     Total:     0.0207

*** Psi4 exiting successfully. Buy a developer a beer!
