                               Psi4 1.4a3.dev225

  ==> Input File <==

--------------------------------------------------------------------------
#psi4
#
memory 32 gb

molecule  {
0 1
  C       -0.7850910     0.0000000     0.0000000
  C        0.7850910    -0.0000010    -0.0000010
  C       -1.3439760    -0.4944350    -1.3423090
  C       -1.3439740    -0.9152570     1.0993500
  C       -1.3621674     1.4555891     0.2508721
  C        1.3439730     1.1443700    -0.8583020
  C        1.3439730    -1.3154970    -0.5619030
  C        1.3439760     0.1711260     1.4202020
  H       -1.1416160    -1.5573230    -1.5000190
  H       -2.4313800    -0.3612870    -1.3560980
  H       -0.9341760     0.0624770    -2.1904460
  H       -1.1416360    -0.5203790     2.0986910
  H       -0.9341530    -1.9282130     1.0411340
  H       -2.4313740    -0.9937940     0.9909190
  H       -1.1416250     2.0777130    -0.5986780
  H       -2.4313730     1.3550610     0.3651840
  H       -0.9341560     1.8657500     1.1493220
  H        2.4313750     1.0400720    -0.9422290
  H        1.1416220     2.1223900    -0.4132370
  H        0.9341610     1.1376140    -1.8729120
  H        0.9341510    -2.1907970    -0.0487560
  H        1.1416360    -1.4190650    -1.6314290
  H        2.4313730    -1.3360370    -0.4296020
  H        1.1416200    -0.7033180     2.0446640
  H        2.4313790     0.2959480     1.3718390
  H        0.9341720     1.0531860     1.9216540
units angstrom
no_reorient  #important for SAPT in psi4, default
symmetry c1  #important for SAPT in psi4, default
}

set PROPERTIES_ORIGIN ["COM"]
properties('MP2/aug-cc-pvtz', properties = ['dipole'])
--------------------------------------------------------------------------

    Molecular point group: c1
  Charge       = 0
  Multiplicity = 1
  Basis Set: AUG-CC-PVTZ
    Blend: AUG-CC-PVTZ
  Basis Set: (AUG-CC-PVTZ AUX)
    Blend: AUG-CC-PVTZ-JKFIT

    Orbital Energies [Eh]
    ---------------------

    Doubly Occupied:

       1A    -11.231941     2A    -11.229474     3A    -11.206014
       4A    -11.205976     5A    -11.205903     6A    -11.205859
       7A    -11.205842     8A    -11.203656     9A     -1.123551
      10A     -1.035464    11A     -0.940426    12A     -0.939938
      13A     -0.909825    14A     -0.908464    15A     -0.804399
      16A     -0.688630    17A     -0.646737    18A     -0.606161
      19A     -0.604651    20A     -0.590295    21A     -0.588488
      22A     -0.552898    23A     -0.534286    24A     -0.531872
      25A     -0.523268    26A     -0.510920    27A     -0.507967
      28A     -0.498738    29A     -0.483531    30A     -0.477890
      31A     -0.432417    32A     -0.427812    33A     -0.421258

  @DF-RHF Final Energy:  -313.52806330830401

   => Energetics <=

    Nuclear Repulsion Energy =            437.6517023461732379
    One-Electron Energy =               -1290.3904294866856617
    Two-Electron Energy =                 539.2106638322084109
    Total Energy =                       -313.5280633083040129
  Basis Set: (AUG-CC-PVTZ AUX)
    Blend: AUG-CC-PVTZ-RI
    Molecular point group: c1

    Geometry (in Angstrom), charge = 0, multiplicity = 1:

       Center              X                  Y                   Z               Mass
    ------------   -----------------  -----------------  -----------------  -----------------
         C           -0.783178058236    -0.004825083934    -0.000831518316    12.000000000000
         C            0.787003941764    -0.004826083934    -0.000832518316    12.000000000000
         C           -1.342063058236    -0.499260083934    -1.343140518316    12.000000000000
         C           -1.342061058236    -0.920082083934     1.098518481684    12.000000000000
         C           -1.360254458236     1.450764016066     0.250040581684    12.000000000000
         C            1.345885941764     1.139544916066    -0.859133518316    12.000000000000
         C            1.345885941764    -1.320322083934    -0.562734518316    12.000000000000
         C            1.345888941764     0.166300916066     1.419370481684    12.000000000000
         H           -1.139703058236    -1.562148083934    -1.500850518316     1.007825032230
         H           -2.429467058236    -0.366112083934    -1.356929518316     1.007825032230
         H           -0.932263058236     0.057651916066    -2.191277518316     1.007825032230
         H           -1.139723058236    -0.525204083934     2.097859481684     1.007825032230
         H           -0.932240058236    -1.933038083934     1.040302481684     1.007825032230
         H           -2.429461058236    -0.998619083934     0.990087481684     1.007825032230
         H           -1.139712058236     2.072887916066    -0.599509518316     1.007825032230
         H           -2.429460058236     1.350235916066     0.364352481684     1.007825032230
         H           -0.932243058236     1.860924916066     1.148490481684     1.007825032230
         H            2.433287941764     1.035246916066    -0.943060518316     1.007825032230
         H            1.143534941764     2.117564916066    -0.414068518316     1.007825032230
         H            0.936073941764     1.132788916066    -1.873743518316     1.007825032230
         H            0.936063941764    -2.195622083934    -0.049587518316     1.007825032230
         H            1.143548941764    -1.423890083934    -1.632260518316     1.007825032230
         H            2.433285941764    -1.340862083934    -0.430433518316     1.007825032230
         H            1.143532941764    -0.708143083934     2.043832481684     1.007825032230
         H            2.433291941764     0.291122916066     1.371007481684     1.007825032230
         H            0.936084941764     1.048360916066     1.920822481684     1.007825032230

  Basis Set: AUG-CC-PVTZ
    Blend: AUG-CC-PVTZ
  Basis Set: (AUG-CC-PVTZ AUX)
    Blend: AUG-CC-PVTZ-JKFIT
	 Reference Energy          =    -313.5280633083040129 [Eh]
	 Singles Energy            =      -0.0000000000000000 [Eh]
	 Same-Spin Energy          =      -0.3474105286117651 [Eh]
	 Opposite-Spin Energy      =      -1.2728952087472700 [Eh]
	 Correlation Energy        =      -1.6203057373590350 [Eh]
	 Total Energy              =    -315.1483690456630598 [Eh]

	 ================> DF-SCS-MP2 Energies <==================
	-----------------------------------------------------------
	 SCS Same-Spin Scale       =       0.3333333333333333 [-]
	 SCS Opposite-Spin Scale   =       1.2000000000000000 [-]
	 SCS Same-Spin Energy      =      -0.1158035095372550 [Eh]
	 SCS Opposite-Spin Energy  =      -1.5274742504967240 [Eh]
	 SCS Correlation Energy    =      -1.6432777600339790 [Eh]
	 SCS Total Energy          =    -315.1713410683379948 [Eh]
	-----------------------------------------------------------

  Dipole Moment: [D]
     X:     0.0082      Y:    -0.0162      Z:    -0.0022     Total:     0.0183

*** Psi4 exiting successfully. Buy a developer a beer!
