                               Psi4 1.3.2 release

  ==> Input File <==

--------------------------------------------------------------------------
#psi4
#
memory 32 gb

molecule  {
0 1
  C        0.7863980     0.0000030     0.0000120
  C       -0.7863980     0.0000120     0.0000240
  C        1.2690040    -1.3099676    -0.6417980
  C        1.3524640     1.1065670    -0.9032830
  C        1.3525400     0.2289610     1.4099520
  C       -1.3524910    -1.1062660     0.9036570
  C       -1.3524520    -0.2294520    -1.4098630
  C       -1.3524900     1.3357370     0.5062260
  H        1.0503260    -1.5480580    -1.5357290
  H        2.4470620    -1.2938500    -0.4906500
  H        1.0499830    -2.1772130     0.1221590
  H        1.0504580     2.1040080    -0.5727870
  H        1.0499540     0.9828170    -1.9465980
  H        2.4470950     1.0717320    -0.8752540
  H        1.0505330    -0.5559650     2.1085260
  H        2.4471690     0.2220440     1.3657150
  H        1.0501100     1.1943870     1.8244580
  H       -2.4471220    -1.0718850     0.8750370
  H       -1.0505830    -0.9818080     1.9470560
  H       -1.0499150    -2.1037750     0.5738810
  H       -1.0500140     0.5549800    -2.1088100
  H       -1.0503580    -1.1952220    -1.8238120
  H       -2.4470840    -0.2220600    -1.3657770
  H       -1.0503710     2.1771240    -0.1231520
  H       -2.4471210     1.2938540     0.4905180
  H       -1.0501240     1.5488250     1.5350580
units angstrom
no_reorient  #important for SAPT in psi4, default
symmetry c1  #important for SAPT in psi4, default
}

set PROPERTIES_ORIGIN ["COM"]
properties('MP2/aug-cc-pvtz', properties = ['dipole'])
--------------------------------------------------------------------------

    Molecular point group: c1
  Charge       = 0
  Multiplicity = 1
  Basis Set: AUG-CC-PVTZ
    Blend: AUG-CC-PVTZ
  Basis Set: (AUG-CC-PVTZ AUX)
    Blend: AUG-CC-PVTZ-JKFIT

    Orbital Energies [Eh]
    ---------------------

    Doubly Occupied:

       1A    -11.232983     2A    -11.229420     3A    -11.210207
       4A    -11.209262     5A    -11.206345     6A    -11.204919
       7A    -11.204772     8A    -11.204577     9A     -1.126729
      10A     -1.038251    11A     -0.945543    12A     -0.937053
      13A     -0.912453    14A     -0.908662    15A     -0.806051
      16A     -0.696231    17A     -0.650639    18A     -0.611417
      19A     -0.600410    20A     -0.596765    21A     -0.593753
      22A     -0.550776    23A     -0.539118    24A     -0.528313
      25A     -0.521362    26A     -0.508808    27A     -0.502201
      28A     -0.487792    29A     -0.485130    30A     -0.471164
      31A     -0.440035    32A     -0.424544    33A     -0.417879

  @DF-RHF Final Energy:  -313.49597882115472

   => Energetics <=

    Nuclear Repulsion Energy =            438.3425226843205564
    One-Electron Energy =               -1291.6698715660932066
    Two-Electron Energy =                 539.8313700606179282
    Total Energy =                       -313.4959788211547220
  Basis Set: (AUG-CC-PVTZ AUX)
    Blend: AUG-CC-PVTZ-RI
    Molecular point group: c1

    Geometry (in Angstrom), charge = 0, multiplicity = 1:

       Center              X                  Y                   Z               Mass
    ------------   -----------------  -----------------  -----------------  -----------------
         C            0.795168760079    -0.002687248844     0.014214086734    12.000000000000
         C           -0.777627239921    -0.002678248844     0.014226086734    12.000000000000
         C            1.277774760079    -1.312657848844    -0.627595913266    12.000000000000
         C            1.361234760079     1.103876751156    -0.889080913266    12.000000000000
         C            1.361310760079     0.226270751156     1.424154086734    12.000000000000
         C           -1.343720239921    -1.108956248844     0.917859086734    12.000000000000
         C           -1.343681239921    -0.232142248844    -1.395660913266    12.000000000000
         C           -1.343719239921     1.333046751156     0.520428086734    12.000000000000
         H            1.059096760079    -1.550748248844    -1.521526913266     1.007825032230
         H            2.455832760079    -1.296540248844    -0.476447913266     1.007825032230
         H            1.058753760079    -2.179903248844     0.136361086734     1.007825032230
         H            1.059228760079     2.101317751156    -0.558584913266     1.007825032230
         H            1.058724760079     0.980126751156    -1.932395913266     1.007825032230
         H            2.455865760079     1.069041751156    -0.861051913266     1.007825032230
         H            1.059303760079    -0.558655248844     2.122728086734     1.007825032230
         H            2.455939760079     0.219353751156     1.379917086734     1.007825032230
         H            1.058880760079     1.191696751156     1.838660086734     1.007825032230
         H           -2.438351239921    -1.074575248844     0.889239086734     1.007825032230
         H           -1.041812239921    -0.984498248844     1.961258086734     1.007825032230
         H           -1.041144239921    -2.106465248844     0.588083086734     1.007825032230
         H           -1.041243239921     0.552289751156    -2.094607913266     1.007825032230
         H           -1.041587239921    -1.197912248844    -1.809609913266     1.007825032230
         H           -2.438313239921    -0.224750248844    -1.351574913266     1.007825032230
         H           -1.041600239921     2.174433751156    -0.108949913266     1.007825032230
         H           -2.438350239921     1.291163751156     0.504720086734     1.007825032230
         H           -1.041353239921     1.546134751156     1.549260086734     1.007825032230

  Basis Set: AUG-CC-PVTZ
    Blend: AUG-CC-PVTZ
  Basis Set: (AUG-CC-PVTZ AUX)
    Blend: AUG-CC-PVTZ-JKFIT
	 Reference Energy          =    -313.4959788211547220 [Eh]
	 Singles Energy            =      -0.0000000000000000 [Eh]
	 Same-Spin Energy          =      -0.3483874657915499 [Eh]
	 Opposite-Spin Energy      =      -1.2742178687663601 [Eh]
	 Correlation Energy        =      -1.6226053345579099 [Eh]
	 Total Energy              =    -315.1185841557126537 [Eh]

	 ================> DF-SCS-MP2 Energies <==================
	-----------------------------------------------------------
	 SCS Same-Spin Scale       =       0.3333333333333333 [-]
	 SCS Opposite-Spin Scale   =       1.2000000000000000 [-]
	 SCS Same-Spin Energy      =      -0.1161291552638500 [Eh]
	 SCS Opposite-Spin Energy  =      -1.5290614425196321 [Eh]
	 SCS Correlation Energy    =      -1.6451905977834820 [Eh]
	 SCS Total Energy          =    -315.1411694189382047 [Eh]
	-----------------------------------------------------------

  Dipole Moment: [D]
     X:    -0.0195      Y:     0.0416      Z:     0.0033     Total:     0.0461

*** Psi4 exiting successfully. Buy a developer a beer!
