                               Psi4 1.4a3.dev225

  ==> Input File <==

--------------------------------------------------------------------------
#psi4
#
memory 32 gb

molecule  {
0 1
  C       -0.7850910     0.0000000     0.0000000
  C        0.7850910    -0.0000010    -0.0000010
  C       -1.3439760    -0.4944350    -1.3423090
  C       -1.3439740    -0.9152570     1.0993500
  C       -1.3439720     1.4096940     0.2429620
  C        1.3439730     1.1443700    -0.8583020
  C        1.3439730    -1.3154970    -0.5619030
  C        1.3439760     0.1711260     1.4202020
  H       -1.1416160    -1.5573230    -1.5000190
  H       -2.4313800    -0.3612870    -1.3560980
  H       -0.9341760     0.0624770    -2.1904460
  H       -1.1416360    -0.5203790     2.0986910
  H       -0.9341530    -1.9282130     1.0411340
  H       -2.4313740    -0.9937940     0.9909190
  H       -1.1379238     2.0899320    -0.6140727
  H       -2.4313730     1.3550610     0.3651840
  H       -0.9341560     1.8657500     1.1493220
  H        2.4313750     1.0400720    -0.9422290
  H        1.1416220     2.1223900    -0.4132370
  H        0.9341610     1.1376140    -1.8729120
  H        0.9341510    -2.1907970    -0.0487560
  H        1.1416360    -1.4190650    -1.6314290
  H        2.4313730    -1.3360370    -0.4296020
  H        1.1416200    -0.7033180     2.0446640
  H        2.4313790     0.2959480     1.3718390
  H        0.9341720     1.0531860     1.9216540
units angstrom
no_reorient  #important for SAPT in psi4, default
symmetry c1  #important for SAPT in psi4, default
}

set PROPERTIES_ORIGIN ["COM"]
properties('MP2/aug-cc-pvtz', properties = ['dipole'])
--------------------------------------------------------------------------

    Molecular point group: c1
  Charge       = 0
  Multiplicity = 1
  Basis Set: AUG-CC-PVTZ
    Blend: AUG-CC-PVTZ
  Basis Set: (AUG-CC-PVTZ AUX)
    Blend: AUG-CC-PVTZ-JKFIT

    Orbital Energies [Eh]
    ---------------------

    Doubly Occupied:

       1A    -11.230019     2A    -11.229460     3A    -11.208356
       4A    -11.206124     5A    -11.205957     6A    -11.205929
       7A    -11.205918     8A    -11.205803     9A     -1.126622
      10A     -1.038114    11A     -0.940323    12A     -0.939538
      13A     -0.908723    14A     -0.907873    15A     -0.804325
      16A     -0.690364    17A     -0.647790    18A     -0.605964
      19A     -0.605264    20A     -0.589306    21A     -0.588458
      22A     -0.551537    23A     -0.531370    24A     -0.531013
      25A     -0.520401    26A     -0.508226    27A     -0.508013
      28A     -0.495576    29A     -0.481969    30A     -0.481343
      31A     -0.431629    32A     -0.431298    33A     -0.424734

  @DF-RHF Final Energy:  -313.52890974302863

   => Energetics <=

    Nuclear Repulsion Energy =            438.4824424106578817
    One-Electron Energy =               -1292.0480265458957092
    Two-Electron Energy =                 540.0366743922091928
    Total Energy =                       -313.5289097430286347
  Basis Set: (AUG-CC-PVTZ AUX)
    Blend: AUG-CC-PVTZ-RI
    Molecular point group: c1

    Geometry (in Angstrom), charge = 0, multiplicity = 1:

       Center              X                  Y                   Z               Mass
    ------------   -----------------  -----------------  -----------------  -----------------
         C           -0.785123680342    -0.000107871970     0.000136026288    12.000000000000
         C            0.785058319658    -0.000108871970     0.000135026288    12.000000000000
         C           -1.344008680342    -0.494542871970    -1.342172973712    12.000000000000
         C           -1.344006680342    -0.915364871970     1.099486026288    12.000000000000
         C           -1.344004680342     1.409586128030     0.243098026288    12.000000000000
         C            1.343940319658     1.144262128030    -0.858165973712    12.000000000000
         C            1.343940319658    -1.315604871970    -0.561766973712    12.000000000000
         C            1.343943319658     0.171018128030     1.420338026288    12.000000000000
         H           -1.141648680342    -1.557430871970    -1.499882973712     1.007825032230
         H           -2.431412680342    -0.361394871970    -1.355961973712     1.007825032230
         H           -0.934208680342     0.062369128030    -2.190309973712     1.007825032230
         H           -1.141668680342    -0.520486871970     2.098827026288     1.007825032230
         H           -0.934185680342    -1.928320871970     1.041270026288     1.007825032230
         H           -2.431406680342    -0.993901871970     0.991055026288     1.007825032230
         H           -1.137956480342     2.089824128030    -0.613936673712     1.007825032230
         H           -2.431405680342     1.354953128030     0.365320026288     1.007825032230
         H           -0.934188680342     1.865642128030     1.149458026288     1.007825032230
         H            2.431342319658     1.039964128030    -0.942092973712     1.007825032230
         H            1.141589319658     2.122282128030    -0.413100973712     1.007825032230
         H            0.934128319658     1.137506128030    -1.872775973712     1.007825032230
         H            0.934118319658    -2.190904871970    -0.048619973712     1.007825032230
         H            1.141603319658    -1.419172871970    -1.631292973712     1.007825032230
         H            2.431340319658    -1.336144871970    -0.429465973712     1.007825032230
         H            1.141587319658    -0.703425871970     2.044800026288     1.007825032230
         H            2.431346319658     0.295840128030     1.371975026288     1.007825032230
         H            0.934139319658     1.053078128030     1.921790026288     1.007825032230

  Basis Set: AUG-CC-PVTZ
    Blend: AUG-CC-PVTZ
  Basis Set: (AUG-CC-PVTZ AUX)
    Blend: AUG-CC-PVTZ-JKFIT
	 Reference Energy          =    -313.5289097430286347 [Eh]
	 Singles Energy            =      -0.0000000000000000 [Eh]
	 Same-Spin Energy          =      -0.3477708497567467 [Eh]
	 Opposite-Spin Energy      =      -1.2732766791407346 [Eh]
	 Correlation Energy        =      -1.6210475288974813 [Eh]
	 Total Energy              =    -315.1499572719260982 [Eh]

	 ================> DF-SCS-MP2 Energies <==================
	-----------------------------------------------------------
	 SCS Same-Spin Scale       =       0.3333333333333333 [-]
	 SCS Opposite-Spin Scale   =       1.2000000000000000 [-]
	 SCS Same-Spin Energy      =      -0.1159236165855822 [Eh]
	 SCS Opposite-Spin Energy  =      -1.5279320149688815 [Eh]
	 SCS Correlation Energy    =      -1.6438556315544637 [Eh]
	 SCS Total Energy          =    -315.1727653745830935 [Eh]
	-----------------------------------------------------------

  Dipole Moment: [D]
     X:    -0.0007      Y:    -0.0110      Z:     0.0087     Total:     0.0140

*** Psi4 exiting successfully. Buy a developer a beer!
