                               Psi4 1.4a3.dev225

  ==> Input File <==

--------------------------------------------------------------------------
#psi4
#
memory 32 gb

molecule  {
0 1
  C       -0.7850910     0.0000000     0.0000000
  C        0.7850910    -0.0000010    -0.0000010
  C       -1.3439760    -0.4944350    -1.3423090
  C       -1.3439740    -0.9152570     1.0993500
  C       -1.3439720     1.4096940     0.2429620
  C        1.3439730     1.1443700    -0.8583020
  C        1.3439730    -1.3154970    -0.5619030
  C        1.3439760     0.1711260     1.4202020
  H       -1.1416160    -1.5573230    -1.5000190
  H       -2.4313800    -0.3612870    -1.3560980
  H       -0.9341760     0.0624770    -2.1904460
  H       -1.1416360    -0.5203790     2.0986910
  H       -0.9341530    -1.9282130     1.0411340
  H       -2.4313740    -0.9937940     0.9909190
  H       -1.1323720     2.1082604    -0.6371648
  H       -2.4313730     1.3550610     0.3651840
  H       -0.9341560     1.8657500     1.1493220
  H        2.4313750     1.0400720    -0.9422290
  H        1.1416220     2.1223900    -0.4132370
  H        0.9341610     1.1376140    -1.8729120
  H        0.9341510    -2.1907970    -0.0487560
  H        1.1416360    -1.4190650    -1.6314290
  H        2.4313730    -1.3360370    -0.4296020
  H        1.1416200    -0.7033180     2.0446640
  H        2.4313790     0.2959480     1.3718390
  H        0.9341720     1.0531860     1.9216540
units angstrom
no_reorient  #important for SAPT in psi4, default
symmetry c1  #important for SAPT in psi4, default
}

set PROPERTIES_ORIGIN ["COM"]
properties('MP2/aug-cc-pvtz', properties = ['dipole'])
--------------------------------------------------------------------------

    Molecular point group: c1
  Charge       = 0
  Multiplicity = 1
  Basis Set: AUG-CC-PVTZ
    Blend: AUG-CC-PVTZ
  Basis Set: (AUG-CC-PVTZ AUX)
    Blend: AUG-CC-PVTZ-JKFIT

    Orbital Energies [Eh]
    ---------------------

    Doubly Occupied:

       1A    -11.230308     2A    -11.229593     3A    -11.211989
       4A    -11.206476     5A    -11.206040     6A    -11.205980
       7A    -11.205951     8A    -11.205656     9A     -1.126613
      10A     -1.038014    11A     -0.940427    12A     -0.938605
      13A     -0.908815    14A     -0.906746    15A     -0.804103
      16A     -0.690092    17A     -0.647711    18A     -0.606067
      19A     -0.604481    20A     -0.589422    21A     -0.587276
      22A     -0.551536    23A     -0.531542    24A     -0.530732
      25A     -0.519606    26A     -0.508359    27A     -0.507828
      28A     -0.494525    29A     -0.482145    30A     -0.480342
      31A     -0.431826    32A     -0.430940    33A     -0.424898

  @DF-RHF Final Energy:  -313.52729013614208

   => Energetics <=

    Nuclear Repulsion Energy =            438.3553571097090185
    One-Electron Energy =               -1291.7960118489822889
    Two-Electron Energy =                 539.9133646031311855
    Total Energy =                       -313.5272901361420281
  Basis Set: (AUG-CC-PVTZ AUX)
    Blend: AUG-CC-PVTZ-RI
    Molecular point group: c1

    Geometry (in Angstrom), charge = 0, multiplicity = 1:

       Center              X                  Y                   Z               Mass
    ------------   -----------------  -----------------  -----------------  -----------------
         C           -0.785172700854    -0.000269705531     0.000339921706    12.000000000000
         C            0.785009299146    -0.000270705531     0.000338921706    12.000000000000
         C           -1.344057700854    -0.494704705531    -1.341969078294    12.000000000000
         C           -1.344055700854    -0.915526705531     1.099689921706    12.000000000000
         C           -1.344053700854     1.409424294469     0.243301921706    12.000000000000
         C            1.343891299146     1.144100294469    -0.857962078294    12.000000000000
         C            1.343891299146    -1.315766705531    -0.561563078294    12.000000000000
         C            1.343894299146     0.170856294469     1.420541921706    12.000000000000
         H           -1.141697700854    -1.557592705531    -1.499679078294     1.007825032230
         H           -2.431461700854    -0.361556705531    -1.355758078294     1.007825032230
         H           -0.934257700854     0.062207294469    -2.190106078294     1.007825032230
         H           -1.141717700854    -0.520648705531     2.099030921706     1.007825032230
         H           -0.934234700854    -1.928482705531     1.041473921706     1.007825032230
         H           -2.431455700854    -0.994063705531     0.991258921706     1.007825032230
         H           -1.132453700854     2.107990694469    -0.636824878294     1.007825032230
         H           -2.431454700854     1.354791294469     0.365523921706     1.007825032230
         H           -0.934237700854     1.865480294469     1.149661921706     1.007825032230
         H            2.431293299146     1.039802294469    -0.941889078294     1.007825032230
         H            1.141540299146     2.122120294469    -0.412897078294     1.007825032230
         H            0.934079299146     1.137344294469    -1.872572078294     1.007825032230
         H            0.934069299146    -2.191066705531    -0.048416078294     1.007825032230
         H            1.141554299146    -1.419334705531    -1.631089078294     1.007825032230
         H            2.431291299146    -1.336306705531    -0.429262078294     1.007825032230
         H            1.141538299146    -0.703587705531     2.045003921706     1.007825032230
         H            2.431297299146     0.295678294469     1.372178921706     1.007825032230
         H            0.934090299146     1.052916294469     1.921993921706     1.007825032230

  Basis Set: AUG-CC-PVTZ
    Blend: AUG-CC-PVTZ
  Basis Set: (AUG-CC-PVTZ AUX)
    Blend: AUG-CC-PVTZ-JKFIT
	 Reference Energy          =    -313.5272901361420850 [Eh]
	 Singles Energy            =      -0.0000000000000000 [Eh]
	 Same-Spin Energy          =      -0.3478010632607257 [Eh]
	 Opposite-Spin Energy      =      -1.2735223100205912 [Eh]
	 Correlation Energy        =      -1.6213233732813168 [Eh]
	 Total Energy              =    -315.1486135094233987 [Eh]

	 ================> DF-SCS-MP2 Energies <==================
	-----------------------------------------------------------
	 SCS Same-Spin Scale       =       0.3333333333333333 [-]
	 SCS Opposite-Spin Scale   =       1.2000000000000000 [-]
	 SCS Same-Spin Energy      =      -0.1159336877535752 [Eh]
	 SCS Opposite-Spin Energy  =      -1.5282267720247094 [Eh]
	 SCS Correlation Energy    =      -1.6441604597782846 [Eh]
	 SCS Total Energy          =    -315.1714505959203620 [Eh]
	-----------------------------------------------------------

  Dipole Moment: [D]
     X:    -0.0017      Y:    -0.0284      Z:     0.0225     Total:     0.0363

*** Psi4 exiting successfully. Buy a developer a beer!
