                               Psi4 1.3.2 release

  ==> Input File <==

--------------------------------------------------------------------------
#psi4
#
memory 32 gb

molecule  {
0 1
  C        0.7863980     0.0000030     0.0000120
  C       -0.7854404    -0.0087863    -0.0541561
  C        1.3524290    -1.3355510    -0.5066990
  C        1.3524640     1.1065670    -0.9032830
  C        1.3525400     0.2289610     1.4099520
  C       -1.3524910    -1.1062660     0.9036570
  C       -1.3524520    -0.2294520    -1.4098630
  C       -1.3524900     1.3357370     0.5062260
  H        1.0503260    -1.5480580    -1.5357290
  H        2.4470620    -1.2938500    -0.4906500
  H        1.0499830    -2.1772130     0.1221590
  H        1.0504580     2.1040080    -0.5727870
  H        1.0499540     0.9828170    -1.9465980
  H        2.4470950     1.0717320    -0.8752540
  H        1.0505330    -0.5559650     2.1085260
  H        2.4471690     0.2220440     1.3657150
  H        1.0501100     1.1943870     1.8244580
  H       -2.4471220    -1.0718850     0.8750370
  H       -1.0505830    -0.9818080     1.9470560
  H       -1.0499150    -2.1037750     0.5738810
  H       -1.0500140     0.5549800    -2.1088100
  H       -1.0503580    -1.1952220    -1.8238120
  H       -2.4470840    -0.2220600    -1.3657770
  H       -1.0503710     2.1771240    -0.1231520
  H       -2.4471210     1.2938540     0.4905180
  H       -1.0501240     1.5488250     1.5350580
units angstrom
no_reorient  #important for SAPT in psi4, default
symmetry c1  #important for SAPT in psi4, default
}

set PROPERTIES_ORIGIN ["COM"]
properties('MP2/aug-cc-pvtz', properties = ['dipole'])
--------------------------------------------------------------------------

    Molecular point group: c1
  Charge       = 0
  Multiplicity = 1
  Basis Set: AUG-CC-PVTZ
    Blend: AUG-CC-PVTZ
  Basis Set: (AUG-CC-PVTZ AUX)
    Blend: AUG-CC-PVTZ-JKFIT

    Orbital Energies [Eh]
    ---------------------

    Doubly Occupied:

       1A    -11.230905     2A    -11.230372     3A    -11.206526
       4A    -11.205813     5A    -11.205797     6A    -11.205132
       7A    -11.205115     8A    -11.204949     9A     -1.125891
      10A     -1.039685    11A     -0.940870    12A     -0.936842
      13A     -0.911521    14A     -0.907312    15A     -0.804666
      16A     -0.691355    17A     -0.647911    18A     -0.602266
      19A     -0.601030    20A     -0.596371    21A     -0.592746
      22A     -0.553511    23A     -0.528428    24A     -0.528240
      25A     -0.527583    26A     -0.509428    27A     -0.506372
      28A     -0.490056    29A     -0.487033    30A     -0.476013
      31A     -0.442005    32A     -0.423470    33A     -0.421898

  @DF-RHF Final Energy:  -313.52560377032444

   => Energetics <=

    Nuclear Repulsion Energy =            437.9360521437214970
    One-Electron Energy =               -1290.9490925140635227
    Two-Electron Energy =                 539.4874366000175314
    Total Energy =                       -313.5256037703244374
  Basis Set: (AUG-CC-PVTZ AUX)
    Blend: AUG-CC-PVTZ-RI
    Molecular point group: c1

    Geometry (in Angstrom), charge = 0, multiplicity = 1:

       Center              X                  Y                   Z               Mass
    ------------   -----------------  -----------------  -----------------  -----------------
         C            0.786297342047     0.000927411445     0.005706818783    12.000000000000
         C           -0.785541057953    -0.007861888555    -0.048461281217    12.000000000000
         C            1.352328342047    -1.334626588555    -0.501004181217    12.000000000000
         C            1.352363342047     1.107491411445    -0.897588181217    12.000000000000
         C            1.352439342047     0.229885411445     1.415646818783    12.000000000000
         C           -1.352591657953    -1.105341588555     0.909351818783    12.000000000000
         C           -1.352552657953    -0.228527588555    -1.404168181217    12.000000000000
         C           -1.352590657953     1.336661411445     0.511920818783    12.000000000000
         H            1.050225342047    -1.547133588555    -1.530034181217     1.007825032230
         H            2.446961342047    -1.292925588555    -0.484955181217     1.007825032230
         H            1.049882342047    -2.176288588555     0.127853818783     1.007825032230
         H            1.050357342047     2.104932411445    -0.567092181217     1.007825032230
         H            1.049853342047     0.983741411445    -1.940903181217     1.007825032230
         H            2.446994342047     1.072656411445    -0.869559181217     1.007825032230
         H            1.050432342047    -0.555040588555     2.114220818783     1.007825032230
         H            2.447068342047     0.222968411445     1.371409818783     1.007825032230
         H            1.050009342047     1.195311411445     1.830152818783     1.007825032230
         H           -2.447222657953    -1.070960588555     0.880731818783     1.007825032230
         H           -1.050683657953    -0.980883588555     1.952750818783     1.007825032230
         H           -1.050015657953    -2.102850588555     0.579575818783     1.007825032230
         H           -1.050114657953     0.555904411445    -2.103115181217     1.007825032230
         H           -1.050458657953    -1.194297588555    -1.818117181217     1.007825032230
         H           -2.447184657953    -0.221135588555    -1.360082181217     1.007825032230
         H           -1.050471657953     2.178048411445    -0.117457181217     1.007825032230
         H           -2.447221657953     1.294778411445     0.496212818783     1.007825032230
         H           -1.050224657953     1.549749411445     1.540752818783     1.007825032230

  Basis Set: AUG-CC-PVTZ
    Blend: AUG-CC-PVTZ
  Basis Set: (AUG-CC-PVTZ AUX)
    Blend: AUG-CC-PVTZ-JKFIT
	 Reference Energy          =    -313.5256037703244374 [Eh]
	 Singles Energy            =      -0.0000000000000000 [Eh]
	 Same-Spin Energy          =      -0.3478219990057005 [Eh]
	 Opposite-Spin Energy      =      -1.2727295423579377 [Eh]
	 Correlation Energy        =      -1.6205515413636382 [Eh]
	 Total Energy              =    -315.1461553116880623 [Eh]

	 ================> DF-SCS-MP2 Energies <==================
	-----------------------------------------------------------
	 SCS Same-Spin Scale       =       0.3333333333333333 [-]
	 SCS Opposite-Spin Scale   =       1.2000000000000000 [-]
	 SCS Same-Spin Energy      =      -0.1159406663352335 [Eh]
	 SCS Opposite-Spin Energy  =      -1.5272754508295252 [Eh]
	 SCS Correlation Energy    =      -1.6432161171647588 [Eh]
	 SCS Total Energy          =    -315.1688198874891782 [Eh]
	-----------------------------------------------------------

  Dipole Moment: [D]
     X:     0.0034      Y:    -0.0029      Z:    -0.0177     Total:     0.0183

*** Psi4 exiting successfully. Buy a developer a beer!
