                               Psi4 1.4a3.dev225

  ==> Input File <==

--------------------------------------------------------------------------
#psi4
#
memory 32 gb

molecule  {
0 1
  C       -0.7850910     0.0000000     0.0000000
  C        0.7850910    -0.0000010    -0.0000010
  C       -1.3439760    -0.4944350    -1.3423090
  C       -1.3439740    -0.9152570     1.0993500
  C       -1.3257766     1.3637989     0.2350519
  C        1.3439730     1.1443700    -0.8583020
  C        1.3439730    -1.3154970    -0.5619030
  C        1.3439760     0.1711260     1.4202020
  H       -1.1416160    -1.5573230    -1.5000190
  H       -2.4313800    -0.3612870    -1.3560980
  H       -0.9341760     0.0624770    -2.1904460
  H       -1.1416360    -0.5203790     2.0986910
  H       -0.9341530    -1.9282130     1.0411340
  H       -2.4313740    -0.9937940     0.9909190
  H       -1.1416250     2.0777130    -0.5986780
  H       -2.4313730     1.3550610     0.3651840
  H       -0.9341560     1.8657500     1.1493220
  H        2.4313750     1.0400720    -0.9422290
  H        1.1416220     2.1223900    -0.4132370
  H        0.9341610     1.1376140    -1.8729120
  H        0.9341510    -2.1907970    -0.0487560
  H        1.1416360    -1.4190650    -1.6314290
  H        2.4313730    -1.3360370    -0.4296020
  H        1.1416200    -0.7033180     2.0446640
  H        2.4313790     0.2959480     1.3718390
  H        0.9341720     1.0531860     1.9216540
units angstrom
no_reorient  #important for SAPT in psi4, default
symmetry c1  #important for SAPT in psi4, default
}

set PROPERTIES_ORIGIN ["COM"]
properties('MP2/aug-cc-pvtz', properties = ['dipole'])
--------------------------------------------------------------------------

    Molecular point group: c1
  Charge       = 0
  Multiplicity = 1
  Basis Set: AUG-CC-PVTZ
    Blend: AUG-CC-PVTZ
  Basis Set: (AUG-CC-PVTZ AUX)
    Blend: AUG-CC-PVTZ-JKFIT

    Orbital Energies [Eh]
    ---------------------

    Doubly Occupied:

       1A    -11.229871     2A    -11.227078     3A    -11.208799
       4A    -11.206111     5A    -11.206092     6A    -11.205964
       7A    -11.205851     8A    -11.205819     9A     -1.130570
      10A     -1.041311    11A     -0.940700    12A     -0.940273
      13A     -0.908957    14A     -0.907639    15A     -0.804484
      16A     -0.692947    17A     -0.649202    18A     -0.607521
      19A     -0.606043    20A     -0.589996    21A     -0.588591
      22A     -0.550891    23A     -0.531137    24A     -0.528870
      25A     -0.518926    26A     -0.508539    27A     -0.505221
      28A     -0.494088    29A     -0.485601    30A     -0.478708
      31A     -0.437158    32A     -0.430128    33A     -0.423782

  @DF-RHF Final Energy:  -313.52620638331740

   => Energetics <=

    Nuclear Repulsion Energy =            439.5125642566986244
    One-Electron Energy =               -1294.0838010213974485
    Two-Electron Energy =                 541.0450303813814799
    Total Energy =                       -313.5262063833173443
  Basis Set: (AUG-CC-PVTZ AUX)
    Blend: AUG-CC-PVTZ-RI
    Molecular point group: c1

    Geometry (in Angstrom), charge = 0, multiplicity = 1:

       Center              X                  Y                   Z               Mass
    ------------   -----------------  -----------------  -----------------  -----------------
         C           -0.787003941764     0.004825119253     0.000831710923    12.000000000000
         C            0.783178058236     0.004824119253     0.000830710923    12.000000000000
         C           -1.345888941764    -0.489609880747    -1.341477289077    12.000000000000
         C           -1.345886941764    -0.910431880747     1.100181710923    12.000000000000
         C           -1.327689541764     1.368624019253     0.235883610923    12.000000000000
         C            1.342060058236     1.149195119253    -0.857470289077    12.000000000000
         C            1.342060058236    -1.310671880747    -0.561071289077    12.000000000000
         C            1.342063058236     0.175951119253     1.421033710923    12.000000000000
         H           -1.143528941764    -1.552497880747    -1.499187289077     1.007825032230
         H           -2.433292941764    -0.356461880747    -1.355266289077     1.007825032230
         H           -0.936088941764     0.067302119253    -2.189614289077     1.007825032230
         H           -1.143548941764    -0.515553880747     2.099522710923     1.007825032230
         H           -0.936065941764    -1.923387880747     1.041965710923     1.007825032230
         H           -2.433286941764    -0.988968880747     0.991750710923     1.007825032230
         H           -1.143537941764     2.082538119253    -0.597846289077     1.007825032230
         H           -2.433285941764     1.359886119253     0.366015710923     1.007825032230
         H           -0.936068941764     1.870575119253     1.150153710923     1.007825032230
         H            2.429462058236     1.044897119253    -0.941397289077     1.007825032230
         H            1.139709058236     2.127215119253    -0.412405289077     1.007825032230
         H            0.932248058236     1.142439119253    -1.872080289077     1.007825032230
         H            0.932238058236    -2.185971880747    -0.047924289077     1.007825032230
         H            1.139723058236    -1.414239880747    -1.630597289077     1.007825032230
         H            2.429460058236    -1.331211880747    -0.428770289077     1.007825032230
         H            1.139707058236    -0.698492880747     2.045495710923     1.007825032230
         H            2.429466058236     0.300773119253     1.372670710923     1.007825032230
         H            0.932259058236     1.058011119253     1.922485710923     1.007825032230

  Basis Set: AUG-CC-PVTZ
    Blend: AUG-CC-PVTZ
  Basis Set: (AUG-CC-PVTZ AUX)
    Blend: AUG-CC-PVTZ-JKFIT
	 Reference Energy          =    -313.5262063833174011 [Eh]
	 Singles Energy            =      -0.0000000000000000 [Eh]
	 Same-Spin Energy          =      -0.3483076466749791 [Eh]
	 Opposite-Spin Energy      =      -1.2737120370539923 [Eh]
	 Correlation Energy        =      -1.6220196837289713 [Eh]
	 Total Energy              =    -315.1482260670463802 [Eh]

	 ================> DF-SCS-MP2 Energies <==================
	-----------------------------------------------------------
	 SCS Same-Spin Scale       =       0.3333333333333333 [-]
	 SCS Opposite-Spin Scale   =       1.2000000000000000 [-]
	 SCS Same-Spin Energy      =      -0.1161025488916597 [Eh]
	 SCS Opposite-Spin Energy  =      -1.5284544444647907 [Eh]
	 SCS Correlation Energy    =      -1.6445569933564503 [Eh]
	 SCS Total Energy          =    -315.1707633766738468 [Eh]
	-----------------------------------------------------------

  Dipole Moment: [D]
     X:    -0.0029      Y:     0.0048      Z:     0.0001     Total:     0.0056

*** Psi4 exiting successfully. Buy a developer a beer!
