                               Psi4 1.4a3.dev225

  ==> Input File <==

--------------------------------------------------------------------------
#psi4
#
memory 32 gb

molecule  {
0 1
  C       -0.7850910     0.0000000     0.0000000
  C        0.7850910    -0.0000010    -0.0000010
  C       -1.3439760    -0.4944350    -1.3423090
  C       -1.3439740    -0.9152570     1.0993500
  C       -1.3512501     1.4280520     0.2461260
  C        1.3439730     1.1443700    -0.8583020
  C        1.3439730    -1.3154970    -0.5619030
  C        1.3439760     0.1711260     1.4202020
  H       -1.1416160    -1.5573230    -1.5000190
  H       -2.4313800    -0.3612870    -1.3560980
  H       -0.9341760     0.0624770    -2.1904460
  H       -1.1416360    -0.5203790     2.0986910
  H       -0.9341530    -1.9282130     1.0411340
  H       -2.4313740    -0.9937940     0.9909190
  H       -1.1416250     2.0777130    -0.5986780
  H       -2.4313730     1.3550610     0.3651840
  H       -0.9341560     1.8657500     1.1493220
  H        2.4313750     1.0400720    -0.9422290
  H        1.1416220     2.1223900    -0.4132370
  H        0.9341610     1.1376140    -1.8729120
  H        0.9341510    -2.1907970    -0.0487560
  H        1.1416360    -1.4190650    -1.6314290
  H        2.4313730    -1.3360370    -0.4296020
  H        1.1416200    -0.7033180     2.0446640
  H        2.4313790     0.2959480     1.3718390
  H        0.9341720     1.0531860     1.9216540
units angstrom
no_reorient  #important for SAPT in psi4, default
symmetry c1  #important for SAPT in psi4, default
}

set PROPERTIES_ORIGIN ["COM"]
properties('MP2/aug-cc-pvtz', properties = ['dipole'])
--------------------------------------------------------------------------

    Molecular point group: c1
  Charge       = 0
  Multiplicity = 1
  Basis Set: AUG-CC-PVTZ
    Blend: AUG-CC-PVTZ
  Basis Set: (AUG-CC-PVTZ AUX)
    Blend: AUG-CC-PVTZ-JKFIT

    Orbital Energies [Eh]
    ---------------------

    Doubly Occupied:

       1A    -11.230616     2A    -11.229485     3A    -11.205946
       4A    -11.205928     5A    -11.205891     6A    -11.205872
       7A    -11.205855     8A    -11.204920     9A     -1.125318
      10A     -1.037066    11A     -0.940307    12A     -0.940117
      13A     -0.909120    14A     -0.908575    15A     -0.804462
      16A     -0.689751    17A     -0.647389    18A     -0.605956
      19A     -0.605358    20A     -0.589613    21A     -0.588932
      22A     -0.551996    23A     -0.532425    24A     -0.531435
      25A     -0.521870    26A     -0.509327    27A     -0.508053
      28A     -0.497258    29A     -0.482669    30A     -0.480229
      31A     -0.431913    32A     -0.429366    33A     -0.424205

  @DF-RHF Final Energy:  -313.52940525341506

   => Energetics <=

    Nuclear Repulsion Energy =            438.1996158046072765
    One-Electron Energy =               -1291.4836011874144788
    Two-Electron Energy =                 539.7545801293922523
    Total Energy =                       -313.5294052534150069
  Basis Set: (AUG-CC-PVTZ AUX)
    Blend: AUG-CC-PVTZ-RI
    Molecular point group: c1

    Geometry (in Angstrom), charge = 0, multiplicity = 1:

       Center              X                  Y                   Z               Mass
    ------------   -----------------  -----------------  -----------------  -----------------
         C           -0.784325829603    -0.001930018773    -0.000332545339    12.000000000000
         C            0.785856170397    -0.001931018773    -0.000333545339    12.000000000000
         C           -1.343210829603    -0.496365018773    -1.342641545339    12.000000000000
         C           -1.343208829603    -0.917187018773     1.099017454661    12.000000000000
         C           -1.350484929603     1.426121981227     0.245793454661    12.000000000000
         C            1.344738170397     1.142439981227    -0.858634545339    12.000000000000
         C            1.344738170397    -1.317427018773    -0.562235545339    12.000000000000
         C            1.344741170397     0.169195981227     1.419869454661    12.000000000000
         H           -1.140850829603    -1.559253018773    -1.500351545339     1.007825032230
         H           -2.430614829603    -0.363217018773    -1.356430545339     1.007825032230
         H           -0.933410829603     0.060546981227    -2.190778545339     1.007825032230
         H           -1.140870829603    -0.522309018773     2.098358454661     1.007825032230
         H           -0.933387829603    -1.930143018773     1.040801454661     1.007825032230
         H           -2.430608829603    -0.995724018773     0.990586454661     1.007825032230
         H           -1.140859829603     2.075782981227    -0.599010545339     1.007825032230
         H           -2.430607829603     1.353130981227     0.364851454661     1.007825032230
         H           -0.933390829603     1.863819981227     1.148989454661     1.007825032230
         H            2.432140170397     1.038141981227    -0.942561545339     1.007825032230
         H            1.142387170397     2.120459981227    -0.413569545339     1.007825032230
         H            0.934926170397     1.135683981227    -1.873244545339     1.007825032230
         H            0.934916170397    -2.192727018773    -0.049088545339     1.007825032230
         H            1.142401170397    -1.420995018773    -1.631761545339     1.007825032230
         H            2.432138170397    -1.337967018773    -0.429934545339     1.007825032230
         H            1.142385170397    -0.705248018773     2.044331454661     1.007825032230
         H            2.432144170397     0.294017981227     1.371506454661     1.007825032230
         H            0.934937170397     1.051255981227     1.921321454661     1.007825032230

  Basis Set: AUG-CC-PVTZ
    Blend: AUG-CC-PVTZ
  Basis Set: (AUG-CC-PVTZ AUX)
    Blend: AUG-CC-PVTZ-JKFIT
	 Reference Energy          =    -313.5294052534150637 [Eh]
	 Singles Energy            =      -0.0000000000000000 [Eh]
	 Same-Spin Energy          =      -0.3475900859198763 [Eh]
	 Opposite-Spin Energy      =      -1.2729903667721472 [Eh]
	 Correlation Energy        =      -1.6205804526920233 [Eh]
	 Total Energy              =    -315.1499857061070884 [Eh]

	 ================> DF-SCS-MP2 Energies <==================
	-----------------------------------------------------------
	 SCS Same-Spin Scale       =       0.3333333333333333 [-]
	 SCS Opposite-Spin Scale   =       1.2000000000000000 [-]
	 SCS Same-Spin Energy      =      -0.1158633619732921 [Eh]
	 SCS Opposite-Spin Energy  =      -1.5275884401265765 [Eh]
	 SCS Correlation Energy    =      -1.6434518020998685 [Eh]
	 SCS Total Energy          =    -315.1728570555149531 [Eh]
	-----------------------------------------------------------

  Dipole Moment: [D]
     X:     0.0027      Y:    -0.0051      Z:    -0.0006     Total:     0.0058

*** Psi4 exiting successfully. Buy a developer a beer!
