                               Psi4 1.3.2 release

  ==> Input File <==

--------------------------------------------------------------------------
#psi4
#
memory 32 gb

molecule  {
0 1
  C        0.7985235    -0.0239047    -0.0007195
  C       -0.7863980     0.0000120     0.0000240
  C        1.3524290    -1.3355510    -0.5066990
  C        1.3524640     1.1065670    -0.9032830
  C        1.3525400     0.2289610     1.4099520
  C       -1.3524910    -1.1062660     0.9036570
  C       -1.3524520    -0.2294520    -1.4098630
  C       -1.3524900     1.3357370     0.5062260
  H        1.0503260    -1.5480580    -1.5357290
  H        2.4470620    -1.2938500    -0.4906500
  H        1.0499830    -2.1772130     0.1221590
  H        1.0504580     2.1040080    -0.5727870
  H        1.0499540     0.9828170    -1.9465980
  H        2.4470950     1.0717320    -0.8752540
  H        1.0505330    -0.5559650     2.1085260
  H        2.4471690     0.2220440     1.3657150
  H        1.0501100     1.1943870     1.8244580
  H       -2.4471220    -1.0718850     0.8750370
  H       -1.0505830    -0.9818080     1.9470560
  H       -1.0499150    -2.1037750     0.5738810
  H       -1.0500140     0.5549800    -2.1088100
  H       -1.0503580    -1.1952220    -1.8238120
  H       -2.4470840    -0.2220600    -1.3657770
  H       -1.0503710     2.1771240    -0.1231520
  H       -2.4471210     1.2938540     0.4905180
  H       -1.0501240     1.5488250     1.5350580
units angstrom
no_reorient  #important for SAPT in psi4, default
symmetry c1  #important for SAPT in psi4, default
}

set PROPERTIES_ORIGIN ["COM"]
properties('MP2/aug-cc-pvtz', properties = ['dipole'])
--------------------------------------------------------------------------

    Molecular point group: c1
  Charge       = 0
  Multiplicity = 1
  Basis Set: AUG-CC-PVTZ
    Blend: AUG-CC-PVTZ
  Basis Set: (AUG-CC-PVTZ AUX)
    Blend: AUG-CC-PVTZ-JKFIT

    Orbital Energies [Eh]
    ---------------------

    Doubly Occupied:

       1A    -11.230734     2A    -11.230157     3A    -11.205775
       4A    -11.205607     5A    -11.205543     6A    -11.205315
       7A    -11.205254     8A    -11.205099     9A     -1.124994
      10A     -1.040130    11A     -0.939944    12A     -0.938012
      13A     -0.910752    14A     -0.908935    15A     -0.802334
      16A     -0.691706    17A     -0.648196    18A     -0.601304
      19A     -0.600583    20A     -0.595918    21A     -0.594528
      22A     -0.553447    23A     -0.528380    24A     -0.528183
      25A     -0.527863    26A     -0.508276    27A     -0.506995
      28A     -0.490075    29A     -0.484000    30A     -0.478754
      31A     -0.437352    32A     -0.430574    33A     -0.420788

  @DF-RHF Final Energy:  -313.52799078841457

   => Energetics <=

    Nuclear Repulsion Energy =            437.8573673349295063
    One-Electron Energy =               -1290.7997036573608511
    Two-Electron Energy =                 539.4143455340168885
    Total Energy =                       -313.5279907884145132
  Basis Set: (AUG-CC-PVTZ AUX)
    Blend: AUG-CC-PVTZ-RI
    Molecular point group: c1

    Geometry (in Angstrom), charge = 0, multiplicity = 1:

       Center              X                  Y                   Z               Mass
    ------------   -----------------  -----------------  -----------------  -----------------
         C            0.797248724286    -0.021391788039    -0.000643906908    12.000000000000
         C           -0.787672775714     0.002524911961     0.000099593092    12.000000000000
         C            1.351154224286    -1.333038088039    -0.506623406908    12.000000000000
         C            1.351189224286     1.109079911961    -0.903207406908    12.000000000000
         C            1.351265224286     0.231473911961     1.410027593092    12.000000000000
         C           -1.353765775714    -1.103753088039     0.903732593092    12.000000000000
         C           -1.353726775714    -0.226939088039    -1.409787406908    12.000000000000
         C           -1.353764775714     1.338249911961     0.506301593092    12.000000000000
         H            1.049051224286    -1.545545088039    -1.535653406908     1.007825032230
         H            2.445787224286    -1.291337088039    -0.490574406908     1.007825032230
         H            1.048708224286    -2.174700088039     0.122234593092     1.007825032230
         H            1.049183224286     2.106520911961    -0.572711406908     1.007825032230
         H            1.048679224286     0.985329911961    -1.946522406908     1.007825032230
         H            2.445820224286     1.074244911961    -0.875178406908     1.007825032230
         H            1.049258224286    -0.553452088039     2.108601593092     1.007825032230
         H            2.445894224286     0.224556911961     1.365790593092     1.007825032230
         H            1.048835224286     1.196899911961     1.824533593092     1.007825032230
         H           -2.448396775714    -1.069372088039     0.875112593092     1.007825032230
         H           -1.051857775714    -0.979295088039     1.947131593092     1.007825032230
         H           -1.051189775714    -2.101262088039     0.573956593092     1.007825032230
         H           -1.051288775714     0.557492911961    -2.108734406908     1.007825032230
         H           -1.051632775714    -1.192709088039    -1.823736406908     1.007825032230
         H           -2.448358775714    -0.219547088039    -1.365701406908     1.007825032230
         H           -1.051645775714     2.179636911961    -0.123076406908     1.007825032230
         H           -2.448395775714     1.296366911961     0.490593593092     1.007825032230
         H           -1.051398775714     1.551337911961     1.535133593092     1.007825032230

  Basis Set: AUG-CC-PVTZ
    Blend: AUG-CC-PVTZ
  Basis Set: (AUG-CC-PVTZ AUX)
    Blend: AUG-CC-PVTZ-JKFIT
	 Reference Energy          =    -313.5279907884145700 [Eh]
	 Singles Energy            =      -0.0000000000000000 [Eh]
	 Same-Spin Energy          =      -0.3477325130375189 [Eh]
	 Opposite-Spin Energy      =      -1.2724950753233253 [Eh]
	 Correlation Energy        =      -1.6202275883608441 [Eh]
	 Total Energy              =    -315.1482183767753895 [Eh]

	 ================> DF-SCS-MP2 Energies <==================
	-----------------------------------------------------------
	 SCS Same-Spin Scale       =       0.3333333333333333 [-]
	 SCS Opposite-Spin Scale   =       1.2000000000000000 [-]
	 SCS Same-Spin Energy      =      -0.1159108376791730 [Eh]
	 SCS Opposite-Spin Energy  =      -1.5269940903879904 [Eh]
	 SCS Correlation Energy    =      -1.6429049280671633 [Eh]
	 SCS Total Energy          =    -315.1708957164817093 [Eh]
	-----------------------------------------------------------

  Dipole Moment: [D]
     X:     0.0067      Y:    -0.0080      Z:    -0.0001     Total:     0.0105

*** Psi4 exiting successfully. Buy a developer a beer!
