                               Psi4 1.3.2 release

  ==> Input File <==

--------------------------------------------------------------------------
#psi4
#
memory 32 gb

molecule  {
0 1
  C        0.8358976    -0.0951368    -0.0003354
  C       -0.7863980     0.0000120     0.0000240
  C        1.3524290    -1.3355510    -0.5066990
  C        1.3524640     1.1065670    -0.9032830
  C        1.3525400     0.2289610     1.4099520
  C       -1.3524910    -1.1062660     0.9036570
  C       -1.3524520    -0.2294520    -1.4098630
  C       -1.3524900     1.3357370     0.5062260
  H        1.0503260    -1.5480580    -1.5357290
  H        2.4470620    -1.2938500    -0.4906500
  H        1.0499830    -2.1772130     0.1221590
  H        1.0504580     2.1040080    -0.5727870
  H        1.0499540     0.9828170    -1.9465980
  H        2.4470950     1.0717320    -0.8752540
  H        1.0505330    -0.5559650     2.1085260
  H        2.4471690     0.2220440     1.3657150
  H        1.0501100     1.1943870     1.8244580
  H       -2.4471220    -1.0718850     0.8750370
  H       -1.0505830    -0.9818080     1.9470560
  H       -1.0499150    -2.1037750     0.5738810
  H       -1.0500140     0.5549800    -2.1088100
  H       -1.0503580    -1.1952220    -1.8238120
  H       -2.4470840    -0.2220600    -1.3657770
  H       -1.0503710     2.1771240    -0.1231520
  H       -2.4471210     1.2938540     0.4905180
  H       -1.0501240     1.5488250     1.5350580
units angstrom
no_reorient  #important for SAPT in psi4, default
symmetry c1  #important for SAPT in psi4, default
}

set PROPERTIES_ORIGIN ["COM"]
properties('MP2/aug-cc-pvtz', properties = ['dipole'])
--------------------------------------------------------------------------

    Molecular point group: c1
  Charge       = 0
  Multiplicity = 1
  Basis Set: AUG-CC-PVTZ
    Blend: AUG-CC-PVTZ
  Basis Set: (AUG-CC-PVTZ AUX)
    Blend: AUG-CC-PVTZ-JKFIT

    Orbital Energies [Eh]
    ---------------------

    Doubly Occupied:

       1A    -11.231512     2A    -11.230774     3A    -11.206588
       4A    -11.206150     5A    -11.206017     6A    -11.204762
       7A    -11.203910     8A    -11.203890     9A     -1.124836
      10A     -1.044512    11A     -0.944155    12A     -0.935767
      13A     -0.913978    14A     -0.907221    15A     -0.795248
      16A     -0.693903    17A     -0.649839    18A     -0.605738
      19A     -0.599750    20A     -0.595926    21A     -0.593102
      22A     -0.554004    23A     -0.529417    24A     -0.528689
      25A     -0.527880    26A     -0.511357    27A     -0.505534
      28A     -0.495727    29A     -0.490157    30A     -0.472109
      31A     -0.448094    32A     -0.424524    33A     -0.403673

  @DF-RHF Final Energy:  -313.51672475903092

   => Energetics <=

    Nuclear Repulsion Energy =            437.6307291582862717
    One-Electron Energy =               -1290.3174130216775666
    Two-Electron Energy =                 539.1699591043603732
    Total Energy =                       -313.5167247590309216
  Basis Set: (AUG-CC-PVTZ AUX)
    Blend: AUG-CC-PVTZ-RI
    Molecular point group: c1

    Geometry (in Angstrom), charge = 0, multiplicity = 1:

       Center              X                  Y                   Z               Mass
    ------------   -----------------  -----------------  -----------------  -----------------
         C            0.830693563221    -0.085135024975    -0.000300188594    12.000000000000
         C           -0.791602036779     0.010013775025     0.000059211406    12.000000000000
         C            1.347224963221    -1.325549224975    -0.506663788594    12.000000000000
         C            1.347259963221     1.116568775025    -0.903247788594    12.000000000000
         C            1.347335963221     0.238962775025     1.409987211406    12.000000000000
         C           -1.357695036779    -1.096264224975     0.903692211406    12.000000000000
         C           -1.357656036779    -0.219450224975    -1.409827788594    12.000000000000
         C           -1.357694036779     1.345738775025     0.506261211406    12.000000000000
         H            1.045121963221    -1.538056224975    -1.535693788594     1.007825032230
         H            2.441857963221    -1.283848224975    -0.490614788594     1.007825032230
         H            1.044778963221    -2.167211224975     0.122194211406     1.007825032230
         H            1.045253963221     2.114009775025    -0.572751788594     1.007825032230
         H            1.044749963221     0.992818775025    -1.946562788594     1.007825032230
         H            2.441890963221     1.081733775025    -0.875218788594     1.007825032230
         H            1.045328963221    -0.545963224975     2.108561211406     1.007825032230
         H            2.441964963221     0.232045775025     1.365750211406     1.007825032230
         H            1.044905963221     1.204388775025     1.824493211406     1.007825032230
         H           -2.452326036779    -1.061883224975     0.875072211406     1.007825032230
         H           -1.055787036779    -0.971806224975     1.947091211406     1.007825032230
         H           -1.055119036779    -2.093773224975     0.573916211406     1.007825032230
         H           -1.055218036779     0.564981775025    -2.108774788594     1.007825032230
         H           -1.055562036779    -1.185220224975    -1.823776788594     1.007825032230
         H           -2.452288036779    -0.212058224975    -1.365741788594     1.007825032230
         H           -1.055575036779     2.187125775025    -0.123116788594     1.007825032230
         H           -2.452325036779     1.303855775025     0.490553211406     1.007825032230
         H           -1.055328036779     1.558826775025     1.535093211406     1.007825032230

  Basis Set: AUG-CC-PVTZ
    Blend: AUG-CC-PVTZ
  Basis Set: (AUG-CC-PVTZ AUX)
    Blend: AUG-CC-PVTZ-JKFIT
	 Reference Energy          =    -313.5167247590309216 [Eh]
	 Singles Energy            =      -0.0000000000000000 [Eh]
	 Same-Spin Energy          =      -0.3482949379394794 [Eh]
	 Opposite-Spin Energy      =      -1.2733200230058221 [Eh]
	 Correlation Energy        =      -1.6216149609453017 [Eh]
	 Total Energy              =    -315.1383397199762157 [Eh]

	 ================> DF-SCS-MP2 Energies <==================
	-----------------------------------------------------------
	 SCS Same-Spin Scale       =       0.3333333333333333 [-]
	 SCS Opposite-Spin Scale   =       1.2000000000000000 [-]
	 SCS Same-Spin Energy      =      -0.1160983126464931 [Eh]
	 SCS Opposite-Spin Energy  =      -1.5279840276069865 [Eh]
	 SCS Correlation Energy    =      -1.6440823402534797 [Eh]
	 SCS Total Energy          =    -315.1608070992843977 [Eh]
	-----------------------------------------------------------

  Dipole Moment: [D]
     X:     0.0223      Y:    -0.0316      Z:     0.0026     Total:     0.0387

*** Psi4 exiting successfully. Buy a developer a beer!
