                               Psi4 1.3.2 release

  ==> Input File <==

--------------------------------------------------------------------------
#psi4
#
memory 32 gb

molecule  {
0 1
  C        0.7744449     0.0239805     0.0011730
  C       -0.7863980     0.0000120     0.0000240
  C        1.3524290    -1.3355510    -0.5066990
  C        1.3524640     1.1065670    -0.9032830
  C        1.3525400     0.2289610     1.4099520
  C       -1.3524910    -1.1062660     0.9036570
  C       -1.3524520    -0.2294520    -1.4098630
  C       -1.3524900     1.3357370     0.5062260
  H        1.0503260    -1.5480580    -1.5357290
  H        2.4470620    -1.2938500    -0.4906500
  H        1.0499830    -2.1772130     0.1221590
  H        1.0504580     2.1040080    -0.5727870
  H        1.0499540     0.9828170    -1.9465980
  H        2.4470950     1.0717320    -0.8752540
  H        1.0505330    -0.5559650     2.1085260
  H        2.4471690     0.2220440     1.3657150
  H        1.0501100     1.1943870     1.8244580
  H       -2.4471220    -1.0718850     0.8750370
  H       -1.0505830    -0.9818080     1.9470560
  H       -1.0499150    -2.1037750     0.5738810
  H       -1.0500140     0.5549800    -2.1088100
  H       -1.0503580    -1.1952220    -1.8238120
  H       -2.4470840    -0.2220600    -1.3657770
  H       -1.0503710     2.1771240    -0.1231520
  H       -2.4471210     1.2938540     0.4905180
  H       -1.0501240     1.5488250     1.5350580
units angstrom
no_reorient  #important for SAPT in psi4, default
symmetry c1  #important for SAPT in psi4, default
}

set PROPERTIES_ORIGIN ["COM"]
properties('MP2/aug-cc-pvtz', properties = ['dipole'])
--------------------------------------------------------------------------

    Molecular point group: c1
  Charge       = 0
  Multiplicity = 1
  Basis Set: AUG-CC-PVTZ
    Blend: AUG-CC-PVTZ
  Basis Set: (AUG-CC-PVTZ AUX)
    Blend: AUG-CC-PVTZ-JKFIT

    Orbital Energies [Eh]
    ---------------------

    Doubly Occupied:

       1A    -11.230751     2A    -11.230086     3A    -11.205977
       4A    -11.205757     5A    -11.205692     6A    -11.205613
       7A    -11.205498     8A    -11.205308     9A     -1.126182
      10A     -1.038285    11A     -0.939551    12A     -0.937744
      13A     -0.910087    14A     -0.908193    15A     -0.806911
      16A     -0.690723    17A     -0.647369    18A     -0.601502
      19A     -0.601243    20A     -0.595456    21A     -0.593687
      22A     -0.553366    23A     -0.528206    24A     -0.527935
      25A     -0.527754    26A     -0.508368    27A     -0.507078
      28A     -0.489970    29A     -0.483232    30A     -0.478612
      31A     -0.434649    32A     -0.430864    33A     -0.424777

  @DF-RHF Final Energy:  -313.52797210644815

   => Energetics <=

    Nuclear Repulsion Energy =            438.0050770581348161
    One-Electron Energy =               -1291.0932468885596336
    Two-Electron Energy =                 539.5601977239766711
    Total Energy =                       -313.5279721064481464
  Basis Set: (AUG-CC-PVTZ AUX)
    Blend: AUG-CC-PVTZ-RI
    Molecular point group: c1

    Geometry (in Angstrom), charge = 0, multiplicity = 1:

       Center              X                  Y                   Z               Mass
    ------------   -----------------  -----------------  -----------------  -----------------
         C            0.775701586059     0.021459084662     0.001049628393    12.000000000000
         C           -0.785141313941    -0.002509415338    -0.000099371607    12.000000000000
         C            1.353685686059    -1.338072415338    -0.506822371607    12.000000000000
         C            1.353720686059     1.104045584662    -0.903406371607    12.000000000000
         C            1.353796686059     0.226439584662     1.409828628393    12.000000000000
         C           -1.351234313941    -1.108787415338     0.903533628393    12.000000000000
         C           -1.351195313941    -0.231973415338    -1.409986371607    12.000000000000
         C           -1.351233313941     1.333215584662     0.506102628393    12.000000000000
         H            1.051582686059    -1.550579415338    -1.535852371607     1.007825032230
         H            2.448318686059    -1.296371415338    -0.490773371607     1.007825032230
         H            1.051239686059    -2.179734415338     0.122035628393     1.007825032230
         H            1.051714686059     2.101486584662    -0.572910371607     1.007825032230
         H            1.051210686059     0.980295584662    -1.946721371607     1.007825032230
         H            2.448351686059     1.069210584662    -0.875377371607     1.007825032230
         H            1.051789686059    -0.558486415338     2.108402628393     1.007825032230
         H            2.448425686059     0.219522584662     1.365591628393     1.007825032230
         H            1.051366686059     1.191865584662     1.824334628393     1.007825032230
         H           -2.445865313941    -1.074406415338     0.874913628393     1.007825032230
         H           -1.049326313941    -0.984329415338     1.946932628393     1.007825032230
         H           -1.048658313941    -2.106296415338     0.573757628393     1.007825032230
         H           -1.048757313941     0.552458584662    -2.108933371607     1.007825032230
         H           -1.049101313941    -1.197743415338    -1.823935371607     1.007825032230
         H           -2.445827313941    -0.224581415338    -1.365900371607     1.007825032230
         H           -1.049114313941     2.174602584662    -0.123275371607     1.007825032230
         H           -2.445864313941     1.291332584662     0.490394628393     1.007825032230
         H           -1.048867313941     1.546303584662     1.534934628393     1.007825032230

  Basis Set: AUG-CC-PVTZ
    Blend: AUG-CC-PVTZ
  Basis Set: (AUG-CC-PVTZ AUX)
    Blend: AUG-CC-PVTZ-JKFIT
	 Reference Energy          =    -313.5279721064481464 [Eh]
	 Singles Energy            =      -0.0000000000000000 [Eh]
	 Same-Spin Energy          =      -0.3477033043143187 [Eh]
	 Opposite-Spin Energy      =      -1.2725645793384106 [Eh]
	 Correlation Energy        =      -1.6202678836527293 [Eh]
	 Total Energy              =    -315.1482399901008762 [Eh]

	 ================> DF-SCS-MP2 Energies <==================
	-----------------------------------------------------------
	 SCS Same-Spin Scale       =       0.3333333333333333 [-]
	 SCS Opposite-Spin Scale   =       1.2000000000000000 [-]
	 SCS Same-Spin Energy      =      -0.1159011014381062 [Eh]
	 SCS Opposite-Spin Energy  =      -1.5270774952060926 [Eh]
	 SCS Correlation Energy    =      -1.6429785966441988 [Eh]
	 SCS Total Energy          =    -315.1709507030923305 [Eh]
	-----------------------------------------------------------

  Dipole Moment: [D]
     X:    -0.0078      Y:     0.0085      Z:     0.0006     Total:     0.0115

*** Psi4 exiting successfully. Buy a developer a beer!
