                               Psi4 1.3.2 release

  ==> Input File <==

--------------------------------------------------------------------------
#psi4
#
memory 32 gb

molecule  {
0 1
  C        0.7863980     0.0000030     0.0000120
  C       -0.7825658     0.0175979     0.1083181
  C        1.3524290    -1.3355510    -0.5066990
  C        1.3524640     1.1065670    -0.9032830
  C        1.3525400     0.2289610     1.4099520
  C       -1.3524910    -1.1062660     0.9036570
  C       -1.3524520    -0.2294520    -1.4098630
  C       -1.3524900     1.3357370     0.5062260
  H        1.0503260    -1.5480580    -1.5357290
  H        2.4470620    -1.2938500    -0.4906500
  H        1.0499830    -2.1772130     0.1221590
  H        1.0504580     2.1040080    -0.5727870
  H        1.0499540     0.9828170    -1.9465980
  H        2.4470950     1.0717320    -0.8752540
  H        1.0505330    -0.5559650     2.1085260
  H        2.4471690     0.2220440     1.3657150
  H        1.0501100     1.1943870     1.8244580
  H       -2.4471220    -1.0718850     0.8750370
  H       -1.0505830    -0.9818080     1.9470560
  H       -1.0499150    -2.1037750     0.5738810
  H       -1.0500140     0.5549800    -2.1088100
  H       -1.0503580    -1.1952220    -1.8238120
  H       -2.4470840    -0.2220600    -1.3657770
  H       -1.0503710     2.1771240    -0.1231520
  H       -2.4471210     1.2938540     0.4905180
  H       -1.0501240     1.5488250     1.5350580
units angstrom
no_reorient  #important for SAPT in psi4, default
symmetry c1  #important for SAPT in psi4, default
}

set PROPERTIES_ORIGIN ["COM"]
properties('MP2/aug-cc-pvtz', properties = ['dipole'])
--------------------------------------------------------------------------

    Molecular point group: c1
  Charge       = 0
  Multiplicity = 1
  Basis Set: AUG-CC-PVTZ
    Blend: AUG-CC-PVTZ
  Basis Set: (AUG-CC-PVTZ AUX)
    Blend: AUG-CC-PVTZ-JKFIT

    Orbital Energies [Eh]
    ---------------------

    Doubly Occupied:

       1A    -11.231899     2A    -11.231094     3A    -11.206637
       4A    -11.206619     5A    -11.205670     6A    -11.205649
       7A    -11.205247     8A    -11.204109     9A     -1.126855
      10A     -1.040884    11A     -0.943870    12A     -0.934861
      13A     -0.913456    14A     -0.904737    15A     -0.804806
      16A     -0.691928    17A     -0.648339    18A     -0.604191
      19A     -0.601869    20A     -0.596803    21A     -0.590350
      22A     -0.553795    23A     -0.529667    24A     -0.527808
      25A     -0.527656    26A     -0.512033    27A     -0.505369
      28A     -0.494505    29A     -0.488909    30A     -0.472028
      31A     -0.443616    32A     -0.435144    33A     -0.401403

  @DF-RHF Final Energy:  -313.51752345440275

   => Energetics <=

    Nuclear Repulsion Energy =            437.9373507909642171
    One-Electron Energy =               -1290.9261376620568171
    Two-Electron Energy =                 539.4712634166897942
    Total Energy =                       -313.5175234544027489
  Basis Set: (AUG-CC-PVTZ AUX)
    Blend: AUG-CC-PVTZ-RI
    Molecular point group: c1

    Geometry (in Angstrom), charge = 0, multiplicity = 1:

       Center              X                  Y                   Z               Mass
    ------------   -----------------  -----------------  -----------------  -----------------
         C            0.785995125971    -0.001846445578    -0.011374623926    12.000000000000
         C           -0.782968674029     0.015748454422     0.096931476074    12.000000000000
         C            1.352026125971    -1.337400445578    -0.518085623926    12.000000000000
         C            1.352061125971     1.104717554422    -0.914669623926    12.000000000000
         C            1.352137125971     0.227111554422     1.398565376074    12.000000000000
         C           -1.352893874029    -1.108115445578     0.892270376074    12.000000000000
         C           -1.352854874029    -0.231301445578    -1.421249623926    12.000000000000
         C           -1.352892874029     1.333887554422     0.494839376074    12.000000000000
         H            1.049923125971    -1.549907445578    -1.547115623926     1.007825032230
         H            2.446659125971    -1.295699445578    -0.502036623926     1.007825032230
         H            1.049580125971    -2.179062445578     0.110772376074     1.007825032230
         H            1.050055125971     2.102158554422    -0.584173623926     1.007825032230
         H            1.049551125971     0.980967554422    -1.957984623926     1.007825032230
         H            2.446692125971     1.069882554422    -0.886640623926     1.007825032230
         H            1.050130125971    -0.557814445578     2.097139376074     1.007825032230
         H            2.446766125971     0.220194554422     1.354328376074     1.007825032230
         H            1.049707125971     1.192537554422     1.813071376074     1.007825032230
         H           -2.447524874029    -1.073734445578     0.863650376074     1.007825032230
         H           -1.050985874029    -0.983657445578     1.935669376074     1.007825032230
         H           -1.050317874029    -2.105624445578     0.562494376074     1.007825032230
         H           -1.050416874029     0.553130554422    -2.120196623926     1.007825032230
         H           -1.050760874029    -1.197071445578    -1.835198623926     1.007825032230
         H           -2.447486874029    -0.223909445578    -1.377163623926     1.007825032230
         H           -1.050773874029     2.175274554422    -0.134538623926     1.007825032230
         H           -2.447523874029     1.292004554422     0.479131376074     1.007825032230
         H           -1.050526874029     1.546975554422     1.523671376074     1.007825032230

  Basis Set: AUG-CC-PVTZ
    Blend: AUG-CC-PVTZ
  Basis Set: (AUG-CC-PVTZ AUX)
    Blend: AUG-CC-PVTZ-JKFIT
	 Reference Energy          =    -313.5175234544027489 [Eh]
	 Singles Energy            =      -0.0000000000000000 [Eh]
	 Same-Spin Energy          =      -0.3482037185971814 [Eh]
	 Opposite-Spin Energy      =      -1.2734677546922406 [Eh]
	 Correlation Energy        =      -1.6216714732894220 [Eh]
	 Total Energy              =    -315.1391949276921878 [Eh]

	 ================> DF-SCS-MP2 Energies <==================
	-----------------------------------------------------------
	 SCS Same-Spin Scale       =       0.3333333333333333 [-]
	 SCS Opposite-Spin Scale   =       1.2000000000000000 [-]
	 SCS Same-Spin Energy      =      -0.1160679061990604 [Eh]
	 SCS Opposite-Spin Energy  =      -1.5281613056306886 [Eh]
	 SCS Correlation Energy    =      -1.6442292118297490 [Eh]
	 SCS Total Energy          =    -315.1617526662324735 [Eh]
	-----------------------------------------------------------

  Dipole Moment: [D]
     X:     0.0142      Y:     0.0072      Z:     0.0444     Total:     0.0472

*** Psi4 exiting successfully. Buy a developer a beer!
