                               Psi4 1.3.2 release

  ==> Input File <==

--------------------------------------------------------------------------
#psi4
#
memory 32 gb

molecule  {
0 1
  C        0.7626903    -0.0446910     0.0178093
  C       -0.7863980     0.0000120     0.0000240
  C        1.3524290    -1.3355510    -0.5066990
  C        1.3524640     1.1065670    -0.9032830
  C        1.3525400     0.2289610     1.4099520
  C       -1.3524910    -1.1062660     0.9036570
  C       -1.3524520    -0.2294520    -1.4098630
  C       -1.3524900     1.3357370     0.5062260
  H        1.0503260    -1.5480580    -1.5357290
  H        2.4470620    -1.2938500    -0.4906500
  H        1.0499830    -2.1772130     0.1221590
  H        1.0504580     2.1040080    -0.5727870
  H        1.0499540     0.9828170    -1.9465980
  H        2.4470950     1.0717320    -0.8752540
  H        1.0505330    -0.5559650     2.1085260
  H        2.4471690     0.2220440     1.3657150
  H        1.0501100     1.1943870     1.8244580
  H       -2.4471220    -1.0718850     0.8750370
  H       -1.0505830    -0.9818080     1.9470560
  H       -1.0499150    -2.1037750     0.5738810
  H       -1.0500140     0.5549800    -2.1088100
  H       -1.0503580    -1.1952220    -1.8238120
  H       -2.4470840    -0.2220600    -1.3657770
  H       -1.0503710     2.1771240    -0.1231520
  H       -2.4471210     1.2938540     0.4905180
  H       -1.0501240     1.5488250     1.5350580
units angstrom
no_reorient  #important for SAPT in psi4, default
symmetry c1  #important for SAPT in psi4, default
}

set PROPERTIES_ORIGIN ["COM"]
properties('MP2/aug-cc-pvtz', properties = ['dipole'])
--------------------------------------------------------------------------

    Molecular point group: c1
  Charge       = 0
  Multiplicity = 1
  Basis Set: AUG-CC-PVTZ
    Blend: AUG-CC-PVTZ
  Basis Set: (AUG-CC-PVTZ AUX)
    Blend: AUG-CC-PVTZ-JKFIT

    Orbital Energies [Eh]
    ---------------------

    Doubly Occupied:

       1A    -11.231079     2A    -11.230048     3A    -11.206441
       4A    -11.206001     5A    -11.205791     6A    -11.205729
       7A    -11.205521     8A    -11.205113     9A     -1.127020
      10A     -1.037688    11A     -0.940335    12A     -0.936842
      13A     -0.910672    14A     -0.906815    15A     -0.809133
      16A     -0.690390    17A     -0.647041    18A     -0.602060
      19A     -0.601786    20A     -0.595890    21A     -0.592200
      22A     -0.553408    23A     -0.528421    24A     -0.527818
      25A     -0.527578    26A     -0.509201    27A     -0.506576
      28A     -0.490041    29A     -0.485261    30A     -0.476696
      31A     -0.438201    32A     -0.432764    33A     -0.418315

  @DF-RHF Final Energy:  -313.52592093073258

   => Energetics <=

    Nuclear Repulsion Energy =            438.0757239570232286
    One-Electron Energy =               -1291.2275464052524967
    Two-Electron Energy =                 539.6259015174966862
    Total Energy =                       -313.5259209307325818
  Basis Set: (AUG-CC-PVTZ AUX)
    Blend: AUG-CC-PVTZ-RI
    Molecular point group: c1

    Geometry (in Angstrom), charge = 0, multiplicity = 1:

       Center              X                  Y                   Z               Mass
    ------------   -----------------  -----------------  -----------------  -----------------
         C            0.765182785505    -0.039992756506     0.015936899899    12.000000000000
         C           -0.783905514495     0.004710243494    -0.001848400101    12.000000000000
         C            1.354921485505    -1.330852756506    -0.508571400101    12.000000000000
         C            1.354956485505     1.111265243494    -0.905155400101    12.000000000000
         C            1.355032485505     0.233659243494     1.408079599899    12.000000000000
         C           -1.349998514495    -1.101567756506     0.901784599899    12.000000000000
         C           -1.349959514495    -0.224753756506    -1.411735400101    12.000000000000
         C           -1.349997514495     1.340435243494     0.504353599899    12.000000000000
         H            1.052818485505    -1.543359756506    -1.537601400101     1.007825032230
         H            2.449554485505    -1.289151756506    -0.492522400101     1.007825032230
         H            1.052475485505    -2.172514756506     0.120286599899     1.007825032230
         H            1.052950485505     2.108706243494    -0.574659400101     1.007825032230
         H            1.052446485505     0.987515243494    -1.948470400101     1.007825032230
         H            2.449587485505     1.076430243494    -0.877126400101     1.007825032230
         H            1.053025485505    -0.551266756506     2.106653599899     1.007825032230
         H            2.449661485505     0.226742243494     1.363842599899     1.007825032230
         H            1.052602485505     1.199085243494     1.822585599899     1.007825032230
         H           -2.444629514495    -1.067186756506     0.873164599899     1.007825032230
         H           -1.048090514495    -0.977109756506     1.945183599899     1.007825032230
         H           -1.047422514495    -2.099076756506     0.572008599899     1.007825032230
         H           -1.047521514495     0.559678243494    -2.110682400101     1.007825032230
         H           -1.047865514495    -1.190523756506    -1.825684400101     1.007825032230
         H           -2.444591514495    -0.217361756506    -1.367649400101     1.007825032230
         H           -1.047878514495     2.181822243494    -0.125024400101     1.007825032230
         H           -2.444628514495     1.298552243494     0.488645599899     1.007825032230
         H           -1.047631514495     1.553523243494     1.533185599899     1.007825032230

  Basis Set: AUG-CC-PVTZ
    Blend: AUG-CC-PVTZ
  Basis Set: (AUG-CC-PVTZ AUX)
    Blend: AUG-CC-PVTZ-JKFIT
	 Reference Energy          =    -313.5259209307325818 [Eh]
	 Singles Energy            =      -0.0000000000000000 [Eh]
	 Same-Spin Energy          =      -0.3477868758911888 [Eh]
	 Opposite-Spin Energy      =      -1.2727794730523989 [Eh]
	 Correlation Energy        =      -1.6205663489435878 [Eh]
	 Total Energy              =    -315.1464872796761938 [Eh]

	 ================> DF-SCS-MP2 Energies <==================
	-----------------------------------------------------------
	 SCS Same-Spin Scale       =       0.3333333333333333 [-]
	 SCS Opposite-Spin Scale   =       1.2000000000000000 [-]
	 SCS Same-Spin Energy      =      -0.1159289586303963 [Eh]
	 SCS Opposite-Spin Energy  =      -1.5273353676628787 [Eh]
	 SCS Correlation Energy    =      -1.6432643262932749 [Eh]
	 SCS Total Energy          =    -315.1691852570258447 [Eh]
	-----------------------------------------------------------

  Dipole Moment: [D]
     X:    -0.0167      Y:    -0.0163      Z:     0.0074     Total:     0.0245

*** Psi4 exiting successfully. Buy a developer a beer!
