                               Psi4 1.3.2 release

  ==> Input File <==

--------------------------------------------------------------------------
#psi4
#
memory 32 gb

molecule  {
0 1
  C        0.7863980     0.0000030     0.0000120
  C       -0.7863980     0.0000120     0.0000240
  C        1.2974462    -1.3201072    -0.5974746
  C        1.3524640     1.1065670    -0.9032830
  C        1.3525400     0.2289610     1.4099520
  C       -1.3524910    -1.1062660     0.9036570
  C       -1.3524520    -0.2294520    -1.4098630
  C       -1.3524900     1.3357370     0.5062260
  H        1.0503260    -1.5480580    -1.5357290
  H        2.4470620    -1.2938500    -0.4906500
  H        1.0499830    -2.1772130     0.1221590
  H        1.0504580     2.1040080    -0.5727870
  H        1.0499540     0.9828170    -1.9465980
  H        2.4470950     1.0717320    -0.8752540
  H        1.0505330    -0.5559650     2.1085260
  H        2.4471690     0.2220440     1.3657150
  H        1.0501100     1.1943870     1.8244580
  H       -2.4471220    -1.0718850     0.8750370
  H       -1.0505830    -0.9818080     1.9470560
  H       -1.0499150    -2.1037750     0.5738810
  H       -1.0500140     0.5549800    -2.1088100
  H       -1.0503580    -1.1952220    -1.8238120
  H       -2.4470840    -0.2220600    -1.3657770
  H       -1.0503710     2.1771240    -0.1231520
  H       -2.4471210     1.2938540     0.4905180
  H       -1.0501240     1.5488250     1.5350580
units angstrom
no_reorient  #important for SAPT in psi4, default
symmetry c1  #important for SAPT in psi4, default
}

set PROPERTIES_ORIGIN ["COM"]
properties('MP2/aug-cc-pvtz', properties = ['dipole'])
--------------------------------------------------------------------------

    Molecular point group: c1
  Charge       = 0
  Multiplicity = 1
  Basis Set: AUG-CC-PVTZ
    Blend: AUG-CC-PVTZ
  Basis Set: (AUG-CC-PVTZ AUX)
    Blend: AUG-CC-PVTZ-JKFIT

    Orbital Energies [Eh]
    ---------------------

    Doubly Occupied:

       1A    -11.231657     2A    -11.229596     3A    -11.207800
       4A    -11.207728     5A    -11.206035     6A    -11.205047
       7A    -11.204907     8A    -11.204837     9A     -1.126081
      10A     -1.038312    11A     -0.942683    12A     -0.937422
      13A     -0.911279    14A     -0.908652    15A     -0.804944
      16A     -0.693188    17A     -0.648927    18A     -0.607132
      19A     -0.600244    20A     -0.597241    21A     -0.594252
      22A     -0.551158    23A     -0.535633    24A     -0.528166
      25A     -0.522566    26A     -0.508333    27A     -0.500864
      28A     -0.490346    29A     -0.485588    30A     -0.475802
      31A     -0.438084    32A     -0.427649    33A     -0.420798

  @DF-RHF Final Energy:  -313.51464116885154

   => Energetics <=

    Nuclear Repulsion Energy =            438.1824262881946765
    One-Electron Energy =               -1291.4082305788424492
    Two-Electron Energy =                 539.7111631217962895
    Total Energy =                       -313.5146411688515400
  Basis Set: (AUG-CC-PVTZ AUX)
    Blend: AUG-CC-PVTZ-RI
    Molecular point group: c1

    Geometry (in Angstrom), charge = 0, multiplicity = 1:

       Center              X                  Y                   Z               Mass
    ------------   -----------------  -----------------  -----------------  -----------------
         C            0.792178538802    -0.001621239616     0.009554223089    12.000000000000
         C           -0.780617461198    -0.001612239616     0.009566223089    12.000000000000
         C            1.303226738802    -1.321731439616    -0.587932376911    12.000000000000
         C            1.358244538802     1.104942760384    -0.893740776911    12.000000000000
         C            1.358320538802     0.227336760384     1.419494223089    12.000000000000
         C           -1.346710461198    -1.107890239616     0.913199223089    12.000000000000
         C           -1.346671461198    -0.231076239616    -1.400320776911    12.000000000000
         C           -1.346709461198     1.334112760384     0.515768223089    12.000000000000
         H            1.056106538802    -1.549682239616    -1.526186776911     1.007825032230
         H            2.452842538802    -1.295474239616    -0.481107776911     1.007825032230
         H            1.055763538802    -2.178837239616     0.131701223089     1.007825032230
         H            1.056238538802     2.102383760384    -0.563244776911     1.007825032230
         H            1.055734538802     0.981192760384    -1.937055776911     1.007825032230
         H            2.452875538802     1.070107760384    -0.865711776911     1.007825032230
         H            1.056313538802    -0.557589239616     2.118068223089     1.007825032230
         H            2.452949538802     0.220419760384     1.375257223089     1.007825032230
         H            1.055890538802     1.192762760384     1.834000223089     1.007825032230
         H           -2.441341461198    -1.073509239616     0.884579223089     1.007825032230
         H           -1.044802461198    -0.983432239616     1.956598223089     1.007825032230
         H           -1.044134461198    -2.105399239616     0.583423223089     1.007825032230
         H           -1.044233461198     0.553355760384    -2.099267776911     1.007825032230
         H           -1.044577461198    -1.196846239616    -1.814269776911     1.007825032230
         H           -2.441303461198    -0.223684239616    -1.356234776911     1.007825032230
         H           -1.044590461198     2.175499760384    -0.113609776911     1.007825032230
         H           -2.441340461198     1.292229760384     0.500060223089     1.007825032230
         H           -1.044343461198     1.547200760384     1.544600223089     1.007825032230

  Basis Set: AUG-CC-PVTZ
    Blend: AUG-CC-PVTZ
  Basis Set: (AUG-CC-PVTZ AUX)
    Blend: AUG-CC-PVTZ-JKFIT
	 Reference Energy          =    -313.5146411688515400 [Eh]
	 Singles Energy            =      -0.0000000000000000 [Eh]
	 Same-Spin Energy          =      -0.3480236584616478 [Eh]
	 Opposite-Spin Energy      =      -1.2732744726788199 [Eh]
	 Correlation Energy        =      -1.6212981311404677 [Eh]
	 Total Energy              =    -315.1359392999920033 [Eh]

	 ================> DF-SCS-MP2 Energies <==================
	-----------------------------------------------------------
	 SCS Same-Spin Scale       =       0.3333333333333333 [-]
	 SCS Opposite-Spin Scale   =       1.2000000000000000 [-]
	 SCS Same-Spin Energy      =      -0.1160078861538826 [Eh]
	 SCS Opposite-Spin Energy  =      -1.5279293672145837 [Eh]
	 SCS Correlation Energy    =      -1.6439372533684664 [Eh]
	 SCS Total Energy          =    -315.1585784222199891 [Eh]
	-----------------------------------------------------------

  Dipole Moment: [D]
     X:    -0.0090      Y:     0.0179      Z:    -0.0068     Total:     0.0212

*** Psi4 exiting successfully. Buy a developer a beer!
