                               Psi4 1.3.2 release

  ==> Input File <==

--------------------------------------------------------------------------
#psi4
#
memory 32 gb

molecule  {
0 1
  C        0.7985124     0.0224580    -0.0082438
  C       -0.7863980     0.0000120     0.0000240
  C        1.3524290    -1.3355510    -0.5066990
  C        1.3524640     1.1065670    -0.9032830
  C        1.3525400     0.2289610     1.4099520
  C       -1.3524910    -1.1062660     0.9036570
  C       -1.3524520    -0.2294520    -1.4098630
  C       -1.3524900     1.3357370     0.5062260
  H        1.0503260    -1.5480580    -1.5357290
  H        2.4470620    -1.2938500    -0.4906500
  H        1.0499830    -2.1772130     0.1221590
  H        1.0504580     2.1040080    -0.5727870
  H        1.0499540     0.9828170    -1.9465980
  H        2.4470950     1.0717320    -0.8752540
  H        1.0505330    -0.5559650     2.1085260
  H        2.4471690     0.2220440     1.3657150
  H        1.0501100     1.1943870     1.8244580
  H       -2.4471220    -1.0718850     0.8750370
  H       -1.0505830    -0.9818080     1.9470560
  H       -1.0499150    -2.1037750     0.5738810
  H       -1.0500140     0.5549800    -2.1088100
  H       -1.0503580    -1.1952220    -1.8238120
  H       -2.4470840    -0.2220600    -1.3657770
  H       -1.0503710     2.1771240    -0.1231520
  H       -2.4471210     1.2938540     0.4905180
  H       -1.0501240     1.5488250     1.5350580
units angstrom
no_reorient  #important for SAPT in psi4, default
symmetry c1  #important for SAPT in psi4, default
}

set PROPERTIES_ORIGIN ["COM"]
properties('MP2/aug-cc-pvtz', properties = ['dipole'])
--------------------------------------------------------------------------

    Molecular point group: c1
  Charge       = 0
  Multiplicity = 1
  Basis Set: AUG-CC-PVTZ
    Blend: AUG-CC-PVTZ
  Basis Set: (AUG-CC-PVTZ AUX)
    Blend: AUG-CC-PVTZ-JKFIT

    Orbital Energies [Eh]
    ---------------------

    Doubly Occupied:

       1A    -11.230734     2A    -11.230157     3A    -11.205775
       4A    -11.205606     5A    -11.205543     6A    -11.205316
       7A    -11.205254     8A    -11.205099     9A     -1.124994
      10A     -1.040129    11A     -0.939943    12A     -0.938013
      13A     -0.910752    14A     -0.908934    15A     -0.802336
      16A     -0.691705    17A     -0.648196    18A     -0.601305
      19A     -0.600583    20A     -0.595917    21A     -0.594529
      22A     -0.553447    23A     -0.528379    24A     -0.528186
      25A     -0.527862    26A     -0.508276    27A     -0.506995
      28A     -0.490075    29A     -0.484000    30A     -0.478754
      31A     -0.437352    32A     -0.430572    33A     -0.420791

  @DF-RHF Final Energy:  -313.52799069216394

   => Energetics <=

    Nuclear Repulsion Energy =            437.8574290050399327
    One-Electron Energy =               -1290.7998262864387016
    Two-Electron Energy =                 539.4144065892348863
    Total Energy =                       -313.5279906921639395
  Basis Set: (AUG-CC-PVTZ AUX)
    Blend: AUG-CC-PVTZ-RI
    Molecular point group: c1

    Geometry (in Angstrom), charge = 0, multiplicity = 1:

       Center              X                  Y                   Z               Mass
    ------------   -----------------  -----------------  -----------------  -----------------
         C            0.797238791265     0.020096650054    -0.007377152701    12.000000000000
         C           -0.787671608735    -0.002349349946     0.000890647299    12.000000000000
         C            1.351155391265    -1.337912349946    -0.505832352701    12.000000000000
         C            1.351190391265     1.104205650054    -0.902416352701    12.000000000000
         C            1.351266391265     0.226599650054     1.410818647299    12.000000000000
         C           -1.353764608735    -1.108627349946     0.904523647299    12.000000000000
         C           -1.353725608735    -0.231813349946    -1.408996352701    12.000000000000
         C           -1.353763608735     1.333375650054     0.507092647299    12.000000000000
         H            1.049052391265    -1.550419349946    -1.534862352701     1.007825032230
         H            2.445788391265    -1.296211349946    -0.489783352701     1.007825032230
         H            1.048709391265    -2.179574349946     0.123025647299     1.007825032230
         H            1.049184391265     2.101646650054    -0.571920352701     1.007825032230
         H            1.048680391265     0.980455650054    -1.945731352701     1.007825032230
         H            2.445821391265     1.069370650054    -0.874387352701     1.007825032230
         H            1.049259391265    -0.558326349946     2.109392647299     1.007825032230
         H            2.445895391265     0.219682650054     1.366581647299     1.007825032230
         H            1.048836391265     1.192025650054     1.825324647299     1.007825032230
         H           -2.448395608735    -1.074246349946     0.875903647299     1.007825032230
         H           -1.051856608735    -0.984169349946     1.947922647299     1.007825032230
         H           -1.051188608735    -2.106136349946     0.574747647299     1.007825032230
         H           -1.051287608735     0.552618650054    -2.107943352701     1.007825032230
         H           -1.051631608735    -1.197583349946    -1.822945352701     1.007825032230
         H           -2.448357608735    -0.224421349946    -1.364910352701     1.007825032230
         H           -1.051644608735     2.174762650054    -0.122285352701     1.007825032230
         H           -2.448394608735     1.291492650054     0.491384647299     1.007825032230
         H           -1.051397608735     1.546463650054     1.535924647299     1.007825032230

  Basis Set: AUG-CC-PVTZ
    Blend: AUG-CC-PVTZ
  Basis Set: (AUG-CC-PVTZ AUX)
    Blend: AUG-CC-PVTZ-JKFIT
	 Reference Energy          =    -313.5279906921639395 [Eh]
	 Singles Energy            =      -0.0000000000000000 [Eh]
	 Same-Spin Energy          =      -0.3477324980591829 [Eh]
	 Opposite-Spin Energy      =      -1.2724951142586205 [Eh]
	 Correlation Energy        =      -1.6202276123178034 [Eh]
	 Total Energy              =    -315.1482183044817589 [Eh]

	 ================> DF-SCS-MP2 Energies <==================
	-----------------------------------------------------------
	 SCS Same-Spin Scale       =       0.3333333333333333 [-]
	 SCS Opposite-Spin Scale   =       1.2000000000000000 [-]
	 SCS Same-Spin Energy      =      -0.1159108326863943 [Eh]
	 SCS Opposite-Spin Energy  =      -1.5269941371103446 [Eh]
	 SCS Correlation Energy    =      -1.6429049697967388 [Eh]
	 SCS Total Energy          =    -315.1708956619606852 [Eh]
	-----------------------------------------------------------

  Dipole Moment: [D]
     X:     0.0067      Y:     0.0076      Z:    -0.0026     Total:     0.0105

*** Psi4 exiting successfully. Buy a developer a beer!
