                               Psi4 1.3.2 release

  ==> Input File <==

--------------------------------------------------------------------------
#psi4
#
memory 32 gb

molecule  {
0 1
  C        0.7863980     0.0000030     0.0000120
  C       -0.7863980     0.0000120     0.0000240
  C        1.4046541    -1.3444881    -0.4134547
  C        1.3524640     1.1065670    -0.9032830
  C        1.3525400     0.2289610     1.4099520
  C       -1.3524910    -1.1062660     0.9036570
  C       -1.3524520    -0.2294520    -1.4098630
  C       -1.3524900     1.3357370     0.5062260
  H        1.0503260    -1.5480580    -1.5357290
  H        2.4470620    -1.2938500    -0.4906500
  H        1.0499830    -2.1772130     0.1221590
  H        1.0504580     2.1040080    -0.5727870
  H        1.0499540     0.9828170    -1.9465980
  H        2.4470950     1.0717320    -0.8752540
  H        1.0505330    -0.5559650     2.1085260
  H        2.4471690     0.2220440     1.3657150
  H        1.0501100     1.1943870     1.8244580
  H       -2.4471220    -1.0718850     0.8750370
  H       -1.0505830    -0.9818080     1.9470560
  H       -1.0499150    -2.1037750     0.5738810
  H       -1.0500140     0.5549800    -2.1088100
  H       -1.0503580    -1.1952220    -1.8238120
  H       -2.4470840    -0.2220600    -1.3657770
  H       -1.0503710     2.1771240    -0.1231520
  H       -2.4471210     1.2938540     0.4905180
  H       -1.0501240     1.5488250     1.5350580
units angstrom
no_reorient  #important for SAPT in psi4, default
symmetry c1  #important for SAPT in psi4, default
}

set PROPERTIES_ORIGIN ["COM"]
properties('MP2/aug-cc-pvtz', properties = ['dipole'])
--------------------------------------------------------------------------

    Molecular point group: c1
  Charge       = 0
  Multiplicity = 1
  Basis Set: AUG-CC-PVTZ
    Blend: AUG-CC-PVTZ
  Basis Set: (AUG-CC-PVTZ AUX)
    Blend: AUG-CC-PVTZ-JKFIT

    Orbital Energies [Eh]
    ---------------------

    Doubly Occupied:

       1A    -11.231671     2A    -11.230838     3A    -11.207222
       4A    -11.206574     5A    -11.206424     6A    -11.206285
       7A    -11.205120     8A    -11.204243     9A     -1.125859
      10A     -1.040776    11A     -0.940890    12A     -0.936549
      13A     -0.911287    14A     -0.908504    15A     -0.805892
      16A     -0.692403    17A     -0.650307    18A     -0.604077
      19A     -0.600241    20A     -0.596183    21A     -0.591015
      22A     -0.558210    23A     -0.536198    24A     -0.528365
      25A     -0.521736    26A     -0.513087    27A     -0.507191
      28A     -0.487585    29A     -0.484133    30A     -0.470204
      31A     -0.436564    32A     -0.429108    33A     -0.421450

  @DF-RHF Final Energy:  -313.51739616686865

   => Energetics <=

    Nuclear Repulsion Energy =            437.7579469098238860
    One-Electron Energy =               -1290.5583087301424712
    Two-Electron Energy =                 539.2829656534499918
    Total Energy =                       -313.5173961668685934
  Basis Set: (AUG-CC-PVTZ AUX)
    Blend: AUG-CC-PVTZ-RI
    Molecular point group: c1

    Geometry (in Angstrom), charge = 0, multiplicity = 1:

       Center              X                  Y                   Z               Mass
    ------------   -----------------  -----------------  -----------------  -----------------
         C            0.780907422515     0.000942003942    -0.009792389353    12.000000000000
         C           -0.791888577485     0.000951003942    -0.009780389353    12.000000000000
         C            1.399163522515    -1.343549096058    -0.423259089353    12.000000000000
         C            1.346973422515     1.107506003942    -0.913087389353    12.000000000000
         C            1.347049422515     0.229900003942     1.400147610647    12.000000000000
         C           -1.357981577485    -1.105326996058     0.893852610647    12.000000000000
         C           -1.357942577485    -0.228512996058    -1.419667389353    12.000000000000
         C           -1.357980577485     1.336676003942     0.496421610647    12.000000000000
         H            1.044835422515    -1.547118996058    -1.545533389353     1.007825032230
         H            2.441571422515    -1.292910996058    -0.500454389353     1.007825032230
         H            1.044492422515    -2.176273996058     0.112354610647     1.007825032230
         H            1.044967422515     2.104947003942    -0.582591389353     1.007825032230
         H            1.044463422515     0.983756003942    -1.956402389353     1.007825032230
         H            2.441604422515     1.072671003942    -0.885058389353     1.007825032230
         H            1.045042422515    -0.555025996058     2.098721610647     1.007825032230
         H            2.441678422515     0.222983003942     1.355910610647     1.007825032230
         H            1.044619422515     1.195326003942     1.814653610647     1.007825032230
         H           -2.452612577485    -1.070945996058     0.865232610647     1.007825032230
         H           -1.056073577485    -0.980868996058     1.937251610647     1.007825032230
         H           -1.055405577485    -2.102835996058     0.564076610647     1.007825032230
         H           -1.055504577485     0.555919003942    -2.118614389353     1.007825032230
         H           -1.055848577485    -1.194282996058    -1.833616389353     1.007825032230
         H           -2.452574577485    -0.221120996058    -1.375581389353     1.007825032230
         H           -1.055861577485     2.178063003942    -0.132956389353     1.007825032230
         H           -2.452611577485     1.294793003942     0.480713610647     1.007825032230
         H           -1.055614577485     1.549764003942     1.525253610647     1.007825032230

  Basis Set: AUG-CC-PVTZ
    Blend: AUG-CC-PVTZ
  Basis Set: (AUG-CC-PVTZ AUX)
    Blend: AUG-CC-PVTZ-JKFIT
	 Reference Energy          =    -313.5173961668686502 [Eh]
	 Singles Energy            =      -0.0000000000000000 [Eh]
	 Same-Spin Energy          =      -0.3478370021961292 [Eh]
	 Opposite-Spin Energy      =      -1.2729663883290485 [Eh]
	 Correlation Energy        =      -1.6208033905251777 [Eh]
	 Total Energy              =    -315.1381995573938184 [Eh]

	 ================> DF-SCS-MP2 Energies <==================
	-----------------------------------------------------------
	 SCS Same-Spin Scale       =       0.3333333333333333 [-]
	 SCS Opposite-Spin Scale   =       1.2000000000000000 [-]
	 SCS Same-Spin Energy      =      -0.1159456673987097 [Eh]
	 SCS Opposite-Spin Energy  =      -1.5275596659948583 [Eh]
	 SCS Correlation Energy    =      -1.6435053333935681 [Eh]
	 SCS Total Energy          =    -315.1609015002622414 [Eh]
	-----------------------------------------------------------

  Dipole Moment: [D]
     X:    -0.0040      Y:     0.0181      Z:     0.0437     Total:     0.0474

*** Psi4 exiting successfully. Buy a developer a beer!
