                               Psi4 1.3.2 release

  ==> Input File <==

--------------------------------------------------------------------------
#psi4
#
memory 32 gb

molecule  {
0 1
  C        0.8616069    -0.1421433     0.0020686
  C       -0.7863980     0.0000120     0.0000240
  C        1.3524290    -1.3355510    -0.5066990
  C        1.3524640     1.1065670    -0.9032830
  C        1.3525400     0.2289610     1.4099520
  C       -1.3524910    -1.1062660     0.9036570
  C       -1.3524520    -0.2294520    -1.4098630
  C       -1.3524900     1.3357370     0.5062260
  H        1.0503260    -1.5480580    -1.5357290
  H        2.4470620    -1.2938500    -0.4906500
  H        1.0499830    -2.1772130     0.1221590
  H        1.0504580     2.1040080    -0.5727870
  H        1.0499540     0.9828170    -1.9465980
  H        2.4470950     1.0717320    -0.8752540
  H        1.0505330    -0.5559650     2.1085260
  H        2.4471690     0.2220440     1.3657150
  H        1.0501100     1.1943870     1.8244580
  H       -2.4471220    -1.0718850     0.8750370
  H       -1.0505830    -0.9818080     1.9470560
  H       -1.0499150    -2.1037750     0.5738810
  H       -1.0500140     0.5549800    -2.1088100
  H       -1.0503580    -1.1952220    -1.8238120
  H       -2.4470840    -0.2220600    -1.3657770
  H       -1.0503710     2.1771240    -0.1231520
  H       -2.4471210     1.2938540     0.4905180
  H       -1.0501240     1.5488250     1.5350580
units angstrom
no_reorient  #important for SAPT in psi4, default
symmetry c1  #important for SAPT in psi4, default
}

set PROPERTIES_ORIGIN ["COM"]
properties('MP2/aug-cc-pvtz', properties = ['dipole'])
--------------------------------------------------------------------------

    Molecular point group: c1
  Charge       = 0
  Multiplicity = 1
  Basis Set: AUG-CC-PVTZ
    Blend: AUG-CC-PVTZ
  Basis Set: (AUG-CC-PVTZ AUX)
    Blend: AUG-CC-PVTZ-JKFIT

    Orbital Energies [Eh]
    ---------------------

    Doubly Occupied:

       1A    -11.232204     2A    -11.231692     3A    -11.207150
       4A    -11.207029     5A    -11.206347     6A    -11.204460
       7A    -11.203208     8A    -11.202682     9A     -1.126237
      10A     -1.048339    11A     -0.947426    12A     -0.934316
      13A     -0.915675    14A     -0.906066    15A     -0.790455
      16A     -0.695795    17A     -0.651215    18A     -0.610095
      19A     -0.599563    20A     -0.595208    21A     -0.592282
      22A     -0.554706    23A     -0.530340    24A     -0.529358
      25A     -0.528042    26A     -0.515964    27A     -0.504845
      28A     -0.502476    29A     -0.490344    30A     -0.468226
      31A     -0.451794    32A     -0.419093    33A     -0.391137

  @DF-RHF Final Energy:  -313.50084972249607

   => Energetics <=

    Nuclear Repulsion Energy =            437.4834312327555494
    One-Electron Energy =               -1289.9810294269918813
    Two-Electron Energy =                 538.9967484717403750
    Total Energy =                       -313.5008497224960138
  Basis Set: (AUG-CC-PVTZ AUX)
    Blend: AUG-CC-PVTZ-RI
    Molecular point group: c1

    Geometry (in Angstrom), charge = 0, multiplicity = 1:

       Center              X                  Y                   Z               Mass
    ------------   -----------------  -----------------  -----------------  -----------------
         C            0.853699960637    -0.127199578274     0.001851071043    12.000000000000
         C           -0.794304939363     0.014955721726    -0.000193528957    12.000000000000
         C            1.344522060637    -1.320607278274    -0.506916528957    12.000000000000
         C            1.344557060637     1.121510721726    -0.903500528957    12.000000000000
         C            1.344633060637     0.243904721726     1.409734471043    12.000000000000
         C           -1.360397939363    -1.091322278274     0.903439471043    12.000000000000
         C           -1.360358939363    -0.214508278274    -1.410080528957    12.000000000000
         C           -1.360396939363     1.350680721726     0.506008471043    12.000000000000
         H            1.042419060637    -1.533114278274    -1.535946528957     1.007825032230
         H            2.439155060637    -1.278906278274    -0.490867528957     1.007825032230
         H            1.042076060637    -2.162269278274     0.121941471043     1.007825032230
         H            1.042551060637     2.118951721726    -0.573004528957     1.007825032230
         H            1.042047060637     0.997760721726    -1.946815528957     1.007825032230
         H            2.439188060637     1.086675721726    -0.875471528957     1.007825032230
         H            1.042626060637    -0.541021278274     2.108308471043     1.007825032230
         H            2.439262060637     0.236987721726     1.365497471043     1.007825032230
         H            1.042203060637     1.209330721726     1.824240471043     1.007825032230
         H           -2.455028939363    -1.056941278274     0.874819471043     1.007825032230
         H           -1.058489939363    -0.966864278274     1.946838471043     1.007825032230
         H           -1.057821939363    -2.088831278274     0.573663471043     1.007825032230
         H           -1.057920939363     0.569923721726    -2.109027528957     1.007825032230
         H           -1.058264939363    -1.180278278274    -1.824029528957     1.007825032230
         H           -2.454990939363    -0.207116278274    -1.365994528957     1.007825032230
         H           -1.058277939363     2.192067721726    -0.123369528957     1.007825032230
         H           -2.455027939363     1.308797721726     0.490300471043     1.007825032230
         H           -1.058030939363     1.563768721726     1.534840471043     1.007825032230

  Basis Set: AUG-CC-PVTZ
    Blend: AUG-CC-PVTZ
  Basis Set: (AUG-CC-PVTZ AUX)
    Blend: AUG-CC-PVTZ-JKFIT
	 Reference Energy          =    -313.5008497224960706 [Eh]
	 Singles Energy            =      -0.0000000000000000 [Eh]
	 Same-Spin Energy          =      -0.3490376848727921 [Eh]
	 Opposite-Spin Energy      =      -1.2745053584073309 [Eh]
	 Correlation Energy        =      -1.6235430432801230 [Eh]
	 Total Energy              =    -315.1243927657761787 [Eh]

	 ================> DF-SCS-MP2 Energies <==================
	-----------------------------------------------------------
	 SCS Same-Spin Scale       =       0.3333333333333333 [-]
	 SCS Opposite-Spin Scale   =       1.2000000000000000 [-]
	 SCS Same-Spin Energy      =      -0.1163458949575974 [Eh]
	 SCS Opposite-Spin Energy  =      -1.5294064300887971 [Eh]
	 SCS Correlation Energy    =      -1.6457523250463943 [Eh]
	 SCS Total Energy          =    -315.1466020475424443 [Eh]
	-----------------------------------------------------------

  Dipole Moment: [D]
     X:     0.0304      Y:    -0.0495      Z:     0.0066     Total:     0.0584

*** Psi4 exiting successfully. Buy a developer a beer!
