                               Psi4 1.3.2 release

  ==> Input File <==

--------------------------------------------------------------------------
#psi4
#
memory 32 gb

molecule  {
0 1
  C        0.7863980     0.0000030     0.0000120
  C       -0.7863980     0.0000120     0.0000240
  C        1.3524290    -1.3355510    -0.5066990
  C        1.3524640     1.1065670    -0.9032830
  C        1.3893859     0.2438622     1.5017144
  C       -1.3524910    -1.1062660     0.9036570
  C       -1.3524520    -0.2294520    -1.4098630
  C       -1.3524900     1.3357370     0.5062260
  H        1.0503260    -1.5480580    -1.5357290
  H        2.4470620    -1.2938500    -0.4906500
  H        1.0499830    -2.1772130     0.1221590
  H        1.0504580     2.1040080    -0.5727870
  H        1.0499540     0.9828170    -1.9465980
  H        2.4470950     1.0717320    -0.8752540
  H        1.0505330    -0.5559650     2.1085260
  H        2.4471690     0.2220440     1.3657150
  H        1.0501100     1.1943870     1.8244580
  H       -2.4471220    -1.0718850     0.8750370
  H       -1.0505830    -0.9818080     1.9470560
  H       -1.0499150    -2.1037750     0.5738810
  H       -1.0500140     0.5549800    -2.1088100
  H       -1.0503580    -1.1952220    -1.8238120
  H       -2.4470840    -0.2220600    -1.3657770
  H       -1.0503710     2.1771240    -0.1231520
  H       -2.4471210     1.2938540     0.4905180
  H       -1.0501240     1.5488250     1.5350580
units angstrom
no_reorient  #important for SAPT in psi4, default
symmetry c1  #important for SAPT in psi4, default
}

set PROPERTIES_ORIGIN ["COM"]
properties('MP2/aug-cc-pvtz', properties = ['dipole'])
--------------------------------------------------------------------------

    Molecular point group: c1
  Charge       = 0
  Multiplicity = 1
  Basis Set: AUG-CC-PVTZ
    Blend: AUG-CC-PVTZ
  Basis Set: (AUG-CC-PVTZ AUX)
    Blend: AUG-CC-PVTZ-JKFIT

    Orbital Energies [Eh]
    ---------------------

    Doubly Occupied:

       1A    -11.234818     2A    -11.230282     3A    -11.205763
       4A    -11.205746     5A    -11.205599     6A    -11.205581
       7A    -11.205564     8A    -11.201775     9A     -1.119989
      10A     -1.033957    11A     -0.939354    12A     -0.938237
      13A     -0.911878    14A     -0.909197    15A     -0.804416
      16A     -0.687659    17A     -0.645733    18A     -0.601714
      19A     -0.599140    20A     -0.597656    21A     -0.593359
      22A     -0.556609    23A     -0.534573    24A     -0.534319
      25A     -0.527847    26A     -0.512036    27A     -0.507687
      28A     -0.495790    29A     -0.483134    30A     -0.473698
      31A     -0.433734    32A     -0.428612    33A     -0.413011

  @DF-RHF Final Energy:  -313.52212991024078

   => Energetics <=

    Nuclear Repulsion Energy =            436.1202375359738426
    One-Electron Energy =               -1287.3278012494497489
    Two-Electron Energy =                 537.6854338032351279
    Total Energy =                       -313.5221299102407784
  Basis Set: (AUG-CC-PVTZ AUX)
    Blend: AUG-CC-PVTZ-RI
    Molecular point group: c1

    Geometry (in Angstrom), charge = 0, multiplicity = 1:

       Center              X                  Y                   Z               Mass
    ------------   -----------------  -----------------  -----------------  -----------------
         C            0.782524287985    -0.001564194308    -0.009636592371    12.000000000000
         C           -0.790271712015    -0.001555194308    -0.009624592371    12.000000000000
         C            1.348555287985    -1.337118194308    -0.516347592371    12.000000000000
         C            1.348590287985     1.104999805692    -0.912931592371    12.000000000000
         C            1.385512187985     0.242295005692     1.492065807629    12.000000000000
         C           -1.356364712015    -1.107833194308     0.894008407629    12.000000000000
         C           -1.356325712015    -0.231019194308    -1.419511592371    12.000000000000
         C           -1.356363712015     1.334169805692     0.496577407629    12.000000000000
         H            1.046452287985    -1.549625194308    -1.545377592371     1.007825032230
         H            2.443188287985    -1.295417194308    -0.500298592371     1.007825032230
         H            1.046109287985    -2.178780194308     0.112510407629     1.007825032230
         H            1.046584287985     2.102440805692    -0.582435592371     1.007825032230
         H            1.046080287985     0.981249805692    -1.956246592371     1.007825032230
         H            2.443221287985     1.070164805692    -0.884902592371     1.007825032230
         H            1.046659287985    -0.557532194308     2.098877407629     1.007825032230
         H            2.443295287985     0.220476805692     1.356066407629     1.007825032230
         H            1.046236287985     1.192819805692     1.814809407629     1.007825032230
         H           -2.450995712015    -1.073452194308     0.865388407629     1.007825032230
         H           -1.054456712015    -0.983375194308     1.937407407629     1.007825032230
         H           -1.053788712015    -2.105342194308     0.564232407629     1.007825032230
         H           -1.053887712015     0.553412805692    -2.118458592371     1.007825032230
         H           -1.054231712015    -1.196789194308    -1.833460592371     1.007825032230
         H           -2.450957712015    -0.223627194308    -1.375425592371     1.007825032230
         H           -1.054244712015     2.175556805692    -0.132800592371     1.007825032230
         H           -2.450994712015     1.292286805692     0.480869407629     1.007825032230
         H           -1.053997712015     1.547257805692     1.525409407629     1.007825032230

  Basis Set: AUG-CC-PVTZ
    Blend: AUG-CC-PVTZ
  Basis Set: (AUG-CC-PVTZ AUX)
    Blend: AUG-CC-PVTZ-JKFIT
	 Reference Energy          =    -313.5221299102407784 [Eh]
	 Singles Energy            =      -0.0000000000000000 [Eh]
	 Same-Spin Energy          =      -0.3471908228238437 [Eh]
	 Opposite-Spin Energy      =      -1.2723301142722843 [Eh]
	 Correlation Energy        =      -1.6195209370961279 [Eh]
	 Total Energy              =    -315.1416508473369049 [Eh]

	 ================> DF-SCS-MP2 Energies <==================
	-----------------------------------------------------------
	 SCS Same-Spin Scale       =       0.3333333333333333 [-]
	 SCS Opposite-Spin Scale   =       1.2000000000000000 [-]
	 SCS Same-Spin Energy      =      -0.1157302742746146 [Eh]
	 SCS Opposite-Spin Energy  =      -1.5267961371267411 [Eh]
	 SCS Correlation Energy    =      -1.6425264114013558 [Eh]
	 SCS Total Energy          =    -315.1646563216421555 [Eh]
	-----------------------------------------------------------

  Dipole Moment: [D]
     X:    -0.0224      Y:    -0.0069      Z:    -0.0426     Total:     0.0486

*** Psi4 exiting successfully. Buy a developer a beer!
