                               Psi4 1.3.2 release

  ==> Input File <==

--------------------------------------------------------------------------
#psi4
#
memory 32 gb

molecule  {
0 1
  C        0.7863980     0.0000030     0.0000120
  C       -0.7863980     0.0000120     0.0000240
  C        1.3524290    -1.3355510    -0.5066990
  C        1.3524640     1.1065670    -0.9032830
  C        1.3525400     0.2289610     1.4099520
  C       -1.3524910    -1.1062660     0.9036570
  C       -1.3524520    -0.2294520    -1.4098630
  C       -1.3524900     1.3357370     0.5062260
  H        1.0503260    -1.5480580    -1.5357290
  H        2.4470620    -1.2938500    -0.4906500
  H        1.0499830    -2.1772130     0.1221590
  H        1.0504580     2.1040080    -0.5727870
  H        1.0499540     0.9828170    -1.9465980
  H        2.4470950     1.0717320    -0.8752540
  H        1.1057795    -0.4123777     1.9807351
  H        2.4471690     0.2220440     1.3657150
  H        1.0501100     1.1943870     1.8244580
  H       -2.4471220    -1.0718850     0.8750370
  H       -1.0505830    -0.9818080     1.9470560
  H       -1.0499150    -2.1037750     0.5738810
  H       -1.0500140     0.5549800    -2.1088100
  H       -1.0503580    -1.1952220    -1.8238120
  H       -2.4470840    -0.2220600    -1.3657770
  H       -1.0503710     2.1771240    -0.1231520
  H       -2.4471210     1.2938540     0.4905180
  H       -1.0501240     1.5488250     1.5350580
units angstrom
no_reorient  #important for SAPT in psi4, default
symmetry c1  #important for SAPT in psi4, default
}

set PROPERTIES_ORIGIN ["COM"]
properties('MP2/aug-cc-pvtz', properties = ['dipole'])
--------------------------------------------------------------------------

    Molecular point group: c1
  Charge       = 0
  Multiplicity = 1
  Basis Set: AUG-CC-PVTZ
    Blend: AUG-CC-PVTZ
  Basis Set: (AUG-CC-PVTZ AUX)
    Blend: AUG-CC-PVTZ-JKFIT

    Orbital Energies [Eh]
    ---------------------

    Doubly Occupied:

       1A    -11.230219     2A    -11.228587     3A    -11.206452
       4A    -11.205417     5A    -11.205342     6A    -11.205324
       7A    -11.203776     8A    -11.180471     9A     -1.126651
      10A     -1.041569    11A     -0.952924    12A     -0.938438
      13A     -0.917461    14A     -0.909198    15A     -0.806869
      16A     -0.695637    17A     -0.650589    18A     -0.613188
      19A     -0.600428    20A     -0.598067    21A     -0.594698
      22A     -0.555437    23A     -0.537328    24A     -0.527687
      25A     -0.527288    26A     -0.509207    27A     -0.507238
      28A     -0.494176    29A     -0.482297    30A     -0.480194
      31A     -0.433811    32A     -0.431557    33A     -0.424715

  @DF-RHF Final Energy:  -313.49481408006676

   => Energetics <=

    Nuclear Repulsion Energy =            438.9256997921897892
    One-Electron Energy =               -1292.7965495649932564
    Two-Electron Energy =                 540.3760356927366502
    Total Energy =                       -313.4948140800668170
  Basis Set: (AUG-CC-PVTZ AUX)
    Blend: AUG-CC-PVTZ-RI
    Molecular point group: c1

    Geometry (in Angstrom), charge = 0, multiplicity = 1:

       Center              X                  Y                   Z               Mass
    ------------   -----------------  -----------------  -----------------  -----------------
         C            0.785910209785    -0.001265409740     0.001139038454    12.000000000000
         C           -0.786885790215    -0.001256409740     0.001151038454    12.000000000000
         C            1.351941209785    -1.336819409740    -0.505571961546    12.000000000000
         C            1.351976209785     1.105298590260    -0.902155961546    12.000000000000
         C            1.352052209785     0.227692590260     1.411079038454    12.000000000000
         C           -1.352978790215    -1.107534409740     0.904784038454    12.000000000000
         C           -1.352939790215    -0.230720409740    -1.408735961546    12.000000000000
         C           -1.352977790215     1.334468590260     0.507353038454    12.000000000000
         H            1.049838209785    -1.549326409740    -1.534601961546     1.007825032230
         H            2.446574209785    -1.295118409740    -0.489522961546     1.007825032230
         H            1.049495209785    -2.178481409740     0.123286038454     1.007825032230
         H            1.049970209785     2.102739590260    -0.571659961546     1.007825032230
         H            1.049466209785     0.981548590260    -1.945470961546     1.007825032230
         H            2.446607209785     1.070463590260    -0.874126961546     1.007825032230
         H            1.105291709785    -0.413646109740     1.981862138454     1.007825032230
         H            2.446681209785     0.220775590260     1.366842038454     1.007825032230
         H            1.049622209785     1.193118590260     1.825585038454     1.007825032230
         H           -2.447609790215    -1.073153409740     0.876164038454     1.007825032230
         H           -1.051070790215    -0.983076409740     1.948183038454     1.007825032230
         H           -1.050402790215    -2.105043409740     0.575008038454     1.007825032230
         H           -1.050501790215     0.553711590260    -2.107682961546     1.007825032230
         H           -1.050845790215    -1.196490409740    -1.822684961546     1.007825032230
         H           -2.447571790215    -0.223328409740    -1.364649961546     1.007825032230
         H           -1.050858790215     2.175855590260    -0.122024961546     1.007825032230
         H           -2.447608790215     1.292585590260     0.491645038454     1.007825032230
         H           -1.050611790215     1.547556590260     1.536185038454     1.007825032230

  Basis Set: AUG-CC-PVTZ
    Blend: AUG-CC-PVTZ
  Basis Set: (AUG-CC-PVTZ AUX)
    Blend: AUG-CC-PVTZ-JKFIT
	 Reference Energy          =    -313.4948140800667602 [Eh]
	 Singles Energy            =      -0.0000000000000000 [Eh]
	 Same-Spin Energy          =      -0.3475625522659636 [Eh]
	 Opposite-Spin Energy      =      -1.2716186203367645 [Eh]
	 Correlation Energy        =      -1.6191811726027281 [Eh]
	 Total Energy              =    -315.1139952526694969 [Eh]

	 ================> DF-SCS-MP2 Energies <==================
	-----------------------------------------------------------
	 SCS Same-Spin Scale       =       0.3333333333333333 [-]
	 SCS Opposite-Spin Scale   =       1.2000000000000000 [-]
	 SCS Same-Spin Energy      =      -0.1158541840886545 [Eh]
	 SCS Opposite-Spin Energy  =      -1.5259423444041174 [Eh]
	 SCS Correlation Energy    =      -1.6417965284927718 [Eh]
	 SCS Total Energy          =    -315.1366106085595220 [Eh]
	-----------------------------------------------------------

  Dipole Moment: [D]
     X:    -0.0133      Y:    -0.0612      Z:     0.0869     Total:     0.1071

*** Psi4 exiting successfully. Buy a developer a beer!
