                               Psi4 1.3.2 release

  ==> Input File <==

--------------------------------------------------------------------------
#psi4
#
memory 32 gb

molecule  {
0 1
  C        0.7174587    -0.1330248     0.0584686
  C       -0.7863980     0.0000120     0.0000240
  C        1.3524290    -1.3355510    -0.5066990
  C        1.3524640     1.1065670    -0.9032830
  C        1.3525400     0.2289610     1.4099520
  C       -1.3524910    -1.1062660     0.9036570
  C       -1.3524520    -0.2294520    -1.4098630
  C       -1.3524900     1.3357370     0.5062260
  H        1.0503260    -1.5480580    -1.5357290
  H        2.4470620    -1.2938500    -0.4906500
  H        1.0499830    -2.1772130     0.1221590
  H        1.0504580     2.1040080    -0.5727870
  H        1.0499540     0.9828170    -1.9465980
  H        2.4470950     1.0717320    -0.8752540
  H        1.0505330    -0.5559650     2.1085260
  H        2.4471690     0.2220440     1.3657150
  H        1.0501100     1.1943870     1.8244580
  H       -2.4471220    -1.0718850     0.8750370
  H       -1.0505830    -0.9818080     1.9470560
  H       -1.0499150    -2.1037750     0.5738810
  H       -1.0500140     0.5549800    -2.1088100
  H       -1.0503580    -1.1952220    -1.8238120
  H       -2.4470840    -0.2220600    -1.3657770
  H       -1.0503710     2.1771240    -0.1231520
  H       -2.4471210     1.2938540     0.4905180
  H       -1.0501240     1.5488250     1.5350580
units angstrom
no_reorient  #important for SAPT in psi4, default
symmetry c1  #important for SAPT in psi4, default
}

set PROPERTIES_ORIGIN ["COM"]
properties('MP2/aug-cc-pvtz', properties = ['dipole'])
--------------------------------------------------------------------------

    Molecular point group: c1
  Charge       = 0
  Multiplicity = 1
  Basis Set: AUG-CC-PVTZ
    Blend: AUG-CC-PVTZ
  Basis Set: (AUG-CC-PVTZ AUX)
    Blend: AUG-CC-PVTZ-JKFIT

    Orbital Energies [Eh]
    ---------------------

    Doubly Occupied:

       1A    -11.234319     2A    -11.230458     3A    -11.208434
       4A    -11.207463     5A    -11.207147     6A    -11.206304
       7A    -11.204726     8A    -11.204430     9A     -1.131592
      10A     -1.037231    11A     -0.943598    12A     -0.934568
      13A     -0.913098    14A     -0.900857    15A     -0.817480
      16A     -0.690177    17A     -0.646372    18A     -0.605366
      19A     -0.604712    20A     -0.597384    21A     -0.586226
      22A     -0.554123    23A     -0.530723    24A     -0.527699
      25A     -0.527054    26A     -0.513262    27A     -0.504857
      28A     -0.494034    29A     -0.488080    30A     -0.472636
      31A     -0.453678    32A     -0.436124    33A     -0.386468

  @DF-RHF Final Energy:  -313.50580089581240

   => Energetics <=

    Nuclear Repulsion Energy =            438.3207362573111823
    One-Electron Energy =               -1291.6517160692148991
    Two-Electron Energy =                 539.8251789160913177
    Total Energy =                       -313.5058008958123992
  Basis Set: (AUG-CC-PVTZ AUX)
    Blend: AUG-CC-PVTZ-RI
    Molecular point group: c1

    Geometry (in Angstrom), charge = 0, multiplicity = 1:

       Center              X                  Y                   Z               Mass
    ------------   -----------------  -----------------  -----------------  -----------------
         C            0.724706531179    -0.119039735928     0.052321555041    12.000000000000
         C           -0.779150168821     0.013997064072    -0.006123044959    12.000000000000
         C            1.359676831179    -1.321565935928    -0.512846044959    12.000000000000
         C            1.359711831179     1.120552064072    -0.909430044959    12.000000000000
         C            1.359787831179     0.242946064072     1.403804955041    12.000000000000
         C           -1.345243168821    -1.092280935928     0.897509955041    12.000000000000
         C           -1.345204168821    -0.215466935928    -1.416010044959    12.000000000000
         C           -1.345242168821     1.349722064072     0.500078955041    12.000000000000
         H            1.057573831179    -1.534072935928    -1.541876044959     1.007825032230
         H            2.454309831179    -1.279864935928    -0.496797044959     1.007825032230
         H            1.057230831179    -2.163227935928     0.116011955041     1.007825032230
         H            1.057705831179     2.117993064072    -0.578934044959     1.007825032230
         H            1.057201831179     0.996802064072    -1.952745044959     1.007825032230
         H            2.454342831179     1.085717064072    -0.881401044959     1.007825032230
         H            1.057780831179    -0.541979935928     2.102378955041     1.007825032230
         H            2.454416831179     0.236029064072     1.359567955041     1.007825032230
         H            1.057357831179     1.208372064072     1.818310955041     1.007825032230
         H           -2.439874168821    -1.057899935928     0.868889955041     1.007825032230
         H           -1.043335168821    -0.967822935928     1.940908955041     1.007825032230
         H           -1.042667168821    -2.089789935928     0.567733955041     1.007825032230
         H           -1.042766168821     0.568965064072    -2.114957044959     1.007825032230
         H           -1.043110168821    -1.181236935928    -1.829959044959     1.007825032230
         H           -2.439836168821    -0.208074935928    -1.371924044959     1.007825032230
         H           -1.043123168821     2.191109064072    -0.129299044959     1.007825032230
         H           -2.439873168821     1.307839064072     0.484370955041     1.007825032230
         H           -1.042876168821     1.562810064072     1.528910955041     1.007825032230

  Basis Set: AUG-CC-PVTZ
    Blend: AUG-CC-PVTZ
  Basis Set: (AUG-CC-PVTZ AUX)
    Blend: AUG-CC-PVTZ-JKFIT
	 Reference Energy          =    -313.5058008958123992 [Eh]
	 Singles Energy            =      -0.0000000000000000 [Eh]
	 Same-Spin Energy          =      -0.3487313956612679 [Eh]
	 Opposite-Spin Energy      =      -1.2747693392434143 [Eh]
	 Correlation Energy        =      -1.6235007349046822 [Eh]
	 Total Energy              =    -315.1293016307170660 [Eh]

	 ================> DF-SCS-MP2 Energies <==================
	-----------------------------------------------------------
	 SCS Same-Spin Scale       =       0.3333333333333333 [-]
	 SCS Opposite-Spin Scale   =       1.2000000000000000 [-]
	 SCS Same-Spin Energy      =      -0.1162437985537560 [Eh]
	 SCS Opposite-Spin Energy  =      -1.5297232070920972 [Eh]
	 SCS Correlation Energy    =      -1.6459670056458531 [Eh]
	 SCS Total Energy          =    -315.1517679014582427 [Eh]
	-----------------------------------------------------------

  Dipole Moment: [D]
     X:    -0.0669      Y:    -0.0588      Z:     0.0340     Total:     0.0953

*** Psi4 exiting successfully. Buy a developer a beer!
