                               Psi4 1.3.2 release

  ==> Input File <==

--------------------------------------------------------------------------
#psi4
#
memory 32 gb

molecule  {
0 1
  C        0.7863980     0.0000030     0.0000120
  C       -0.7863980     0.0000120     0.0000240
  C        1.3524290    -1.3355510    -0.5066990
  C        1.3524640     1.1065670    -0.9032830
  C        1.4262318     0.2587633     1.5934768
  C       -1.3524910    -1.1062660     0.9036570
  C       -1.3524520    -0.2294520    -1.4098630
  C       -1.3524900     1.3357370     0.5062260
  H        1.0503260    -1.5480580    -1.5357290
  H        2.4470620    -1.2938500    -0.4906500
  H        1.0499830    -2.1772130     0.1221590
  H        1.0504580     2.1040080    -0.5727870
  H        1.0499540     0.9828170    -1.9465980
  H        2.4470950     1.0717320    -0.8752540
  H        1.0505330    -0.5559650     2.1085260
  H        2.4471690     0.2220440     1.3657150
  H        1.0501100     1.1943870     1.8244580
  H       -2.4471220    -1.0718850     0.8750370
  H       -1.0505830    -0.9818080     1.9470560
  H       -1.0499150    -2.1037750     0.5738810
  H       -1.0500140     0.5549800    -2.1088100
  H       -1.0503580    -1.1952220    -1.8238120
  H       -2.4470840    -0.2220600    -1.3657770
  H       -1.0503710     2.1771240    -0.1231520
  H       -2.4471210     1.2938540     0.4905180
  H       -1.0501240     1.5488250     1.5350580
units angstrom
no_reorient  #important for SAPT in psi4, default
symmetry c1  #important for SAPT in psi4, default
}

set PROPERTIES_ORIGIN ["COM"]
properties('MP2/aug-cc-pvtz', properties = ['dipole'])
--------------------------------------------------------------------------

    Molecular point group: c1
  Charge       = 0
  Multiplicity = 1
  Basis Set: AUG-CC-PVTZ
    Blend: AUG-CC-PVTZ
  Basis Set: (AUG-CC-PVTZ AUX)
    Blend: AUG-CC-PVTZ-JKFIT

    Orbital Energies [Eh]
    ---------------------

    Doubly Occupied:

       1A    -11.238823     2A    -11.230697     3A    -11.206157
       4A    -11.206141     5A    -11.206114     6A    -11.206098
       7A    -11.205964     8A    -11.200911     9A     -1.116704
      10A     -1.030212    11A     -0.940302    12A     -0.938120
      13A     -0.914148    14A     -0.909240    15A     -0.804308
      16A     -0.685648    17A     -0.644485    18A     -0.605958
      19A     -0.599305    20A     -0.598986    21A     -0.591507
      22A     -0.562362    23A     -0.540865    24A     -0.539523
      25A     -0.527912    26A     -0.514164    27A     -0.508126
      28A     -0.499768    29A     -0.483713    30A     -0.469474
      31A     -0.434605    32A     -0.429362    33A     -0.390331

  @DF-RHF Final Energy:  -313.50334503773337

   => Energetics <=

    Nuclear Repulsion Energy =            434.3753633665907046
    One-Electron Energy =               -1283.7973542555191671
    Two-Electron Energy =                 535.9186458511951514
    Total Energy =                       -313.5033450377333111
  Basis Set: (AUG-CC-PVTZ AUX)
    Blend: AUG-CC-PVTZ-RI
    Molecular point group: c1

    Geometry (in Angstrom), charge = 0, multiplicity = 1:

       Center              X                  Y                   Z               Mass
    ------------   -----------------  -----------------  -----------------  -----------------
         C            0.778650558310    -0.003130795565    -0.019283872853    12.000000000000
         C           -0.794145441690    -0.003121795565    -0.019271872853    12.000000000000
         C            1.344681558310    -1.338684795565    -0.525994872853    12.000000000000
         C            1.344716558310     1.103433204435    -0.922578872853    12.000000000000
         C            1.418484358310     0.255629504435     1.574180927147    12.000000000000
         C           -1.360238441690    -1.109399795565     0.884361127147    12.000000000000
         C           -1.360199441690    -0.232585795565    -1.429158872853    12.000000000000
         C           -1.360237441690     1.332603204435     0.486930127147    12.000000000000
         H            1.042578558310    -1.551191795565    -1.555024872853     1.007825032230
         H            2.439314558310    -1.296983795565    -0.509945872853     1.007825032230
         H            1.042235558310    -2.180346795565     0.102863127147     1.007825032230
         H            1.042710558310     2.100874204435    -0.592082872853     1.007825032230
         H            1.042206558310     0.979683204435    -1.965893872853     1.007825032230
         H            2.439347558310     1.068598204435    -0.894549872853     1.007825032230
         H            1.042785558310    -0.559098795565     2.089230127147     1.007825032230
         H            2.439421558310     0.218910204435     1.346419127147     1.007825032230
         H            1.042362558310     1.191253204435     1.805162127147     1.007825032230
         H           -2.454869441690    -1.075018795565     0.855741127147     1.007825032230
         H           -1.058330441690    -0.984941795565     1.927760127147     1.007825032230
         H           -1.057662441690    -2.106908795565     0.554585127147     1.007825032230
         H           -1.057761441690     0.551846204435    -2.128105872853     1.007825032230
         H           -1.058105441690    -1.198355795565    -1.843107872853     1.007825032230
         H           -2.454831441690    -0.225193795565    -1.385072872853     1.007825032230
         H           -1.058118441690     2.173990204435    -0.142447872853     1.007825032230
         H           -2.454868441690     1.290720204435     0.471222127147     1.007825032230
         H           -1.057871441690     1.545691204435     1.515762127147     1.007825032230

  Basis Set: AUG-CC-PVTZ
    Blend: AUG-CC-PVTZ
  Basis Set: (AUG-CC-PVTZ AUX)
    Blend: AUG-CC-PVTZ-JKFIT
	 Reference Energy          =    -313.5033450377333679 [Eh]
	 Singles Energy            =      -0.0000000000000000 [Eh]
	 Same-Spin Energy          =      -0.3474372295877879 [Eh]
	 Opposite-Spin Energy      =      -1.2734937179727908 [Eh]
	 Correlation Energy        =      -1.6209309475605786 [Eh]
	 Total Energy              =    -315.1242759852939344 [Eh]

	 ================> DF-SCS-MP2 Energies <==================
	-----------------------------------------------------------
	 SCS Same-Spin Scale       =       0.3333333333333333 [-]
	 SCS Opposite-Spin Scale   =       1.2000000000000000 [-]
	 SCS Same-Spin Energy      =      -0.1158124098625960 [Eh]
	 SCS Opposite-Spin Energy  =      -1.5281924615673488 [Eh]
	 SCS Correlation Energy    =      -1.6440048714299447 [Eh]
	 SCS Total Energy          =    -315.1473499091633244 [Eh]
	-----------------------------------------------------------

  Dipole Moment: [D]
     X:    -0.0685      Y:    -0.0221      Z:    -0.1360     Total:     0.1539

*** Psi4 exiting successfully. Buy a developer a beer!
