                               Psi4 1.3.2 release

  ==> Input File <==

--------------------------------------------------------------------------
#psi4
#
memory 32 gb

molecule  {
0 1
  C        0.8615400     0.1355393    -0.0429970
  C       -0.7863980     0.0000120     0.0000240
  C        1.3524290    -1.3355510    -0.5066990
  C        1.3524640     1.1065670    -0.9032830
  C        1.3525400     0.2289610     1.4099520
  C       -1.3524910    -1.1062660     0.9036570
  C       -1.3524520    -0.2294520    -1.4098630
  C       -1.3524900     1.3357370     0.5062260
  H        1.0503260    -1.5480580    -1.5357290
  H        2.4470620    -1.2938500    -0.4906500
  H        1.0499830    -2.1772130     0.1221590
  H        1.0504580     2.1040080    -0.5727870
  H        1.0499540     0.9828170    -1.9465980
  H        2.4470950     1.0717320    -0.8752540
  H        1.0505330    -0.5559650     2.1085260
  H        2.4471690     0.2220440     1.3657150
  H        1.0501100     1.1943870     1.8244580
  H       -2.4471220    -1.0718850     0.8750370
  H       -1.0505830    -0.9818080     1.9470560
  H       -1.0499150    -2.1037750     0.5738810
  H       -1.0500140     0.5549800    -2.1088100
  H       -1.0503580    -1.1952220    -1.8238120
  H       -2.4470840    -0.2220600    -1.3657770
  H       -1.0503710     2.1771240    -0.1231520
  H       -2.4471210     1.2938540     0.4905180
  H       -1.0501240     1.5488250     1.5350580
units angstrom
no_reorient  #important for SAPT in psi4, default
symmetry c1  #important for SAPT in psi4, default
}

set PROPERTIES_ORIGIN ["COM"]
properties('MP2/aug-cc-pvtz', properties = ['dipole'])
--------------------------------------------------------------------------

    Molecular point group: c1
  Charge       = 0
  Multiplicity = 1
  Basis Set: AUG-CC-PVTZ
    Blend: AUG-CC-PVTZ
  Basis Set: (AUG-CC-PVTZ AUX)
    Blend: AUG-CC-PVTZ-JKFIT

    Orbital Energies [Eh]
    ---------------------

    Doubly Occupied:

       1A    -11.232205     2A    -11.231694     3A    -11.207151
       4A    -11.207029     5A    -11.206345     6A    -11.204462
       7A    -11.203208     8A    -11.202682     9A     -1.126239
      10A     -1.048337    11A     -0.947425    12A     -0.934315
      13A     -0.915675    14A     -0.906061    15A     -0.790466
      16A     -0.695793    17A     -0.651213    18A     -0.610093
      19A     -0.599564    20A     -0.595211    21A     -0.592278
      22A     -0.554707    23A     -0.530336    24A     -0.529359
      25A     -0.528041    26A     -0.515967    27A     -0.504844
      28A     -0.502474    29A     -0.490343    30A     -0.468225
      31A     -0.451796    32A     -0.419086    33A     -0.391145

  @DF-RHF Final Energy:  -313.50084933490473

   => Energetics <=

    Nuclear Repulsion Energy =            437.4837801201344973
    One-Electron Energy =               -1289.9817195558839558
    Two-Electron Energy =                 538.9970901008447299
    Total Energy =                       -313.5008493349047285
  Basis Set: (AUG-CC-PVTZ AUX)
    Blend: AUG-CC-PVTZ-RI
    Molecular point group: c1

    Geometry (in Angstrom), charge = 0, multiplicity = 1:

       Center              X                  Y                   Z               Mass
    ------------   -----------------  -----------------  -----------------  -----------------
         C            0.853640094053     0.121289344063    -0.038476635405    12.000000000000
         C           -0.794297905947    -0.014237955937     0.004544364595    12.000000000000
         C            1.344529094053    -1.349800955937    -0.502178635405    12.000000000000
         C            1.344564094053     1.092317044063    -0.898762635405    12.000000000000
         C            1.344640094053     0.214711044063     1.414472364595    12.000000000000
         C           -1.360390905947    -1.120515955937     0.908177364595    12.000000000000
         C           -1.360351905947    -0.243701955937    -1.405342635405    12.000000000000
         C           -1.360389905947     1.321487044063     0.510746364595    12.000000000000
         H            1.042426094053    -1.562307955937    -1.531208635405     1.007825032230
         H            2.439162094053    -1.308099955937    -0.486129635405     1.007825032230
         H            1.042083094053    -2.191462955937     0.126679364595     1.007825032230
         H            1.042558094053     2.089758044063    -0.568266635405     1.007825032230
         H            1.042054094053     0.968567044063    -1.942077635405     1.007825032230
         H            2.439195094053     1.057482044063    -0.870733635405     1.007825032230
         H            1.042633094053    -0.570214955937     2.113046364595     1.007825032230
         H            2.439269094053     0.207794044063     1.370235364595     1.007825032230
         H            1.042210094053     1.180137044063     1.828978364595     1.007825032230
         H           -2.455021905947    -1.086134955937     0.879557364595     1.007825032230
         H           -1.058482905947    -0.996057955937     1.951576364595     1.007825032230
         H           -1.057814905947    -2.118024955937     0.578401364595     1.007825032230
         H           -1.057913905947     0.540730044063    -2.104289635405     1.007825032230
         H           -1.058257905947    -1.209471955937    -1.819291635405     1.007825032230
         H           -2.454983905947    -0.236309955937    -1.361256635405     1.007825032230
         H           -1.058270905947     2.162874044063    -0.118631635405     1.007825032230
         H           -2.455020905947     1.279604044063     0.495038364595     1.007825032230
         H           -1.058023905947     1.534575044063     1.539578364595     1.007825032230

  Basis Set: AUG-CC-PVTZ
    Blend: AUG-CC-PVTZ
  Basis Set: (AUG-CC-PVTZ AUX)
    Blend: AUG-CC-PVTZ-JKFIT
	 Reference Energy          =    -313.5008493349047285 [Eh]
	 Singles Energy            =      -0.0000000000000000 [Eh]
	 Same-Spin Energy          =      -0.3490375390803192 [Eh]
	 Opposite-Spin Energy      =      -1.2745055591801671 [Eh]
	 Correlation Energy        =      -1.6235430982604862 [Eh]
	 Total Energy              =    -315.1243924331652124 [Eh]

	 ================> DF-SCS-MP2 Energies <==================
	-----------------------------------------------------------
	 SCS Same-Spin Scale       =       0.3333333333333333 [-]
	 SCS Opposite-Spin Scale   =       1.2000000000000000 [-]
	 SCS Same-Spin Energy      =      -0.1163458463601064 [Eh]
	 SCS Opposite-Spin Energy  =      -1.5294066710162004 [Eh]
	 SCS Correlation Energy    =      -1.6457525173763068 [Eh]
	 SCS Total Energy          =    -315.1466018522810373 [Eh]
	-----------------------------------------------------------

  Dipole Moment: [D]
     X:     0.0304      Y:     0.0491      Z:    -0.0094     Total:     0.0584

*** Psi4 exiting successfully. Buy a developer a beer!
