                               Psi4 1.4a3.dev225

  ==> Input File <==

--------------------------------------------------------------------------
#psi4
#
memory 32 gb

molecule  {
0 1
  C       -0.7850910     0.0000000     0.0000000
  C        0.7850910    -0.0000010    -0.0000010
  C       -1.3439760    -0.4944350    -1.3423090
  C       -1.3439740    -0.9152570     1.0993500
  C       -1.3439720     1.4096940     0.2429620
  C        1.3439730     1.1443700    -0.8583020
  C        1.3439730    -1.3154970    -0.5619030
  C        1.3439760     0.1711260     1.4202020
  H       -1.1416160    -1.5573230    -1.5000190
  H       -2.4313800    -0.3612870    -1.3560980
  H       -0.9341760     0.0624770    -2.1904460
  H       -1.1416360    -0.5203790     2.0986910
  H       -0.9341530    -1.9282130     1.0411340
  H       -2.4313740    -0.9937940     0.9909190
  H       -1.1508780     2.0471656    -0.5601912
  H       -2.4313730     1.3550610     0.3651840
  H       -0.9341560     1.8657500     1.1493220
  H        2.4313750     1.0400720    -0.9422290
  H        1.1416220     2.1223900    -0.4132370
  H        0.9341610     1.1376140    -1.8729120
  H        0.9341510    -2.1907970    -0.0487560
  H        1.1416360    -1.4190650    -1.6314290
  H        2.4313730    -1.3360370    -0.4296020
  H        1.1416200    -0.7033180     2.0446640
  H        2.4313790     0.2959480     1.3718390
  H        0.9341720     1.0531860     1.9216540
units angstrom
no_reorient  #important for SAPT in psi4, default
symmetry c1  #important for SAPT in psi4, default
}

set PROPERTIES_ORIGIN ["COM"]
properties('MP2/aug-cc-pvtz', properties = ['dipole'])
--------------------------------------------------------------------------

    Molecular point group: c1
  Charge       = 0
  Multiplicity = 1
  Basis Set: AUG-CC-PVTZ
    Blend: AUG-CC-PVTZ
  Basis Set: (AUG-CC-PVTZ AUX)
    Blend: AUG-CC-PVTZ-JKFIT

    Orbital Energies [Eh]
    ---------------------

    Doubly Occupied:

       1A    -11.229647     2A    -11.228961     3A    -11.206131
       4A    -11.205867     5A    -11.205836     6A    -11.205781
       7A    -11.205385     8A    -11.199666     9A     -1.126768
      10A     -1.038545    11A     -0.942484    12A     -0.940114
      13A     -0.910754    14A     -0.908538    15A     -0.804975
      16A     -0.691257    17A     -0.648153    18A     -0.607964
      19A     -0.605767    20A     -0.591050    21A     -0.589073
      22A     -0.551646    23A     -0.532155    24A     -0.531038
      25A     -0.522275    26A     -0.508492    27A     -0.507966
      28A     -0.497766    29A     -0.482769    30A     -0.481611
      31A     -0.431942    32A     -0.431228    33A     -0.424397

  @DF-RHF Final Energy:  -313.52852329492191

   => Energetics <=

    Nuclear Repulsion Energy =            438.7961379458744773
    One-Electron Energy =               -1292.6573257218535673
    Two-Electron Energy =                 540.3326644810571224
    Total Energy =                       -313.5285232949219107
  Basis Set: (AUG-CC-PVTZ AUX)
    Blend: AUG-CC-PVTZ-RI
    Molecular point group: c1

    Geometry (in Angstrom), charge = 0, multiplicity = 1:

       Center              X                  Y                   Z               Mass
    ------------   -----------------  -----------------  -----------------  -----------------
         C           -0.785009299146     0.000269740850    -0.000339729099    12.000000000000
         C            0.785172700854     0.000268740850    -0.000340729099    12.000000000000
         C           -1.343894299146    -0.494165259150    -1.342648729099    12.000000000000
         C           -1.343892299146    -0.914987259150     1.099010270901    12.000000000000
         C           -1.343890299146     1.409963740850     0.242622270901    12.000000000000
         C            1.344054700854     1.144639740850    -0.858641729099    12.000000000000
         C            1.344054700854    -1.315227259150    -0.562242729099    12.000000000000
         C            1.344057700854     0.171395740850     1.419862270901    12.000000000000
         H           -1.141534299146    -1.557053259150    -1.500358729099     1.007825032230
         H           -2.431298299146    -0.361017259150    -1.356437729099     1.007825032230
         H           -0.934094299146     0.062746740850    -2.190785729099     1.007825032230
         H           -1.141554299146    -0.520109259150     2.098351270901     1.007825032230
         H           -0.934071299146    -1.927943259150     1.040794270901     1.007825032230
         H           -2.431292299146    -0.993524259150     0.990579270901     1.007825032230
         H           -1.150796299146     2.047435340850    -0.560530929099     1.007825032230
         H           -2.431291299146     1.355330740850     0.364844270901     1.007825032230
         H           -0.934074299146     1.866019740850     1.148982270901     1.007825032230
         H            2.431456700854     1.040341740850    -0.942568729099     1.007825032230
         H            1.141703700854     2.122659740850    -0.413576729099     1.007825032230
         H            0.934242700854     1.137883740850    -1.873251729099     1.007825032230
         H            0.934232700854    -2.190527259150    -0.049095729099     1.007825032230
         H            1.141717700854    -1.418795259150    -1.631768729099     1.007825032230
         H            2.431454700854    -1.335767259150    -0.429941729099     1.007825032230
         H            1.141701700854    -0.703048259150     2.044324270901     1.007825032230
         H            2.431460700854     0.296217740850     1.371499270901     1.007825032230
         H            0.934253700854     1.053455740850     1.921314270901     1.007825032230

  Basis Set: AUG-CC-PVTZ
    Blend: AUG-CC-PVTZ
  Basis Set: (AUG-CC-PVTZ AUX)
    Blend: AUG-CC-PVTZ-JKFIT
	 Reference Energy          =    -313.5285232949219107 [Eh]
	 Singles Energy            =      -0.0000000000000000 [Eh]
	 Same-Spin Energy          =      -0.3477071040315174 [Eh]
	 Opposite-Spin Energy      =      -1.2727841914411369 [Eh]
	 Correlation Energy        =      -1.6204912954726542 [Eh]
	 Total Energy              =    -315.1490145903945859 [Eh]

	 ================> DF-SCS-MP2 Energies <==================
	-----------------------------------------------------------
	 SCS Same-Spin Scale       =       0.3333333333333333 [-]
	 SCS Opposite-Spin Scale   =       1.2000000000000000 [-]
	 SCS Same-Spin Energy      =      -0.1159023680105058 [Eh]
	 SCS Opposite-Spin Energy  =      -1.5273410297293641 [Eh]
	 SCS Correlation Energy    =      -1.6432433977398699 [Eh]
	 SCS Total Energy          =    -315.1717666926617767 [Eh]
	-----------------------------------------------------------

  Dipole Moment: [D]
     X:     0.0016      Y:     0.0253      Z:    -0.0200     Total:     0.0323

*** Psi4 exiting successfully. Buy a developer a beer!
