                               Psi4 1.3.2 release

  ==> Input File <==

--------------------------------------------------------------------------
#psi4
#
memory 32 gb

molecule  {
0 1
  O        0.0000880    -0.6211650    -0.0005950
  O       -1.2683150     1.1981060    -0.6159220
  O        1.2678170     1.1981120     0.6161180
  C       -1.2007280     0.0874770    -0.1468620
  C        1.2006690     0.0876850     0.1465060
  C       -2.3304311    -0.8321802     0.2276524
  C        2.3408080    -0.7753200    -0.3091130
  H       -3.2816210    -0.2684080     0.1012520
  H       -2.2447620    -0.9652410     1.3817000
  H       -2.3058710    -1.7394120    -0.2034460
  H        2.3088350    -1.7369770     0.2080250
  H        3.2815980    -0.2658330    -0.1045500
  H        2.2432560    -0.9696180    -1.3802210
units angstrom
no_reorient  #important for SAPT in psi4, default
symmetry c1  #important for SAPT in psi4, default
}

set PROPERTIES_ORIGIN ["COM"]
properties('MP2/aug-cc-pvtz', properties = ['dipole'])
--------------------------------------------------------------------------

    Molecular point group: c1
  Charge       = 0
  Multiplicity = 1
  Basis Set: AUG-CC-PVTZ
    Blend: AUG-CC-PVTZ
  Basis Set: (AUG-CC-PVTZ AUX)
    Blend: AUG-CC-PVTZ-JKFIT

    Orbital Energies [Eh]
    ---------------------

    Doubly Occupied:

       1A    -20.630525     2A    -20.567189     3A    -20.566127
       4A    -11.405779     5A    -11.404040     6A    -11.257275
       7A    -11.255676     8A     -1.487434     9A     -1.407144
      10A     -1.366905    11A     -1.058749    12A     -1.020835
      13A     -0.870658    14A     -0.743740    15A     -0.706115
      16A     -0.701068    17A     -0.685050    18A     -0.632887
      19A     -0.621934    20A     -0.601272    21A     -0.587398
      22A     -0.580096    23A     -0.547303    24A     -0.519869
      25A     -0.484208    26A     -0.482029    27A     -0.445686

  @DF-RHF Final Energy:  -379.71057550572630

   => Energetics <=

    Nuclear Repulsion Energy =            301.0462156767758870
    One-Electron Energy =               -1116.2396052882618278
    Two-Electron Energy =                 435.4828141057596440
    Total Energy =                       -379.7105755057262968
  Basis Set: (AUG-CC-PVTZ AUX)
    Blend: AUG-CC-PVTZ-RI
    Molecular point group: c1

    Geometry (in Angstrom), charge = 0, multiplicity = 1:

       Center              X                  Y                   Z               Mass
    ------------   -----------------  -----------------  -----------------  -----------------
         O           -0.001075394522    -0.672244717784     0.009062779213    15.994914619570
         O           -1.269478394522     1.147026282216    -0.606264220787    15.994914619570
         O            1.266653605478     1.147032282216     0.625775779213    15.994914619570
         C           -1.201891394522     0.036397282216    -0.137204220787    12.000000000000
         C            1.199505605478     0.036605282216     0.156163779213    12.000000000000
         C           -2.331594494522    -0.883259917784     0.237310179213    12.000000000000
         C            2.339644605478    -0.826399717784    -0.299455220787    12.000000000000
         H           -3.282784394522    -0.319487717784     0.110909779213     1.007825032230
         H           -2.245925394522    -1.016320717784     1.391357779213     1.007825032230
         H           -2.307034394522    -1.790491717784    -0.193788220787     1.007825032230
         H            2.307671605478    -1.788056717784     0.217682779213     1.007825032230
         H            3.280434605478    -0.316912717784    -0.094892220787     1.007825032230
         H            2.242092605478    -1.020697717784    -1.370563220787     1.007825032230

  Basis Set: AUG-CC-PVTZ
    Blend: AUG-CC-PVTZ
  Basis Set: (AUG-CC-PVTZ AUX)
    Blend: AUG-CC-PVTZ-JKFIT
	 Reference Energy          =    -379.7105755057262968 [Eh]
	 Singles Energy            =      -0.0000000000000000 [Eh]
	 Same-Spin Energy          =      -0.3642587923878940 [Eh]
	 Opposite-Spin Energy      =      -1.1315228014640422 [Eh]
	 Correlation Energy        =      -1.4957815938519361 [Eh]
	 Total Energy              =    -381.2063570995782129 [Eh]

	 ================> DF-SCS-MP2 Energies <==================
	-----------------------------------------------------------
	 SCS Same-Spin Scale       =       0.3333333333333333 [-]
	 SCS Opposite-Spin Scale   =       1.2000000000000000 [-]
	 SCS Same-Spin Energy      =      -0.1214195974626313 [Eh]
	 SCS Opposite-Spin Energy  =      -1.3578273617568506 [Eh]
	 SCS Correlation Energy    =      -1.4792469592194819 [Eh]
	 SCS Total Energy          =    -381.1898224649457916 [Eh]
	-----------------------------------------------------------

  Dipole Moment: [D]
     X:     0.0027      Y:    -3.8623      Z:    -0.0186     Total:     3.8623

*** Psi4 exiting successfully. Buy a developer a beer!
