                               Psi4 1.3.2 release

  ==> Input File <==

--------------------------------------------------------------------------
#psi4
#
memory 32 gb

molecule  {
0 1
  O        0.0000880    -0.6211650    -0.0005950
  O       -1.2683150     1.1981060    -0.6159220
  O        1.2678170     1.1981120     0.6161180
  C       -1.2007280     0.0874770    -0.1468620
  C        1.2006690     0.0876850     0.1465060
  C       -2.3204223    -0.8886964     0.1457638
  C        2.3408080    -0.7753200    -0.3091130
  H       -3.2816210    -0.2684080     0.1012520
  H       -2.2447620    -0.9652410     1.3817000
  H       -2.3058710    -1.7394120    -0.2034460
  H        2.3088350    -1.7369770     0.2080250
  H        3.2815980    -0.2658330    -0.1045500
  H        2.2432560    -0.9696180    -1.3802210
units angstrom
no_reorient  #important for SAPT in psi4, default
symmetry c1  #important for SAPT in psi4, default
}

set PROPERTIES_ORIGIN ["COM"]
properties('MP2/aug-cc-pvtz', properties = ['dipole'])
--------------------------------------------------------------------------

    Molecular point group: c1
  Charge       = 0
  Multiplicity = 1
  Basis Set: AUG-CC-PVTZ
    Blend: AUG-CC-PVTZ
  Basis Set: (AUG-CC-PVTZ AUX)
    Blend: AUG-CC-PVTZ-JKFIT

    Orbital Energies [Eh]
    ---------------------

    Doubly Occupied:

       1A    -20.630705     2A    -20.568615     3A    -20.566022
       4A    -11.408790     5A    -11.403686     6A    -11.261547
       7A    -11.255642     8A     -1.487810     9A     -1.407612
      10A     -1.367381    11A     -1.059804    12A     -1.021984
      13A     -0.872687    14A     -0.748482    15A     -0.717272
      16A     -0.701193    17A     -0.685016    18A     -0.643156
      19A     -0.618776    20A     -0.597723    21A     -0.590502
      22A     -0.577078    23A     -0.535644    24A     -0.512889
      25A     -0.484931    26A     -0.481298    27A     -0.444632

  @DF-RHF Final Energy:  -379.67425301480478

   => Energetics <=

    Nuclear Repulsion Energy =            300.9668439247560627
    One-Electron Energy =               -1115.9804378294700200
    Two-Electron Energy =                 435.3393408899091810
    Total Energy =                       -379.6742530148047763
  Basis Set: (AUG-CC-PVTZ AUX)
    Blend: AUG-CC-PVTZ-RI
    Molecular point group: c1

    Geometry (in Angstrom), charge = 0, multiplicity = 1:

       Center              X                  Y                   Z               Mass
    ------------   -----------------  -----------------  -----------------  -----------------
         O           -0.002252534636    -0.665597818442     0.018693739564    15.994914619570
         O           -1.270655534636     1.153673181558    -0.596633260436    15.994914619570
         O            1.265476465364     1.153679181558     0.635406739564    15.994914619570
         C           -1.203068534636     0.043044181558    -0.127573260436    12.000000000000
         C            1.198328465364     0.043252181558     0.165794739564    12.000000000000
         C           -2.322762834636    -0.933129218442     0.165052539564    12.000000000000
         C            2.338467465364    -0.819752818442    -0.289824260436    12.000000000000
         H           -3.283961534636    -0.312840818442     0.120540739564     1.007825032230
         H           -2.247102534636    -1.009673818442     1.400988739564     1.007825032230
         H           -2.308211534636    -1.783844818442    -0.184157260436     1.007825032230
         H            2.306494465364    -1.781409818442     0.227313739564     1.007825032230
         H            3.279257465364    -0.310265818442    -0.085261260436     1.007825032230
         H            2.240915465364    -1.014050818442    -1.360932260436     1.007825032230

  Basis Set: AUG-CC-PVTZ
    Blend: AUG-CC-PVTZ
  Basis Set: (AUG-CC-PVTZ AUX)
    Blend: AUG-CC-PVTZ-JKFIT
	 Reference Energy          =    -379.6742530148047763 [Eh]
	 Singles Energy            =      -0.0000000000000000 [Eh]
	 Same-Spin Energy          =      -0.3647579402087574 [Eh]
	 Opposite-Spin Energy      =      -1.1331379682679734 [Eh]
	 Correlation Energy        =      -1.4978959084767309 [Eh]
	 Total Energy              =    -381.1721489232814974 [Eh]

	 ================> DF-SCS-MP2 Energies <==================
	-----------------------------------------------------------
	 SCS Same-Spin Scale       =       0.3333333333333333 [-]
	 SCS Opposite-Spin Scale   =       1.2000000000000000 [-]
	 SCS Same-Spin Energy      =      -0.1215859800695858 [Eh]
	 SCS Opposite-Spin Energy  =      -1.3597655619215681 [Eh]
	 SCS Correlation Energy    =      -1.4813515419911538 [Eh]
	 SCS Total Energy          =    -381.1556045567959359 [Eh]
	-----------------------------------------------------------

  Dipole Moment: [D]
     X:     0.0179      Y:    -3.8398      Z:    -0.0388     Total:     3.8401

*** Psi4 exiting successfully. Buy a developer a beer!
