                               Psi4 1.3.2 release

  ==> Input File <==

--------------------------------------------------------------------------
#psi4
#
memory 32 gb

molecule  {
0 1
  O        0.0000880    -0.6211650    -0.0005950
  O       -1.2683150     1.1981060    -0.6159220
  O        1.2678170     1.1981120     0.6161180
  C       -1.2007280     0.0874770    -0.1468620
  C        1.2006690     0.0876850     0.1465060
  C       -2.3104134    -0.9452125     0.0638752
  C        2.3408080    -0.7753200    -0.3091130
  H       -3.2816210    -0.2684080     0.1012520
  H       -2.2447620    -0.9652410     1.3817000
  H       -2.3058710    -1.7394120    -0.2034460
  H        2.3088350    -1.7369770     0.2080250
  H        3.2815980    -0.2658330    -0.1045500
  H        2.2432560    -0.9696180    -1.3802210
units angstrom
no_reorient  #important for SAPT in psi4, default
symmetry c1  #important for SAPT in psi4, default
}

set PROPERTIES_ORIGIN ["COM"]
properties('MP2/aug-cc-pvtz', properties = ['dipole'])
--------------------------------------------------------------------------

    Molecular point group: c1
  Charge       = 0
  Multiplicity = 1
  Basis Set: AUG-CC-PVTZ
    Blend: AUG-CC-PVTZ
  Basis Set: (AUG-CC-PVTZ AUX)
    Blend: AUG-CC-PVTZ-JKFIT

    Orbital Energies [Eh]
    ---------------------

    Doubly Occupied:

       1A    -20.631205     2A    -20.570691     3A    -20.566087
       4A    -11.413570     5A    -11.403499     6A    -11.268761
       7A    -11.255737     8A     -1.488469     9A     -1.408472
      10A     -1.368189    11A     -1.061565    12A     -1.024493
      13A     -0.877976    14A     -0.759581    15A     -0.727546
      16A     -0.701131    17A     -0.685055    18A     -0.649380
      19A     -0.616415    20A     -0.593638    21A     -0.591764
      22A     -0.573446    23A     -0.531125    24A     -0.501273
      25A     -0.485558    26A     -0.476836    27A     -0.443298

  @DF-RHF Final Energy:  -379.60687556693432

   => Energetics <=

    Nuclear Repulsion Energy =            300.8368249893534312
    One-Electron Energy =               -1115.5378786816722823
    Two-Electron Energy =                 435.0941781253845306
    Total Energy =                       -379.6068755669343204
  Basis Set: (AUG-CC-PVTZ AUX)
    Blend: AUG-CC-PVTZ-RI
    Molecular point group: c1

    Geometry (in Angstrom), charge = 0, multiplicity = 1:

       Center              X                  Y                   Z               Mass
    ------------   -----------------  -----------------  -----------------  -----------------
         O           -0.003429686512    -0.658950930862     0.028324699915    15.994914619570
         O           -1.271832686512     1.160320069138    -0.587002300085    15.994914619570
         O            1.264299313488     1.160326069138     0.645037699915    15.994914619570
         C           -1.204245686512     0.049691069138    -0.117942300085    12.000000000000
         C            1.197151313488     0.049899069138     0.175425699915    12.000000000000
         C           -2.313931086512    -0.982998430862     0.092794899915    12.000000000000
         C            2.337290313488    -0.813105930862    -0.280193300085    12.000000000000
         H           -3.285138686512    -0.306193930862     0.130171699915     1.007825032230
         H           -2.248279686512    -1.003026930862     1.410619699915     1.007825032230
         H           -2.309388686512    -1.777197930862    -0.174526300085     1.007825032230
         H            2.305317313488    -1.774762930862     0.236944699915     1.007825032230
         H            3.278080313488    -0.303618930862    -0.075630300085     1.007825032230
         H            2.239738313488    -1.007403930862    -1.351301300085     1.007825032230

  Basis Set: AUG-CC-PVTZ
    Blend: AUG-CC-PVTZ
  Basis Set: (AUG-CC-PVTZ AUX)
    Blend: AUG-CC-PVTZ-JKFIT
	 Reference Energy          =    -379.6068755669343204 [Eh]
	 Singles Energy            =      -0.0000000000000000 [Eh]
	 Same-Spin Energy          =      -0.3655838689833601 [Eh]
	 Opposite-Spin Energy      =      -1.1359202652127993 [Eh]
	 Correlation Energy        =      -1.5015041341961595 [Eh]
	 Total Energy              =    -381.1083797011305023 [Eh]

	 ================> DF-SCS-MP2 Energies <==================
	-----------------------------------------------------------
	 SCS Same-Spin Scale       =       0.3333333333333333 [-]
	 SCS Opposite-Spin Scale   =       1.2000000000000000 [-]
	 SCS Same-Spin Energy      =      -0.1218612896611200 [Eh]
	 SCS Opposite-Spin Energy  =      -1.3631043182553590 [Eh]
	 SCS Correlation Energy    =      -1.4849656079164790 [Eh]
	 SCS Total Energy          =    -381.0918411748507992 [Eh]
	-----------------------------------------------------------

  Dipole Moment: [D]
     X:     0.0518      Y:    -3.7950      Z:    -0.0562     Total:     3.7957

*** Psi4 exiting successfully. Buy a developer a beer!
