                               Psi4 1.3.2 release

  ==> Input File <==

--------------------------------------------------------------------------
#psi4
#
memory 32 gb

molecule  {
0 1
  O        0.0000880    -0.6211650    -0.0005950
  O       -1.2683150     1.1981060    -0.6159220
  O        1.2678170     1.1981120     0.6161180
  C       -1.2007280     0.0874770    -0.1468620
  C        1.2006690     0.0876850     0.1465060
  C       -2.3254267    -0.8604383     0.1867081
  C        2.3408080    -0.7753200    -0.3091130
  H       -3.2816210    -0.2684080     0.1012520
  H       -2.2447620    -0.9652410     1.3817000
  H       -2.3058710    -1.7394120    -0.2034460
  H        2.3088350    -1.7369770     0.2080250
  H        3.2815980    -0.2658330    -0.1045500
  H        2.2432560    -0.9696180    -1.3802210
units angstrom
no_reorient  #important for SAPT in psi4, default
symmetry c1  #important for SAPT in psi4, default
}

set PROPERTIES_ORIGIN ["COM"]
properties('MP2/aug-cc-pvtz', properties = ['dipole'])
--------------------------------------------------------------------------

    Molecular point group: c1
  Charge       = 0
  Multiplicity = 1
  Basis Set: AUG-CC-PVTZ
    Blend: AUG-CC-PVTZ
  Basis Set: (AUG-CC-PVTZ AUX)
    Blend: AUG-CC-PVTZ-JKFIT

    Orbital Energies [Eh]
    ---------------------

    Doubly Occupied:

       1A    -20.630579     2A    -20.567824     3A    -20.566055
       4A    -11.407064     5A    -11.403845     6A    -11.259058
       7A    -11.255645     8A     -1.487589     9A     -1.407331
      10A     -1.367103    11A     -1.059220    12A     -1.021272
      13A     -0.871344    14A     -0.745486    15A     -0.711074
      16A     -0.701228    17A     -0.685039    18A     -0.638413
      19A     -0.620280    20A     -0.599797    21A     -0.589228
      22A     -0.578486    23A     -0.540687    24A     -0.517385
      25A     -0.484593    26A     -0.481875    27A     -0.445185

  @DF-RHF Final Energy:  -379.69589165718605

   => Energetics <=

    Nuclear Repulsion Energy =            301.0137810086417858
    One-Electron Energy =               -1116.1339711569557949
    Two-Electron Energy =                 435.4242984911279564
    Total Energy =                       -379.6958916571860527
  Basis Set: (AUG-CC-PVTZ AUX)
    Blend: AUG-CC-PVTZ-RI
    Molecular point group: c1

    Geometry (in Angstrom), charge = 0, multiplicity = 1:

       Center              X                  Y                   Z               Mass
    ------------   -----------------  -----------------  -----------------  -----------------
         O           -0.001663964579    -0.668921268113     0.013878259388    15.994914619570
         O           -1.270066964579     1.150349731887    -0.601448740612    15.994914619570
         O            1.266065035421     1.150355731887     0.630591259388    15.994914619570
         C           -1.202479964579     0.039720731887    -0.132388740612    12.000000000000
         C            1.198917035421     0.039928731887     0.160979259388    12.000000000000
         C           -2.327178664579    -0.908194568113     0.201181359388    12.000000000000
         C            2.339056035421    -0.823076268113    -0.294639740612    12.000000000000
         H           -3.283372964579    -0.316164268113     0.115725259388     1.007825032230
         H           -2.246513964579    -1.012997268113     1.396173259388     1.007825032230
         H           -2.307622964579    -1.787168268113    -0.188972740612     1.007825032230
         H            2.307083035421    -1.784733268113     0.222498259388     1.007825032230
         H            3.279846035421    -0.313589268113    -0.090076740612     1.007825032230
         H            2.241504035421    -1.017374268113    -1.365747740612     1.007825032230

  Basis Set: AUG-CC-PVTZ
    Blend: AUG-CC-PVTZ
  Basis Set: (AUG-CC-PVTZ AUX)
    Blend: AUG-CC-PVTZ-JKFIT
	 Reference Energy          =    -379.6958916571860527 [Eh]
	 Singles Energy            =      -0.0000000000000000 [Eh]
	 Same-Spin Energy          =      -0.3644695356722604 [Eh]
	 Opposite-Spin Energy      =      -1.1321911984877890 [Eh]
	 Correlation Energy        =      -1.4966607341600495 [Eh]
	 Total Energy              =    -381.1925523913461120 [Eh]

	 ================> DF-SCS-MP2 Energies <==================
	-----------------------------------------------------------
	 SCS Same-Spin Scale       =       0.3333333333333333 [-]
	 SCS Opposite-Spin Scale   =       1.2000000000000000 [-]
	 SCS Same-Spin Energy      =      -0.1214898452240868 [Eh]
	 SCS Opposite-Spin Energy  =      -1.3586294381853468 [Eh]
	 SCS Correlation Energy    =      -1.4801192834094334 [Eh]
	 SCS Total Energy          =    -381.1760109405954609 [Eh]
	-----------------------------------------------------------

  Dipole Moment: [D]
     X:     0.0083      Y:    -3.8540      Z:    -0.0288     Total:     3.8541

*** Psi4 exiting successfully. Buy a developer a beer!
