                               Psi4 1.3.2 release

  ==> Input File <==

--------------------------------------------------------------------------
#psi4
#
memory 32 gb

molecule  {
0 1
  O        0.0000880    -0.6211650    -0.0005950
  O       -1.2683150     1.1981060    -0.6159220
  O        1.2678170     1.1981120     0.6161180
  C       -1.2007280     0.0874770    -0.1468620
  C        1.2006690     0.0876850     0.1465060
  C       -2.3154178    -0.9169544     0.1048195
  C        2.3408080    -0.7753200    -0.3091130
  H       -3.2816210    -0.2684080     0.1012520
  H       -2.2447620    -0.9652410     1.3817000
  H       -2.3058710    -1.7394120    -0.2034460
  H        2.3088350    -1.7369770     0.2080250
  H        3.2815980    -0.2658330    -0.1045500
  H        2.2432560    -0.9696180    -1.3802210
units angstrom
no_reorient  #important for SAPT in psi4, default
symmetry c1  #important for SAPT in psi4, default
}

set PROPERTIES_ORIGIN ["COM"]
properties('MP2/aug-cc-pvtz', properties = ['dipole'])
--------------------------------------------------------------------------

    Molecular point group: c1
  Charge       = 0
  Multiplicity = 1
  Basis Set: AUG-CC-PVTZ
    Blend: AUG-CC-PVTZ
  Basis Set: (AUG-CC-PVTZ AUX)
    Blend: AUG-CC-PVTZ-JKFIT

    Orbital Energies [Eh]
    ---------------------

    Doubly Occupied:

       1A    -20.630911     2A    -20.569569     3A    -20.566031
       4A    -11.410960     5A    -11.403569     6A    -11.264765
       7A    -11.255672     8A     -1.488101     9A     -1.407990
      10A     -1.367743    11A     -1.060558    12A     -1.023037
      13A     -0.874853    14A     -0.753216    15A     -0.723117
      16A     -0.701145    17A     -0.685012    18A     -0.646751
      19A     -0.617479    20A     -0.595437    21A     -0.591428
      22A     -0.575510    23A     -0.532686    24A     -0.506912
      25A     -0.485234    26A     -0.479877    27A     -0.444013

  @DF-RHF Final Energy:  -379.64487021986400

   => Energetics <=

    Nuclear Repulsion Energy =            300.9072464858792841
    One-Electron Energy =               -1115.7810807505177308
    Two-Electron Energy =                 435.2289640447743864
    Total Energy =                       -379.6448702198640035
  Basis Set: (AUG-CC-PVTZ AUX)
    Blend: AUG-CC-PVTZ-RI
    Molecular point group: c1

    Geometry (in Angstrom), charge = 0, multiplicity = 1:

       Center              X                  Y                   Z               Mass
    ------------   -----------------  -----------------  -----------------  -----------------
         O           -0.002841116454    -0.662274380533     0.023509219740    15.994914619570
         O           -1.271244116454     1.156996619467    -0.591817780260    15.994914619570
         O            1.264887883546     1.157002619467     0.640222219740    15.994914619570
         C           -1.203657116454     0.046367619467    -0.122757780260    12.000000000000
         C            1.197739883546     0.046575619467     0.170610219740    12.000000000000
         C           -2.318346916454    -0.958063780533     0.128923719740    12.000000000000
         C            2.337878883546    -0.816429380533    -0.285008780260    12.000000000000
         H           -3.284550116454    -0.309517380533     0.125356219740     1.007825032230
         H           -2.247691116454    -1.006350380533     1.405804219740     1.007825032230
         H           -2.308800116454    -1.780521380533    -0.179341780260     1.007825032230
         H            2.305905883546    -1.778086380533     0.232129219740     1.007825032230
         H            3.278668883546    -0.306942380533    -0.080445780260     1.007825032230
         H            2.240326883546    -1.010727380533    -1.356116780260     1.007825032230

  Basis Set: AUG-CC-PVTZ
    Blend: AUG-CC-PVTZ
  Basis Set: (AUG-CC-PVTZ AUX)
    Blend: AUG-CC-PVTZ-JKFIT
	 Reference Energy          =    -379.6448702198640035 [Eh]
	 Singles Energy            =      -0.0000000000000000 [Eh]
	 Same-Spin Energy          =      -0.3651278986282785 [Eh]
	 Opposite-Spin Energy      =      -1.1343785469993972 [Eh]
	 Correlation Energy        =      -1.4995064456276759 [Eh]
	 Total Energy              =    -381.1443766654916772 [Eh]

	 ================> DF-SCS-MP2 Energies <==================
	-----------------------------------------------------------
	 SCS Same-Spin Scale       =       0.3333333333333333 [-]
	 SCS Opposite-Spin Scale   =       1.2000000000000000 [-]
	 SCS Same-Spin Energy      =      -0.1217092995427595 [Eh]
	 SCS Opposite-Spin Energy  =      -1.3612542563992767 [Eh]
	 SCS Correlation Energy    =      -1.4829635559420362 [Eh]
	 SCS Total Energy          =    -381.1278337758060388 [Eh]
	-----------------------------------------------------------

  Dipole Moment: [D]
     X:     0.0321      Y:    -3.8201      Z:    -0.0481     Total:     3.8205

*** Psi4 exiting successfully. Buy a developer a beer!
