                               Psi4 1.3.2 release

  ==> Input File <==

--------------------------------------------------------------------------
#psi4
#
memory 32 gb

molecule  {
0 1
  O        0.0000880    -0.6211650    -0.0005950
  O       -1.2683150     1.1981060    -0.6159220
  O        1.2678170     1.1981120     0.6161180
  C       -1.2007280     0.0874770    -0.1468620
  C        1.2006690     0.0876850     0.1465060
  C       -2.3354356    -0.8039221     0.2685967
  C        2.3408080    -0.7753200    -0.3091130
  H       -3.2816210    -0.2684080     0.1012520
  H       -2.2447620    -0.9652410     1.3817000
  H       -2.3058710    -1.7394120    -0.2034460
  H        2.3088350    -1.7369770     0.2080250
  H        3.2815980    -0.2658330    -0.1045500
  H        2.2432560    -0.9696180    -1.3802210
units angstrom
no_reorient  #important for SAPT in psi4, default
symmetry c1  #important for SAPT in psi4, default
}

set PROPERTIES_ORIGIN ["COM"]
properties('MP2/aug-cc-pvtz', properties = ['dipole'])
--------------------------------------------------------------------------

    Molecular point group: c1
  Charge       = 0
  Multiplicity = 1
  Basis Set: AUG-CC-PVTZ
    Blend: AUG-CC-PVTZ
  Basis Set: (AUG-CC-PVTZ AUX)
    Blend: AUG-CC-PVTZ-JKFIT

    Orbital Energies [Eh]
    ---------------------

    Doubly Occupied:

       1A    -20.630536     2A    -20.566705     3A    -20.566232
       4A    -11.404932     5A    -11.404267     6A    -11.256188
       7A    -11.255731     8A     -1.487340     9A     -1.407043
      10A     -1.366785    11A     -1.058353    12A     -1.020619
      13A     -0.870476    14A     -0.742783    15A     -0.703806
      16A     -0.700153    17A     -0.685034    18A     -0.628294
      19A     -0.623380    20A     -0.601658    21A     -0.584720
      22A     -0.582113    23A     -0.553811    24A     -0.520927
      25A     -0.483831    26A     -0.481873    27A     -0.446139

  @DF-RHF Final Energy:  -379.71899956920197

   => Energetics <=

    Nuclear Repulsion Energy =            301.0623776382830101
    One-Electron Energy =               -1116.2952948750194082
    Two-Electron Energy =                 435.5139176675344288
    Total Energy =                       -379.7189995692019693
  Basis Set: (AUG-CC-PVTZ AUX)
    Blend: AUG-CC-PVTZ-RI
    Molecular point group: c1

    Geometry (in Angstrom), charge = 0, multiplicity = 1:

       Center              X                  Y                   Z               Mass
    ------------   -----------------  -----------------  -----------------  -----------------
         O           -0.000486812704    -0.675568167454     0.004247299037    15.994914619570
         O           -1.268889812704     1.143702832546    -0.611079700963    15.994914619570
         O            1.267242187296     1.143708832546     0.620960299037    15.994914619570
         C           -1.201302812704     0.033073832546    -0.142019700963    12.000000000000
         C            1.200094187296     0.033281832546     0.151348299037    12.000000000000
         C           -2.336010412704    -0.858325267454     0.273438999037    12.000000000000
         C            2.340233187296    -0.829723167454    -0.304270700963    12.000000000000
         H           -3.282195812704    -0.322811167454     0.106094299037     1.007825032230
         H           -2.245336812704    -1.019644167454     1.386542299037     1.007825032230
         H           -2.306445812704    -1.793815167454    -0.198603700963     1.007825032230
         H            2.308260187296    -1.791380167454     0.212867299037     1.007825032230
         H            3.281023187296    -0.320236167454    -0.099707700963     1.007825032230
         H            2.242681187296    -1.024021167454    -1.375378700963     1.007825032230

  Basis Set: AUG-CC-PVTZ
    Blend: AUG-CC-PVTZ
  Basis Set: (AUG-CC-PVTZ AUX)
    Blend: AUG-CC-PVTZ-JKFIT
	 Reference Energy          =    -379.7189995692019693 [Eh]
	 Singles Energy            =      -0.0000000000000000 [Eh]
	 Same-Spin Energy          =      -0.3641219007928734 [Eh]
	 Opposite-Spin Energy      =      -1.1311120174409384 [Eh]
	 Correlation Energy        =      -1.4952339182338119 [Eh]
	 Total Energy              =    -381.2142334874357630 [Eh]

	 ================> DF-SCS-MP2 Energies <==================
	-----------------------------------------------------------
	 SCS Same-Spin Scale       =       0.3333333333333333 [-]
	 SCS Opposite-Spin Scale   =       1.2000000000000000 [-]
	 SCS Same-Spin Energy      =      -0.1213739669309578 [Eh]
	 SCS Opposite-Spin Energy  =      -1.3573344209291260 [Eh]
	 SCS Correlation Energy    =      -1.4787083878600837 [Eh]
	 SCS Total Energy          =    -381.1977079570620504 [Eh]
	-----------------------------------------------------------

  Dipole Moment: [D]
     X:     0.0004      Y:    -3.8649      Z:    -0.0087     Total:     3.8649

*** Psi4 exiting successfully. Buy a developer a beer!
