                               Psi4 1.3.2 release

  ==> Input File <==

--------------------------------------------------------------------------
#psi4
#
memory 32 gb

molecule  {
0 1
  F        1.4077440     2.3569060     0.0024490
  F        1.4077500    -2.3569030     0.0024500
  C       -1.3651830    -0.0000010    -0.0169560
  C       -0.6574790    -1.2079560    -0.0091570
  C       -0.6574810     1.2079540    -0.0091560
  C       -2.8713810    -0.0000030     0.0124600
  C        0.7312170     1.1805550     0.0005770
  C        0.7312190    -1.1805530     0.0005760
  C        1.4621924     0.0001837     0.1071196
  H       -1.1698750    -2.1658170    -0.0181430
  H       -1.1698790     2.1658150    -0.0181420
  H       -3.2423250     0.0000120     1.0428870
  H       -3.2734640     0.8855870    -0.4868160
  H       -3.2734620    -0.8856090    -0.4867890
  H        2.5469510     0.0000020     0.0101120
units angstrom
no_reorient  #important for SAPT in psi4, default
symmetry c1  #important for SAPT in psi4, default
}

set PROPERTIES_ORIGIN ["COM"]
properties('MP2/aug-cc-pvtz', properties = ['dipole'])
--------------------------------------------------------------------------

    Molecular point group: c1
  Charge       = 0
  Multiplicity = 1
  Basis Set: AUG-CC-PVTZ
    Blend: AUG-CC-PVTZ
  Basis Set: (AUG-CC-PVTZ AUX)
    Blend: AUG-CC-PVTZ-JKFIT

    Orbital Energies [Eh]
    ---------------------

    Doubly Occupied:

       1A    -26.317289     2A    -26.317265     3A    -11.346892
       4A    -11.346852     5A    -11.275035     6A    -11.252362
       7A    -11.246400     8A    -11.246363     9A    -11.242073
      10A     -1.630554    11A     -1.630007    12A     -1.179487
      13A     -1.070169    14A     -1.032502    15A     -0.963104
      16A     -0.862435    17A     -0.844171    18A     -0.754317
      19A     -0.740542    20A     -0.702209    21A     -0.697545
      22A     -0.694692    23A     -0.686785    24A     -0.662639
      25A     -0.602880    26A     -0.596889    27A     -0.593121
      28A     -0.555645    29A     -0.540430    30A     -0.524235
      31A     -0.502240    32A     -0.350141    33A     -0.349390

  @DF-RHF Final Energy:  -467.60896914096509

   => Energetics <=

    Nuclear Repulsion Energy =            420.3758177095578503
    One-Electron Energy =               -1475.2562474818514602
    Two-Electron Energy =                 587.2714606313285230
    Total Energy =                       -467.6089691409650868
  Basis Set: (AUG-CC-PVTZ AUX)
    Blend: AUG-CC-PVTZ-RI
    Molecular point group: c1

    Geometry (in Angstrom), charge = 0, multiplicity = 1:

       Center              X                  Y                   Z               Mass
    ------------   -----------------  -----------------  -----------------  -----------------
         F            1.311604138381     2.356888792469    -0.006626668646    18.998403162730
         F            1.311610138381    -2.356920207531    -0.006625668646    18.998403162730
         C           -1.461322861619    -0.000018207531    -0.026031668646    12.000000000000
         C           -0.753618861619    -1.207973207531    -0.018232668646    12.000000000000
         C           -0.753620861619     1.207936792469    -0.018231668646    12.000000000000
         C           -2.967520861619    -0.000020207531     0.003384331354    12.000000000000
         C            0.635077138381     1.180537792469    -0.008498668646    12.000000000000
         C            0.635079138381    -1.180570207531    -0.008499668646    12.000000000000
         C            1.366052538381     0.000166492469     0.098043931354    12.000000000000
         H           -1.266014861619    -2.165834207531    -0.027218668646     1.007825032230
         H           -1.266018861619     2.165797792469    -0.027217668646     1.007825032230
         H           -3.338464861619    -0.000005207531     1.033811331354     1.007825032230
         H           -3.369603861619     0.885569792469    -0.495891668646     1.007825032230
         H           -3.369601861619    -0.885626207531    -0.495864668646     1.007825032230
         H            2.450811138381    -0.000015207531     0.001036331354     1.007825032230

  Basis Set: AUG-CC-PVTZ
    Blend: AUG-CC-PVTZ
  Basis Set: (AUG-CC-PVTZ AUX)
    Blend: AUG-CC-PVTZ-JKFIT
	 Reference Energy          =    -467.6089691409650868 [Eh]
	 Singles Energy            =      -0.0000000000000000 [Eh]
	 Same-Spin Energy          =      -0.4452093362036529 [Eh]
	 Opposite-Spin Energy      =      -1.3531547652511517 [Eh]
	 Correlation Energy        =      -1.7983641014548046 [Eh]
	 Total Energy              =    -469.4073332424198952 [Eh]

	 ================> DF-SCS-MP2 Energies <==================
	-----------------------------------------------------------
	 SCS Same-Spin Scale       =       0.3333333333333333 [-]
	 SCS Opposite-Spin Scale   =       1.2000000000000000 [-]
	 SCS Same-Spin Energy      =      -0.1484031120678843 [Eh]
	 SCS Opposite-Spin Energy  =      -1.6237857183013820 [Eh]
	 SCS Correlation Energy    =      -1.7721888303692663 [Eh]
	 SCS Total Energy          =    -469.3811579713343463 [Eh]
	-----------------------------------------------------------

  Dipole Moment: [D]
     X:    -2.0701      Y:    -0.0003      Z:    -0.0223     Total:     2.0702

*** Psi4 exiting successfully. Buy a developer a beer!
