                               Psi4 1.3.2 release

  ==> Input File <==

--------------------------------------------------------------------------
#psi4
#
memory 32 gb

molecule  {
0 1
  F        1.4077440     2.3569060     0.0024490
  F        1.4077500    -2.3569030     0.0024500
  C       -1.3651830    -0.0000010    -0.0169560
  C       -0.6574790    -1.2079560    -0.0091570
  C       -0.6574810     1.2079540    -0.0091560
  C       -2.8694283    -0.0000031     0.2124505
  C        0.7312170     1.1805550     0.0005770
  C        0.7312190    -1.1805530     0.0005760
  C        1.4628560     0.0000010     0.0071220
  H       -1.1698750    -2.1658170    -0.0181430
  H       -1.1698790     2.1658150    -0.0181420
  H       -3.2423250     0.0000120     1.0428870
  H       -3.2734640     0.8855870    -0.4868160
  H       -3.2734620    -0.8856090    -0.4867890
  H        2.5469510     0.0000020     0.0101120
units angstrom
no_reorient  #important for SAPT in psi4, default
symmetry c1  #important for SAPT in psi4, default
}

set PROPERTIES_ORIGIN ["COM"]
properties('MP2/aug-cc-pvtz', properties = ['dipole'])
--------------------------------------------------------------------------

    Molecular point group: c1
  Charge       = 0
  Multiplicity = 1
  Basis Set: AUG-CC-PVTZ
    Blend: AUG-CC-PVTZ
  Basis Set: (AUG-CC-PVTZ AUX)
    Blend: AUG-CC-PVTZ-JKFIT

    Orbital Energies [Eh]
    ---------------------

    Doubly Occupied:

       1A    -26.317690     2A    -26.317689     3A    -11.346579
       4A    -11.346574     5A    -11.276652     6A    -11.253675
       7A    -11.247823     8A    -11.247786     9A    -11.246149
      10A     -1.631030    11A     -1.630480    12A     -1.180485
      13A     -1.070571    14A     -1.033401    15A     -0.967841
      16A     -0.863531    17A     -0.848616    18A     -0.758917
      19A     -0.740826    20A     -0.702930    21A     -0.699763
      22A     -0.694958    23A     -0.686453    24A     -0.666311
      25A     -0.642256    26A     -0.596576    27A     -0.586144
      28A     -0.552972    29A     -0.529620    30A     -0.499813
      31A     -0.497252    32A     -0.352828    33A     -0.350105

  @DF-RHF Final Energy:  -467.56016071931219

   => Energetics <=

    Nuclear Repulsion Energy =            420.3835364979562428
    One-Electron Energy =               -1475.1188028492281319
    Two-Electron Energy =                 587.1751056319598092
    Total Energy =                       -467.5601607193121936
  Basis Set: (AUG-CC-PVTZ AUX)
    Blend: AUG-CC-PVTZ-RI
    Molecular point group: c1

    Geometry (in Angstrom), charge = 0, multiplicity = 1:

       Center              X                  Y                   Z               Mass
    ------------   -----------------  -----------------  -----------------  -----------------
         F            1.311358944075     2.356905924112    -0.015997799521    18.998403162730
         F            1.311364944075    -2.356903075888    -0.015996799521    18.998403162730
         C           -1.461568055925    -0.000001075888    -0.035402799521    12.000000000000
         C           -0.753864055925    -1.207956075888    -0.027603799521    12.000000000000
         C           -0.753866055925     1.207953924112    -0.027602799521    12.000000000000
         C           -2.965813355925    -0.000003175888     0.194003700479    12.000000000000
         C            0.634831944075     1.180554924112    -0.017869799521    12.000000000000
         C            0.634833944075    -1.180553075888    -0.017870799521    12.000000000000
         C            1.366470944075     0.000000924112    -0.011324799521    12.000000000000
         H           -1.266260055925    -2.165817075888    -0.036589799521     1.007825032230
         H           -1.266264055925     2.165814924112    -0.036588799521     1.007825032230
         H           -3.338710055925     0.000011924112     1.024440200479     1.007825032230
         H           -3.369849055925     0.885586924112    -0.505262799521     1.007825032230
         H           -3.369847055925    -0.885609075888    -0.505235799521     1.007825032230
         H            2.450565944075     0.000001924112    -0.008334799521     1.007825032230

  Basis Set: AUG-CC-PVTZ
    Blend: AUG-CC-PVTZ
  Basis Set: (AUG-CC-PVTZ AUX)
    Blend: AUG-CC-PVTZ-JKFIT
	 Reference Energy          =    -467.5601607193121936 [Eh]
	 Singles Energy            =      -0.0000000000000000 [Eh]
	 Same-Spin Energy          =      -0.4457298481493203 [Eh]
	 Opposite-Spin Energy      =      -1.3550774940161174 [Eh]
	 Correlation Energy        =      -1.8008073421654376 [Eh]
	 Total Energy              =    -469.3609680614776494 [Eh]

	 ================> DF-SCS-MP2 Energies <==================
	-----------------------------------------------------------
	 SCS Same-Spin Scale       =       0.3333333333333333 [-]
	 SCS Opposite-Spin Scale   =       1.2000000000000000 [-]
	 SCS Same-Spin Energy      =      -0.1485766160497734 [Eh]
	 SCS Opposite-Spin Energy  =      -1.6260929928193408 [Eh]
	 SCS Correlation Energy    =      -1.7746696088691143 [Eh]
	 SCS Total Energy          =    -469.3348303281812832 [Eh]
	-----------------------------------------------------------

  Dipole Moment: [D]
     X:    -1.8678      Y:     0.0000      Z:     0.0898     Total:     1.8700

*** Psi4 exiting successfully. Buy a developer a beer!
