                               Psi4 1.3.2 release

  ==> Input File <==

--------------------------------------------------------------------------
#psi4
#
memory 32 gb

molecule  {
0 1
  F        1.4077440     2.3569060     0.0024490
  F        1.4077500    -2.3569030     0.0024500
  C       -1.3651830    -0.0000010    -0.0169560
  C       -0.6574790    -1.2079560    -0.0091570
  C       -0.6574810     1.2079540    -0.0091560
  C       -2.8713810    -0.0000030     0.0124600
  C        0.7312170     1.1805550     0.0005770
  C        0.7312190    -1.1805530     0.0005760
  C        1.4628560     0.0000010     0.0071220
  H       -1.1698750    -2.1658170    -0.0181430
  H       -1.1698790     2.1658150    -0.0181420
  H       -3.2423250     0.0000120     1.0428870
  H       -3.2734640     0.8855870    -0.4868160
  H       -3.2734620    -0.8856090    -0.4867890
  H        2.5469510     0.0000020     0.0101120
units angstrom
no_reorient  #important for SAPT in psi4, default
symmetry c1  #important for SAPT in psi4, default
}

set PROPERTIES_ORIGIN ["COM"]
properties('MP2/aug-cc-pvtz', properties = ['dipole'])
--------------------------------------------------------------------------

    Molecular point group: c1
  Charge       = 0
  Multiplicity = 1
  Basis Set: AUG-CC-PVTZ
    Blend: AUG-CC-PVTZ
  Basis Set: (AUG-CC-PVTZ AUX)
    Blend: AUG-CC-PVTZ-JKFIT

    Orbital Energies [Eh]
    ---------------------

    Doubly Occupied:

       1A    -26.317068     2A    -26.317068     3A    -11.346015
       4A    -11.346010     5A    -11.274450     6A    -11.251542
       7A    -11.246422     8A    -11.246384     9A    -11.241820
      10A     -1.630380    11A     -1.629832    12A     -1.179751
      13A     -1.070583    14A     -1.032474    15A     -0.963175
      16A     -0.863001    17A     -0.844068    18A     -0.754421
      19A     -0.740822    20A     -0.702177    21A     -0.698458
      22A     -0.694269    23A     -0.687162    24A     -0.662596
      25A     -0.603162    26A     -0.598367    27A     -0.592677
      28A     -0.556163    29A     -0.540239    30A     -0.524229
      31A     -0.502956    32A     -0.350025    33A     -0.349521

  @DF-RHF Final Energy:  -467.61179509032718

   => Energetics <=

    Nuclear Repulsion Energy =            420.5056639985784841
    One-Electron Energy =               -1475.5203421742726277
    Two-Electron Energy =                 587.4028830853669660
    Total Energy =                       -467.6117950903271776
  Basis Set: (AUG-CC-PVTZ AUX)
    Blend: AUG-CC-PVTZ-RI
    Molecular point group: c1

    Geometry (in Angstrom), charge = 0, multiplicity = 1:

       Center              X                  Y                   Z               Mass
    ------------   -----------------  -----------------  -----------------  -----------------
         F            1.311541947141     2.356905914740     0.002744902702    18.998403162730
         F            1.311547947141    -2.356903085260     0.002745902702    18.998403162730
         C           -1.461385052859    -0.000001085260    -0.016660097298    12.000000000000
         C           -0.753681052859    -1.207956085260    -0.008861097298    12.000000000000
         C           -0.753683052859     1.207953914740    -0.008860097298    12.000000000000
         C           -2.967583052859    -0.000003085260     0.012755902702    12.000000000000
         C            0.635014947141     1.180554914740     0.000872902702    12.000000000000
         C            0.635016947141    -1.180553085260     0.000871902702    12.000000000000
         C            1.366653947141     0.000000914740     0.007417902702    12.000000000000
         H           -1.266077052859    -2.165817085260    -0.017847097298     1.007825032230
         H           -1.266081052859     2.165814914740    -0.017846097298     1.007825032230
         H           -3.338527052859     0.000011914740     1.043182902702     1.007825032230
         H           -3.369666052859     0.885586914740    -0.486520097298     1.007825032230
         H           -3.369664052859    -0.885609085260    -0.486493097298     1.007825032230
         H            2.450748947141     0.000001914740     0.010407902702     1.007825032230

  Basis Set: AUG-CC-PVTZ
    Blend: AUG-CC-PVTZ
  Basis Set: (AUG-CC-PVTZ AUX)
    Blend: AUG-CC-PVTZ-JKFIT
	 Reference Energy          =    -467.6117950903271776 [Eh]
	 Singles Energy            =      -0.0000000000000000 [Eh]
	 Same-Spin Energy          =      -0.4450651100651589 [Eh]
	 Opposite-Spin Energy      =      -1.3527791315303102 [Eh]
	 Correlation Energy        =      -1.7978442415954690 [Eh]
	 Total Energy              =    -469.4096393319226195 [Eh]

	 ================> DF-SCS-MP2 Energies <==================
	-----------------------------------------------------------
	 SCS Same-Spin Scale       =       0.3333333333333333 [-]
	 SCS Opposite-Spin Scale   =       1.2000000000000000 [-]
	 SCS Same-Spin Energy      =      -0.1483550366883863 [Eh]
	 SCS Opposite-Spin Energy  =      -1.6233349578363721 [Eh]
	 SCS Correlation Energy    =      -1.7716899945247584 [Eh]
	 SCS Total Energy          =    -469.3834850848519409 [Eh]
	-----------------------------------------------------------

  Dipole Moment: [D]
     X:    -2.0455      Y:     0.0000      Z:     0.0336     Total:     2.0458

*** Psi4 exiting successfully. Buy a developer a beer!
