                               Psi4 1.3.2 release

  ==> Input File <==

--------------------------------------------------------------------------
#psi4
#
memory 32 gb

molecule  {
0 1
  F        1.4077440     2.3569060     0.0024490
  F        1.4077500    -2.3569030     0.0024500
  C       -1.3651830    -0.0000010    -0.0169560
  C       -0.6574790    -1.2079560    -0.0091570
  C       -0.6574810     1.2079540    -0.0091560
  C       -2.8713810    -0.0000030     0.0124600
  C        0.7312170     1.1805550     0.0005770
  C        0.7312190    -1.1805530     0.0005760
  C        1.4611971     0.0004579     0.2571161
  H       -1.1698750    -2.1658170    -0.0181430
  H       -1.1698790     2.1658150    -0.0181420
  H       -3.2423250     0.0000120     1.0428870
  H       -3.2734640     0.8855870    -0.4868160
  H       -3.2734620    -0.8856090    -0.4867890
  H        2.5469510     0.0000020     0.0101120
units angstrom
no_reorient  #important for SAPT in psi4, default
symmetry c1  #important for SAPT in psi4, default
}

set PROPERTIES_ORIGIN ["COM"]
properties('MP2/aug-cc-pvtz', properties = ['dipole'])
--------------------------------------------------------------------------

    Molecular point group: c1
  Charge       = 0
  Multiplicity = 1
  Basis Set: AUG-CC-PVTZ
    Blend: AUG-CC-PVTZ
  Basis Set: (AUG-CC-PVTZ AUX)
    Blend: AUG-CC-PVTZ-JKFIT

    Orbital Energies [Eh]
    ---------------------

    Doubly Occupied:

       1A    -26.318337     2A    -26.318280     3A    -11.351105
       4A    -11.351016     5A    -11.278038     6A    -11.256326
       7A    -11.246409     8A    -11.246374     9A    -11.243438
      10A     -1.631407    11A     -1.630867    12A     -1.178275
      13A     -1.068010    14A     -1.032736    15A     -0.962686
      16A     -0.859822    17A     -0.844706    18A     -0.754033
      19A     -0.739218    20A     -0.702383    21A     -0.696312
      22A     -0.693547    23A     -0.685330    24A     -0.662899
      25A     -0.601578    26A     -0.594521    27A     -0.590372
      28A     -0.552783    29A     -0.541376    30A     -0.524191
      31A     -0.498723    32A     -0.350723    33A     -0.348809

  @DF-RHF Final Energy:  -467.59404949242719

   => Energetics <=

    Nuclear Repulsion Energy =            419.7270337722980571
    One-Electron Energy =               -1473.9329067395574384
    Two-Electron Energy =                 586.6118234748322493
    Total Energy =                       -467.5940494924271889
  Basis Set: (AUG-CC-PVTZ AUX)
    Blend: AUG-CC-PVTZ-RI
    Molecular point group: c1

    Geometry (in Angstrom), charge = 0, multiplicity = 1:

       Center              X                  Y                   Z               Mass
    ------------   -----------------  -----------------  -----------------  -----------------
         F            1.311697415870     2.356863095003    -0.020684035042    18.998403162730
         F            1.311703415870    -2.356945904997    -0.020683035042    18.998403162730
         C           -1.461229584130    -0.000043904997    -0.040089035042    12.000000000000
         C           -0.753525584130    -1.207998904997    -0.032290035042    12.000000000000
         C           -0.753527584130     1.207911095003    -0.032289035042    12.000000000000
         C           -2.967427584130    -0.000045904997    -0.010673035042    12.000000000000
         C            0.635170415870     1.180512095003    -0.022556035042    12.000000000000
         C            0.635172415870    -1.180595904997    -0.022557035042    12.000000000000
         C            1.365150515870     0.000414995003     0.233983064958    12.000000000000
         H           -1.265921584130    -2.165859904997    -0.041276035042     1.007825032230
         H           -1.265925584130     2.165772095003    -0.041275035042     1.007825032230
         H           -3.338371584130    -0.000030904997     1.019753964958     1.007825032230
         H           -3.369510584130     0.885544095003    -0.509949035042     1.007825032230
         H           -3.369508584130    -0.885651904997    -0.509922035042     1.007825032230
         H            2.450904415870    -0.000040904997    -0.013021035042     1.007825032230

  Basis Set: AUG-CC-PVTZ
    Blend: AUG-CC-PVTZ
  Basis Set: (AUG-CC-PVTZ AUX)
    Blend: AUG-CC-PVTZ-JKFIT
	 Reference Energy          =    -467.5940494924271889 [Eh]
	 Singles Energy            =      -0.0000000000000000 [Eh]
	 Same-Spin Energy          =      -0.4459069698209537 [Eh]
	 Opposite-Spin Energy      =      -1.3552929408092251 [Eh]
	 Correlation Energy        =      -1.8011999106301788 [Eh]
	 Total Energy              =    -469.3952494030573916 [Eh]

	 ================> DF-SCS-MP2 Energies <==================
	-----------------------------------------------------------
	 SCS Same-Spin Scale       =       0.3333333333333333 [-]
	 SCS Opposite-Spin Scale   =       1.2000000000000000 [-]
	 SCS Same-Spin Energy      =      -0.1486356566069846 [Eh]
	 SCS Opposite-Spin Energy  =      -1.6263515289710702 [Eh]
	 SCS Correlation Energy    =      -1.7749871855780548 [Eh]
	 SCS Total Energy          =    -469.3690366780052159 [Eh]
	-----------------------------------------------------------

  Dipole Moment: [D]
     X:    -2.1971      Y:    -0.0007      Z:    -0.1115     Total:     2.2000

*** Psi4 exiting successfully. Buy a developer a beer!
