                               Psi4 1.3.2 release

  ==> Input File <==

--------------------------------------------------------------------------
#psi4
#
memory 32 gb

molecule  {
0 1
  F        1.4077440     2.3569060     0.0024490
  F        1.4077500    -2.3569030     0.0024500
  C       -1.3651830    -0.0000010    -0.0169560
  C       -0.6574790    -1.2079560    -0.0091570
  C       -0.6574810     1.2079540    -0.0091560
  C       -2.8708928    -0.0000030     0.0624576
  C        0.7312170     1.1805550     0.0005770
  C        0.7312190    -1.1805530     0.0005760
  C        1.4628560     0.0000010     0.0071220
  H       -1.1698750    -2.1658170    -0.0181430
  H       -1.1698790     2.1658150    -0.0181420
  H       -3.2423250     0.0000120     1.0428870
  H       -3.2734640     0.8855870    -0.4868160
  H       -3.2734620    -0.8856090    -0.4867890
  H        2.5469510     0.0000020     0.0101120
units angstrom
no_reorient  #important for SAPT in psi4, default
symmetry c1  #important for SAPT in psi4, default
}

set PROPERTIES_ORIGIN ["COM"]
properties('MP2/aug-cc-pvtz', properties = ['dipole'])
--------------------------------------------------------------------------

    Molecular point group: c1
  Charge       = 0
  Multiplicity = 1
  Basis Set: AUG-CC-PVTZ
    Blend: AUG-CC-PVTZ
  Basis Set: (AUG-CC-PVTZ AUX)
    Blend: AUG-CC-PVTZ-JKFIT

    Orbital Energies [Eh]
    ---------------------

    Doubly Occupied:

       1A    -26.317139     2A    -26.317138     3A    -11.346041
       4A    -11.346036     5A    -11.274316     6A    -11.251975
       7A    -11.246632     8A    -11.246594     9A    -11.241812
      10A     -1.630460    11A     -1.629912    12A     -1.179828
      13A     -1.070506    14A     -1.032584    15A     -0.963303
      16A     -0.863019    17A     -0.844305    18A     -0.754664
      19A     -0.740683    20A     -0.702282    21A     -0.698636
      22A     -0.694359    23A     -0.686788    24A     -0.662673
      25A     -0.608093    26A     -0.600434    27A     -0.593876
      28A     -0.554082    29A     -0.531308    30A     -0.524763
      31A     -0.504075    32A     -0.351025    33A     -0.349545

  @DF-RHF Final Energy:  -467.60889538840411

   => Energetics <=

    Nuclear Repulsion Energy =            420.4963212613216115
    One-Electron Energy =               -1475.4926597619946733
    Two-Electron Energy =                 587.3874431122690112
    Total Energy =                       -467.6088953884041075
  Basis Set: (AUG-CC-PVTZ AUX)
    Blend: AUG-CC-PVTZ-RI
    Molecular point group: c1

    Geometry (in Angstrom), charge = 0, multiplicity = 1:

       Center              X                  Y                   Z               Mass
    ------------   -----------------  -----------------  -----------------  -----------------
         F            1.311496194032     2.356905914740    -0.001940770510    18.998403162730
         F            1.311502194032    -2.356903085260    -0.001939770510    18.998403162730
         C           -1.461430805968    -0.000001085260    -0.021345770510    12.000000000000
         C           -0.753726805968    -1.207956085260    -0.013546770510    12.000000000000
         C           -0.753728805968     1.207953914740    -0.013545770510    12.000000000000
         C           -2.967140605968    -0.000003085260     0.058067829490    12.000000000000
         C            0.634969194032     1.180554914740    -0.003812770510    12.000000000000
         C            0.634971194032    -1.180553085260    -0.003813770510    12.000000000000
         C            1.366608194032     0.000000914740     0.002732229490    12.000000000000
         H           -1.266122805968    -2.165817085260    -0.022532770510     1.007825032230
         H           -1.266126805968     2.165814914740    -0.022531770510     1.007825032230
         H           -3.338572805968     0.000011914740     1.038497229490     1.007825032230
         H           -3.369711805968     0.885586914740    -0.491205770510     1.007825032230
         H           -3.369709805968    -0.885609085260    -0.491178770510     1.007825032230
         H            2.450703194032     0.000001914740     0.005722229490     1.007825032230

  Basis Set: AUG-CC-PVTZ
    Blend: AUG-CC-PVTZ
  Basis Set: (AUG-CC-PVTZ AUX)
    Blend: AUG-CC-PVTZ-JKFIT
	 Reference Energy          =    -467.6088953884041075 [Eh]
	 Singles Energy            =      -0.0000000000000000 [Eh]
	 Same-Spin Energy          =      -0.4451238587114112 [Eh]
	 Opposite-Spin Energy      =      -1.3529715354036913 [Eh]
	 Correlation Energy        =      -1.7980953941151026 [Eh]
	 Total Energy              =    -469.4069907825191876 [Eh]

	 ================> DF-SCS-MP2 Energies <==================
	-----------------------------------------------------------
	 SCS Same-Spin Scale       =       0.3333333333333333 [-]
	 SCS Opposite-Spin Scale   =       1.2000000000000000 [-]
	 SCS Same-Spin Energy      =      -0.1483746195704704 [Eh]
	 SCS Opposite-Spin Energy  =      -1.6235658424844295 [Eh]
	 SCS Correlation Energy    =      -1.7719404620549000 [Eh]
	 SCS Total Energy          =    -469.3808358504589933 [Eh]
	-----------------------------------------------------------

  Dipole Moment: [D]
     X:    -2.0141      Y:     0.0000      Z:     0.0540     Total:     2.0148

*** Psi4 exiting successfully. Buy a developer a beer!
