                               Psi4 1.3.2 release

  ==> Input File <==

--------------------------------------------------------------------------
#psi4
#
memory 32 gb

molecule  {
0 1
  F        1.4077440     2.3569060     0.0024490
  F        1.4077500    -2.3569030     0.0024500
  C       -1.3651830    -0.0000010    -0.0169560
  C       -0.6574790    -1.2079560    -0.0091570
  C       -0.6574810     1.2079540    -0.0091560
  C       -2.8713810    -0.0000030     0.0124600
  C        0.7312170     1.1805550     0.0005770
  C        0.7312190    -1.1805530     0.0005760
  C        1.4625242     0.0000924     0.0571208
  H       -1.1698750    -2.1658170    -0.0181430
  H       -1.1698790     2.1658150    -0.0181420
  H       -3.2423250     0.0000120     1.0428870
  H       -3.2734640     0.8855870    -0.4868160
  H       -3.2734620    -0.8856090    -0.4867890
  H        2.5469510     0.0000020     0.0101120
units angstrom
no_reorient  #important for SAPT in psi4, default
symmetry c1  #important for SAPT in psi4, default
}

set PROPERTIES_ORIGIN ["COM"]
properties('MP2/aug-cc-pvtz', properties = ['dipole'])
--------------------------------------------------------------------------

    Molecular point group: c1
  Charge       = 0
  Multiplicity = 1
  Basis Set: AUG-CC-PVTZ
    Blend: AUG-CC-PVTZ
  Basis Set: (AUG-CC-PVTZ AUX)
    Blend: AUG-CC-PVTZ-JKFIT

    Orbital Energies [Eh]
    ---------------------

    Doubly Occupied:

       1A    -26.317131     2A    -26.317119     3A    -11.346250
       4A    -11.346229     5A    -11.274603     6A    -11.251763
       7A    -11.246414     8A    -11.246376     9A    -11.241883
      10A     -1.630427    11A     -1.629880    12A     -1.179683
      13A     -1.070477    14A     -1.032480    15A     -0.963157
      16A     -0.862854    17A     -0.844094    18A     -0.754394
      19A     -0.740750    20A     -0.702186    21A     -0.698212
      22A     -0.694389    23A     -0.687061    24A     -0.662607
      25A     -0.603090    26A     -0.597907    27A     -0.592867
      28A     -0.556033    29A     -0.540288    30A     -0.524219
      31A     -0.502766    32A     -0.350065    33A     -0.349487

  @DF-RHF Final Energy:  -467.61107362688125

   => Energetics <=

    Nuclear Repulsion Energy =            420.4718123386300590
    One-Electron Energy =               -1475.4514852423271805
    Two-Electron Energy =                 587.3685992768157575
    Total Energy =                       -467.6110736268813071
  Basis Set: (AUG-CC-PVTZ AUX)
    Blend: AUG-CC-PVTZ-RI
    Molecular point group: c1

    Geometry (in Angstrom), charge = 0, multiplicity = 1:

       Center              X                  Y                   Z               Mass
    ------------   -----------------  -----------------  -----------------  -----------------
         F            1.311573042761     2.356897348919    -0.001940882972    18.998403162730
         F            1.311579042761    -2.356911651081    -0.001939882972    18.998403162730
         C           -1.461353957239    -0.000009651081    -0.021345882972    12.000000000000
         C           -0.753649957239    -1.207964651081    -0.013546882972    12.000000000000
         C           -0.753651957239     1.207945348919    -0.013545882972    12.000000000000
         C           -2.967551957239    -0.000011651081     0.008070117028    12.000000000000
         C            0.635046042761     1.180546348919    -0.003812882972    12.000000000000
         C            0.635048042761    -1.180561651081    -0.003813882972    12.000000000000
         C            1.366353242761     0.000083748919     0.052730917028    12.000000000000
         H           -1.266045957239    -2.165825651081    -0.022532882972     1.007825032230
         H           -1.266049957239     2.165806348919    -0.022531882972     1.007825032230
         H           -3.338495957239     0.000003348919     1.038497117028     1.007825032230
         H           -3.369634957239     0.885578348919    -0.491205882972     1.007825032230
         H           -3.369632957239    -0.885617651081    -0.491178882972     1.007825032230
         H            2.450780042761    -0.000006651081     0.005722117028     1.007825032230

  Basis Set: AUG-CC-PVTZ
    Blend: AUG-CC-PVTZ
  Basis Set: (AUG-CC-PVTZ AUX)
    Blend: AUG-CC-PVTZ-JKFIT
	 Reference Energy          =    -467.6110736268812502 [Eh]
	 Singles Energy            =      -0.0000000000000000 [Eh]
	 Same-Spin Energy          =      -0.4451039530514203 [Eh]
	 Opposite-Spin Energy      =      -1.3528765067726343 [Eh]
	 Correlation Energy        =      -1.7979804598240545 [Eh]
	 Total Energy              =    -469.4090540867052823 [Eh]

	 ================> DF-SCS-MP2 Energies <==================
	-----------------------------------------------------------
	 SCS Same-Spin Scale       =       0.3333333333333333 [-]
	 SCS Opposite-Spin Scale   =       1.2000000000000000 [-]
	 SCS Same-Spin Energy      =      -0.1483679843504734 [Eh]
	 SCS Opposite-Spin Energy  =      -1.6234518081271612 [Eh]
	 SCS Correlation Energy    =      -1.7718197924776347 [Eh]
	 SCS Total Energy          =    -469.3828934193588793 [Eh]
	-----------------------------------------------------------

  Dipole Moment: [D]
     X:    -2.0516      Y:    -0.0002      Z:     0.0058     Total:     2.0516

*** Psi4 exiting successfully. Buy a developer a beer!
