                               Psi4 1.3.2 release

  ==> Input File <==

--------------------------------------------------------------------------
#psi4
#
memory 32 gb

molecule  {
0 1
  F        1.4077440     2.3569060     0.0024490
  F        1.4077500    -2.3569030     0.0024500
  C       -1.3651830    -0.0000010    -0.0169560
  C       -0.6574790    -1.2079560    -0.0091570
  C       -0.6574810     1.2079540    -0.0091560
  C       -2.8699165    -0.0000031     0.1624529
  C        0.7312170     1.1805550     0.0005770
  C        0.7312190    -1.1805530     0.0005760
  C        1.4628560     0.0000010     0.0071220
  H       -1.1698750    -2.1658170    -0.0181430
  H       -1.1698790     2.1658150    -0.0181420
  H       -3.2423250     0.0000120     1.0428870
  H       -3.2734640     0.8855870    -0.4868160
  H       -3.2734620    -0.8856090    -0.4867890
  H        2.5469510     0.0000020     0.0101120
units angstrom
no_reorient  #important for SAPT in psi4, default
symmetry c1  #important for SAPT in psi4, default
}

set PROPERTIES_ORIGIN ["COM"]
properties('MP2/aug-cc-pvtz', properties = ['dipole'])
--------------------------------------------------------------------------

    Molecular point group: c1
  Charge       = 0
  Multiplicity = 1
  Basis Set: AUG-CC-PVTZ
    Blend: AUG-CC-PVTZ
  Basis Set: (AUG-CC-PVTZ AUX)
    Blend: AUG-CC-PVTZ-JKFIT

    Orbital Energies [Eh]
    ---------------------

    Doubly Occupied:

       1A    -26.317446     2A    -26.317445     3A    -11.346319
       4A    -11.346314     5A    -11.275402     6A    -11.253037
       7A    -11.247325     8A    -11.247288     9A    -11.243973
      10A     -1.630781    11A     -1.630232    12A     -1.180190
      13A     -1.070480    14A     -1.033043    15A     -0.965465
      16A     -0.863280    17A     -0.846469    18A     -0.756797
      19A     -0.740685    20A     -0.702656    21A     -0.699278
      22A     -0.694700    23A     -0.686444    24A     -0.664106
      25A     -0.632634    26A     -0.597359    27A     -0.589034
      28A     -0.552960    29A     -0.527731    30A     -0.508988
      31A     -0.502126    32A     -0.352407    33A     -0.349834

  @DF-RHF Final Energy:  -467.58413948479199

   => Energetics <=

    Nuclear Repulsion Energy =            420.4323129317419330
    One-Electron Energy =               -1475.2884495201737991
    Two-Electron Energy =                 587.2719971036398192
    Total Energy =                       -467.5841394847919901
  Basis Set: (AUG-CC-PVTZ AUX)
    Blend: AUG-CC-PVTZ-RI
    Molecular point group: c1

    Geometry (in Angstrom), charge = 0, multiplicity = 1:

       Center              X                  Y                   Z               Mass
    ------------   -----------------  -----------------  -----------------  -----------------
         F            1.311404697185     2.356905924112    -0.011312126308    18.998403162730
         F            1.311410697185    -2.356903075888    -0.011311126308    18.998403162730
         C           -1.461522302815    -0.000001075888    -0.030717126308    12.000000000000
         C           -0.753818302815    -1.207956075888    -0.022918126308    12.000000000000
         C           -0.753820302815     1.207953924112    -0.022917126308    12.000000000000
         C           -2.966255802815    -0.000003175888     0.148691773692    12.000000000000
         C            0.634877697185     1.180554924112    -0.013184126308    12.000000000000
         C            0.634879697185    -1.180553075888    -0.013185126308    12.000000000000
         C            1.366516697185     0.000000924112    -0.006639126308    12.000000000000
         H           -1.266214302815    -2.165817075888    -0.031904126308     1.007825032230
         H           -1.266218302815     2.165814924112    -0.031903126308     1.007825032230
         H           -3.338664302815     0.000011924112     1.029125873692     1.007825032230
         H           -3.369803302815     0.885586924112    -0.500577126308     1.007825032230
         H           -3.369801302815    -0.885609075888    -0.500550126308     1.007825032230
         H            2.450611697185     0.000001924112    -0.003649126308     1.007825032230

  Basis Set: AUG-CC-PVTZ
    Blend: AUG-CC-PVTZ
  Basis Set: (AUG-CC-PVTZ AUX)
    Blend: AUG-CC-PVTZ-JKFIT
	 Reference Energy          =    -467.5841394847919901 [Eh]
	 Singles Energy            =      -0.0000000000000000 [Eh]
	 Same-Spin Energy          =      -0.4454512458660621 [Eh]
	 Opposite-Spin Energy      =      -1.3540981284460476 [Eh]
	 Correlation Energy        =      -1.7995493743121096 [Eh]
	 Total Energy              =    -469.3836888591040974 [Eh]

	 ================> DF-SCS-MP2 Energies <==================
	-----------------------------------------------------------
	 SCS Same-Spin Scale       =       0.3333333333333333 [-]
	 SCS Opposite-Spin Scale   =       1.2000000000000000 [-]
	 SCS Same-Spin Energy      =      -0.1484837486220207 [Eh]
	 SCS Opposite-Spin Energy  =      -1.6249177541352571 [Eh]
	 SCS Correlation Energy    =      -1.7734015027572778 [Eh]
	 SCS Total Energy          =    -469.3575409875492710 [Eh]
	-----------------------------------------------------------

  Dipole Moment: [D]
     X:    -1.9259      Y:     0.0000      Z:     0.0824     Total:     1.9276

*** Psi4 exiting successfully. Buy a developer a beer!
