                               Psi4 1.3.2 release

  ==> Input File <==

--------------------------------------------------------------------------
#psi4
#
memory 32 gb

molecule  {
0 1
  F        1.4077440     2.3569060     0.0024490
  F        1.4077500    -2.3569030     0.0024500
  C       -1.3651830    -0.0000010    -0.0169560
  C       -0.6574790    -1.2079560    -0.0091570
  C       -0.6574810     1.2079540    -0.0091560
  C       -2.8713810    -0.0000030     0.0124600
  C        0.7312170     1.1805550     0.0005770
  C        0.7312190    -1.1805530     0.0005760
  C        1.4618606     0.0002751     0.1571184
  H       -1.1698750    -2.1658170    -0.0181430
  H       -1.1698790     2.1658150    -0.0181420
  H       -3.2423250     0.0000120     1.0428870
  H       -3.2734640     0.8855870    -0.4868160
  H       -3.2734620    -0.8856090    -0.4867890
  H        2.5469510     0.0000020     0.0101120
units angstrom
no_reorient  #important for SAPT in psi4, default
symmetry c1  #important for SAPT in psi4, default
}

set PROPERTIES_ORIGIN ["COM"]
properties('MP2/aug-cc-pvtz', properties = ['dipole'])
--------------------------------------------------------------------------

    Molecular point group: c1
  Charge       = 0
  Multiplicity = 1
  Basis Set: AUG-CC-PVTZ
    Blend: AUG-CC-PVTZ
  Basis Set: (AUG-CC-PVTZ AUX)
    Blend: AUG-CC-PVTZ-JKFIT

    Orbital Energies [Eh]
    ---------------------

    Doubly Occupied:

       1A    -26.317544     2A    -26.317509     3A    -11.347930
       4A    -11.347872     5A    -11.275749     6A    -11.253335
       7A    -11.246390     8A    -11.246354     9A    -11.242394
      10A     -1.630762    11A     -1.630216    12A     -1.179176
      13A     -1.069658    14A     -1.032547    15A     -0.963014
      16A     -0.861767    17A     -0.844299    18A     -0.754212
      19A     -0.740209    20A     -0.702248    21A     -0.696499
      22A     -0.695141    23A     -0.686377    24A     -0.662696
      25A     -0.602546    26A     -0.595322    27A     -0.593441
      28A     -0.554988    29A     -0.540666    30A     -0.524261
      31A     -0.501386    32A     -0.350266    33A     -0.349238

  @DF-RHF Final Energy:  -467.60545498085520

   => Energetics <=

    Nuclear Repulsion Energy =            420.2186082396941060
    One-Electron Energy =               -1474.9361064584115866
    Two-Electron Energy =                 587.1120432378622809
    Total Energy =                       -467.6054549808552565
  Basis Set: (AUG-CC-PVTZ AUX)
    Blend: AUG-CC-PVTZ-RI
    Molecular point group: c1

    Geometry (in Angstrom), charge = 0, multiplicity = 1:

       Center              X                  Y                   Z               Mass
    ------------   -----------------  -----------------  -----------------  -----------------
         F            1.311635234001     2.356880226647    -0.011312454321    18.998403162730
         F            1.311641234001    -2.356928773353    -0.011311454321    18.998403162730
         C           -1.461291765999    -0.000026773353    -0.030717454321    12.000000000000
         C           -0.753587765999    -1.207981773353    -0.022918454321    12.000000000000
         C           -0.753589765999     1.207928226647    -0.022917454321    12.000000000000
         C           -2.967489765999    -0.000028773353    -0.001301454321    12.000000000000
         C            0.635108234001     1.180529226647    -0.013184454321    12.000000000000
         C            0.635110234001    -1.180578773353    -0.013185454321    12.000000000000
         C            1.365751834001     0.000249326647     0.143356945679    12.000000000000
         H           -1.265983765999    -2.165842773353    -0.031904454321     1.007825032230
         H           -1.265987765999     2.165789226647    -0.031903454321     1.007825032230
         H           -3.338433765999    -0.000013773353     1.029125545679     1.007825032230
         H           -3.369572765999     0.885561226647    -0.500577454321     1.007825032230
         H           -3.369570765999    -0.885634773353    -0.500550454321     1.007825032230
         H            2.450842234001    -0.000023773353    -0.003649454321     1.007825032230

  Basis Set: AUG-CC-PVTZ
    Blend: AUG-CC-PVTZ
  Basis Set: (AUG-CC-PVTZ AUX)
    Blend: AUG-CC-PVTZ-JKFIT
	 Reference Energy          =    -467.6054549808551997 [Eh]
	 Singles Energy            =      -0.0000000000000000 [Eh]
	 Same-Spin Energy          =      -0.4453806870223550 [Eh]
	 Opposite-Spin Energy      =      -1.3536482233228146 [Eh]
	 Correlation Energy        =      -1.7990289103451698 [Eh]
	 Total Energy              =    -469.4044838912003570 [Eh]

	 ================> DF-SCS-MP2 Energies <==================
	-----------------------------------------------------------
	 SCS Same-Spin Scale       =       0.3333333333333333 [-]
	 SCS Opposite-Spin Scale   =       1.2000000000000000 [-]
	 SCS Same-Spin Energy      =      -0.1484602290074516 [Eh]
	 SCS Opposite-Spin Energy  =      -1.6243778679873775 [Eh]
	 SCS Correlation Energy    =      -1.7728380969948292 [Eh]
	 SCS Total Energy          =    -469.3782930778500031 [Eh]
	-----------------------------------------------------------

  Dipole Moment: [D]
     X:    -2.1008      Y:    -0.0004      Z:    -0.0510     Total:     2.1014

*** Psi4 exiting successfully. Buy a developer a beer!
