                               Psi4 1.3.2 release

  ==> Input File <==

--------------------------------------------------------------------------
#psi4
#
memory 32 gb

molecule  {
0 1
  F        1.4077440     2.3569060     0.0024490
  F        1.4077500    -2.3569030     0.0024500
  C       -1.3651830    -0.0000010    -0.0169560
  C       -0.6574790    -1.2079560    -0.0091570
  C       -0.6574810     1.2079540    -0.0091560
  C       -2.8713810    -0.0000030     0.0124600
  C        0.7312170     1.1805550     0.0005770
  C        0.7312190    -1.1805530     0.0005760
  C        1.4615288     0.0003665     0.2071173
  H       -1.1698750    -2.1658170    -0.0181430
  H       -1.1698790     2.1658150    -0.0181420
  H       -3.2423250     0.0000120     1.0428870
  H       -3.2734640     0.8855870    -0.4868160
  H       -3.2734620    -0.8856090    -0.4867890
  H        2.5469510     0.0000020     0.0101120
units angstrom
no_reorient  #important for SAPT in psi4, default
symmetry c1  #important for SAPT in psi4, default
}

set PROPERTIES_ORIGIN ["COM"]
properties('MP2/aug-cc-pvtz', properties = ['dipole'])
--------------------------------------------------------------------------

    Molecular point group: c1
  Charge       = 0
  Multiplicity = 1
  Basis Set: AUG-CC-PVTZ
    Blend: AUG-CC-PVTZ
  Basis Set: (AUG-CC-PVTZ AUX)
    Blend: AUG-CC-PVTZ-JKFIT

    Orbital Energies [Eh]
    ---------------------

    Doubly Occupied:

       1A    -26.317895     2A    -26.317848     3A    -11.349343
       4A    -11.349269     5A    -11.276749     6A    -11.254664
       7A    -11.246391     8A    -11.246354     9A    -11.242848
      10A     -1.631048    11A     -1.630505    12A     -1.178765
      13A     -1.068940    14A     -1.032623    15A     -0.962879
      16A     -0.860882    17A     -0.844479    18A     -0.754108
      19A     -0.739763    20A     -0.702305    21A     -0.695693
      22A     -0.695139    23A     -0.685879    24A     -0.662782
      25A     -0.602104    26A     -0.594050    27A     -0.592995
      28A     -0.554041    29A     -0.540988    30A     -0.524262
      31A     -0.500211    32A     -0.350453    33A     -0.349040

  @DF-RHF Final Energy:  -467.60049520365385

   => Energetics <=

    Nuclear Repulsion Energy =            420.0016768653119357
    One-Electron Energy =               -1474.4937542972450046
    Two-Electron Energy =                 586.8915822282791623
    Total Energy =                       -467.6004952036538498
  Basis Set: (AUG-CC-PVTZ AUX)
    Blend: AUG-CC-PVTZ-RI
    Molecular point group: c1

    Geometry (in Angstrom), charge = 0, multiplicity = 1:

       Center              X                  Y                   Z               Mass
    ------------   -----------------  -----------------  -----------------  -----------------
         F            1.311666329621     2.356871660825    -0.015998249367    18.998403162730
         F            1.311672329621    -2.356937339175    -0.015997249367    18.998403162730
         C           -1.461260670379    -0.000035339175    -0.035403249367    12.000000000000
         C           -0.753556670379    -1.207990339175    -0.027604249367    12.000000000000
         C           -0.753558670379     1.207919660825    -0.027603249367    12.000000000000
         C           -2.967458670379    -0.000037339175    -0.005987249367    12.000000000000
         C            0.635139329621     1.180520660825    -0.017870249367    12.000000000000
         C            0.635141329621    -1.180587339175    -0.017871249367    12.000000000000
         C            1.365451129621     0.000332160825     0.188670050633    12.000000000000
         H           -1.265952670379    -2.165851339175    -0.036590249367     1.007825032230
         H           -1.265956670379     2.165780660825    -0.036589249367     1.007825032230
         H           -3.338402670379    -0.000022339175     1.024439750633     1.007825032230
         H           -3.369541670379     0.885552660825    -0.505263249367     1.007825032230
         H           -3.369539670379    -0.885643339175    -0.505236249367     1.007825032230
         H            2.450873329621    -0.000032339175    -0.008335249367     1.007825032230

  Basis Set: AUG-CC-PVTZ
    Blend: AUG-CC-PVTZ
  Basis Set: (AUG-CC-PVTZ AUX)
    Blend: AUG-CC-PVTZ-JKFIT
	 Reference Energy          =    -467.6004952036538498 [Eh]
	 Singles Energy            =      -0.0000000000000000 [Eh]
	 Same-Spin Energy          =      -0.4456148107609152 [Eh]
	 Opposite-Spin Energy      =      -1.3543633204908723 [Eh]
	 Correlation Energy        =      -1.7999781312517875 [Eh]
	 Total Energy              =    -469.4004733349056551 [Eh]

	 ================> DF-SCS-MP2 Energies <==================
	-----------------------------------------------------------
	 SCS Same-Spin Scale       =       0.3333333333333333 [-]
	 SCS Opposite-Spin Scale   =       1.2000000000000000 [-]
	 SCS Same-Spin Energy      =      -0.1485382702536384 [Eh]
	 SCS Opposite-Spin Energy  =      -1.6252359845890467 [Eh]
	 SCS Correlation Energy    =      -1.7737742548426851 [Eh]
	 SCS Total Energy          =    -469.3742694584965420 [Eh]
	-----------------------------------------------------------

  Dipole Moment: [D]
     X:    -2.1433      Y:    -0.0006      Z:    -0.0808     Total:     2.1448

*** Psi4 exiting successfully. Buy a developer a beer!
