                               Psi4 1.3.2 release

  ==> Input File <==

--------------------------------------------------------------------------
#psi4
#
memory 32 gb

molecule  {
0 1
  F        1.4077440     2.3569060     0.0024490
  F        1.4077500    -2.3569030     0.0024500
  C       -1.3651830    -0.0000010    -0.0169560
  C       -0.6574790    -1.2079560    -0.0091570
  C       -0.6574810     1.2079540    -0.0091560
  C       -2.8689401    -0.0000031     0.2624481
  C        0.7312170     1.1805550     0.0005770
  C        0.7312190    -1.1805530     0.0005760
  C        1.4628560     0.0000010     0.0071220
  H       -1.1698750    -2.1658170    -0.0181430
  H       -1.1698790     2.1658150    -0.0181420
  H       -3.2423250     0.0000120     1.0428870
  H       -3.2734640     0.8855870    -0.4868160
  H       -3.2734620    -0.8856090    -0.4867890
  H        2.5469510     0.0000020     0.0101120
units angstrom
no_reorient  #important for SAPT in psi4, default
symmetry c1  #important for SAPT in psi4, default
}

set PROPERTIES_ORIGIN ["COM"]
properties('MP2/aug-cc-pvtz', properties = ['dipole'])
--------------------------------------------------------------------------

    Molecular point group: c1
  Charge       = 0
  Multiplicity = 1
  Basis Set: AUG-CC-PVTZ
    Blend: AUG-CC-PVTZ
  Basis Set: (AUG-CC-PVTZ AUX)
    Blend: AUG-CC-PVTZ-JKFIT

    Orbital Energies [Eh]
    ---------------------

    Doubly Occupied:

       1A    -26.317999     2A    -26.317999     3A    -11.346927
       4A    -11.346922     5A    -11.278388     6A    -11.254391
       7A    -11.249113     8A    -11.248430     9A    -11.248393
      10A     -1.631341    11A     -1.630790    12A     -1.180863
      13A     -1.070768    14A     -1.033851    15A     -0.971362
      16A     -0.863869    17A     -0.851562    18A     -0.761751
      19A     -0.741061    20A     -0.703265    21A     -0.700372
      22A     -0.695279    23A     -0.686575    24A     -0.670183
      25A     -0.648600    26A     -0.596129    27A     -0.583103
      28A     -0.553189    29A     -0.531545    30A     -0.496938
      31A     -0.485607    32A     -0.353092    33A     -0.350467

  @DF-RHF Final Energy:  -467.52671762625897

   => Energetics <=

    Nuclear Repulsion Energy =            420.3277883085572739
    One-Electron Energy =               -1474.9087640297996131
    Two-Electron Energy =                 587.0542580949833109
    Total Energy =                       -467.5267176262590283
  Basis Set: (AUG-CC-PVTZ AUX)
    Blend: AUG-CC-PVTZ-RI
    Molecular point group: c1

    Geometry (in Angstrom), charge = 0, multiplicity = 1:

       Center              X                  Y                   Z               Mass
    ------------   -----------------  -----------------  -----------------  -----------------
         F            1.311313190966     2.356905924112    -0.020683472734    18.998403162730
         F            1.311319190966    -2.356903075888    -0.020682472734    18.998403162730
         C           -1.461613809034    -0.000001075888    -0.040088472734    12.000000000000
         C           -0.753909809034    -1.207956075888    -0.032289472734    12.000000000000
         C           -0.753911809034     1.207953924112    -0.032288472734    12.000000000000
         C           -2.965370909034    -0.000003175888     0.239315627266    12.000000000000
         C            0.634786190966     1.180554924112    -0.022555472734    12.000000000000
         C            0.634788190966    -1.180553075888    -0.022556472734    12.000000000000
         C            1.366425190966     0.000000924112    -0.016010472734    12.000000000000
         H           -1.266305809034    -2.165817075888    -0.041275472734     1.007825032230
         H           -1.266309809034     2.165814924112    -0.041274472734     1.007825032230
         H           -3.338755809034     0.000011924112     1.019754527266     1.007825032230
         H           -3.369894809034     0.885586924112    -0.509948472734     1.007825032230
         H           -3.369892809034    -0.885609075888    -0.509921472734     1.007825032230
         H            2.450520190966     0.000001924112    -0.013020472734     1.007825032230

  Basis Set: AUG-CC-PVTZ
    Blend: AUG-CC-PVTZ
  Basis Set: (AUG-CC-PVTZ AUX)
    Blend: AUG-CC-PVTZ-JKFIT
	 Reference Energy          =    -467.5267176262589714 [Eh]
	 Singles Energy            =      -0.0000000000000000 [Eh]
	 Same-Spin Energy          =      -0.4460910747264461 [Eh]
	 Opposite-Spin Energy      =      -1.3563594052767665 [Eh]
	 Correlation Energy        =      -1.8024504800032126 [Eh]
	 Total Energy              =    -469.3291681062621592 [Eh]

	 ================> DF-SCS-MP2 Energies <==================
	-----------------------------------------------------------
	 SCS Same-Spin Scale       =       0.3333333333333333 [-]
	 SCS Opposite-Spin Scale   =       1.2000000000000000 [-]
	 SCS Same-Spin Energy      =      -0.1486970249088154 [Eh]
	 SCS Opposite-Spin Energy  =      -1.6276312863321196 [Eh]
	 SCS Correlation Energy    =      -1.7763283112409349 [Eh]
	 SCS Total Energy          =    -469.3030459374999168 [Eh]
	-----------------------------------------------------------

  Dipole Moment: [D]
     X:    -1.7999      Y:     0.0000      Z:     0.0926     Total:     1.8023

*** Psi4 exiting successfully. Buy a developer a beer!
