                               Psi4 1.3.2 release

  ==> Input File <==

--------------------------------------------------------------------------
#psi4
#
memory 32 gb

molecule  {
0 1
  F        1.4077440     2.3569060     0.0024490
  F        1.4077500    -2.3569030     0.0024500
  C       -1.3651830    -0.0000010    -0.0169560
  C       -0.6574790    -1.2079560    -0.0091570
  C       -0.6574810     1.2079540    -0.0091560
  C       -2.8704046    -0.0000030     0.1124552
  C        0.7312170     1.1805550     0.0005770
  C        0.7312190    -1.1805530     0.0005760
  C        1.4628560     0.0000010     0.0071220
  H       -1.1698750    -2.1658170    -0.0181430
  H       -1.1698790     2.1658150    -0.0181420
  H       -3.2423250     0.0000120     1.0428870
  H       -3.2734640     0.8855870    -0.4868160
  H       -3.2734620    -0.8856090    -0.4867890
  H        2.5469510     0.0000020     0.0101120
units angstrom
no_reorient  #important for SAPT in psi4, default
symmetry c1  #important for SAPT in psi4, default
}

set PROPERTIES_ORIGIN ["COM"]
properties('MP2/aug-cc-pvtz', properties = ['dipole'])
--------------------------------------------------------------------------

    Molecular point group: c1
  Charge       = 0
  Multiplicity = 1
  Basis Set: AUG-CC-PVTZ
    Blend: AUG-CC-PVTZ
  Basis Set: (AUG-CC-PVTZ AUX)
    Blend: AUG-CC-PVTZ-JKFIT

    Orbital Energies [Eh]
    ---------------------

    Doubly Occupied:

       1A    -26.317263     2A    -26.317263     3A    -11.346141
       4A    -11.346136     5A    -11.274628     6A    -11.252472
       7A    -11.246931     8A    -11.246893     9A    -11.242533
      10A     -1.630593    11A     -1.630044    12A     -1.179973
      13A     -1.070466    14A     -1.032772    15A     -0.964016
      16A     -0.863111    17A     -0.845066    18A     -0.755410
      19A     -0.740638    20A     -0.702440    21A     -0.698906
      22A     -0.694502    23A     -0.686553    24A     -0.663076
      25A     -0.620801    26A     -0.598587    27A     -0.591677
      28A     -0.553247    29A     -0.526026    30A     -0.520521
      31A     -0.503663    32A     -0.351812    33A     -0.349648

  @DF-RHF Final Energy:  -467.60000376057235

   => Energetics <=

    Nuclear Repulsion Energy =            420.4709183647987061
    One-Electron Energy =               -1475.4142346718006138
    Two-Electron Energy =                 587.3433125464295017
    Total Energy =                       -467.6000037605723492
  Basis Set: (AUG-CC-PVTZ AUX)
    Blend: AUG-CC-PVTZ-RI
    Molecular point group: c1

    Geometry (in Angstrom), charge = 0, multiplicity = 1:

       Center              X                  Y                   Z               Mass
    ------------   -----------------  -----------------  -----------------  -----------------
         F            1.311450440922     2.356905914740    -0.006626443723    18.998403162730
         F            1.311456440922    -2.356903085260    -0.006625443723    18.998403162730
         C           -1.461476559078    -0.000001085260    -0.026031443723    12.000000000000
         C           -0.753772559078    -1.207956085260    -0.018232443723    12.000000000000
         C           -0.753774559078     1.207953914740    -0.018231443723    12.000000000000
         C           -2.966698159078    -0.000003085260     0.103379756277    12.000000000000
         C            0.634923440922     1.180554914740    -0.008498443723    12.000000000000
         C            0.634925440922    -1.180553085260    -0.008499443723    12.000000000000
         C            1.366562440922     0.000000914740    -0.001953443723    12.000000000000
         H           -1.266168559078    -2.165817085260    -0.027218443723     1.007825032230
         H           -1.266172559078     2.165814914740    -0.027217443723     1.007825032230
         H           -3.338618559078     0.000011914740     1.033811556277     1.007825032230
         H           -3.369757559078     0.885586914740    -0.495891443723     1.007825032230
         H           -3.369755559078    -0.885609085260    -0.495864443723     1.007825032230
         H            2.450657440922     0.000001914740     0.001036556277     1.007825032230

  Basis Set: AUG-CC-PVTZ
    Blend: AUG-CC-PVTZ
  Basis Set: (AUG-CC-PVTZ AUX)
    Blend: AUG-CC-PVTZ-JKFIT
	 Reference Energy          =    -467.6000037605723492 [Eh]
	 Singles Energy            =      -0.0000000000000000 [Eh]
	 Same-Spin Energy          =      -0.4452508382391818 [Eh]
	 Opposite-Spin Energy      =      -1.3534034641986199 [Eh]
	 Correlation Energy        =      -1.7986543024378017 [Eh]
	 Total Energy              =    -469.3986580630101457 [Eh]

	 ================> DF-SCS-MP2 Energies <==================
	-----------------------------------------------------------
	 SCS Same-Spin Scale       =       0.3333333333333333 [-]
	 SCS Opposite-Spin Scale   =       1.2000000000000000 [-]
	 SCS Same-Spin Energy      =      -0.1484169460797273 [Eh]
	 SCS Opposite-Spin Energy  =      -1.6240841570383437 [Eh]
	 SCS Correlation Energy    =      -1.7725011031180711 [Eh]
	 SCS Total Energy          =    -469.3725048636904376 [Eh]
	-----------------------------------------------------------

  Dipole Moment: [D]
     X:    -1.9745      Y:     0.0000      Z:     0.0704     Total:     1.9757

*** Psi4 exiting successfully. Buy a developer a beer!
