                               Psi4 1.3.2 release

  ==> Input File <==

--------------------------------------------------------------------------
#psi4
#
memory 32 gb

molecule  {
0 1
  O       -0.2992330     0.0680890    -1.4276520
  O        1.1877390     1.7321380     1.3773370
  O        0.9070540     2.3739560    -0.7854760
  O        2.2997900    -2.4217320    -0.0198770
  O       -3.4576290     0.0760600    -0.5562400
  O        2.6367540    -0.2338110    -0.4932570
  O       -2.4353810    -1.6060190     0.5619510
  C       -0.1069590     0.3116290    -0.0442930
  C        0.5596730    -0.9208470     0.5522810
  C       -1.4701600     0.6204770     0.6141540
  C        0.7355057     1.5446964     0.1190211
  C        1.9236380    -1.1208730    -0.0515330
  C       -2.4761190    -0.4337210     0.2256320
  H       -0.0681530    -1.7945710     0.3697710
  H        0.6733550    -0.8157800     1.6370670
  H       -1.8203350     1.5970450     0.2687060
  H       -1.3720190     0.6392280     1.7041070
  H       -0.0402350     0.8946720    -1.8856460
  H        1.6977260     2.5694770     1.3788080
  H        3.2012140    -2.4469230    -0.4041650
  H       -4.0405490    -0.6812350    -0.7753220
units angstrom
no_reorient  #important for SAPT in psi4, default
symmetry c1  #important for SAPT in psi4, default
}

set PROPERTIES_ORIGIN ["COM"]
properties('MP2/aug-cc-pvtz', properties = ['dipole'])
--------------------------------------------------------------------------

    Molecular point group: c1
  Charge       = 0
  Multiplicity = 1
  Basis Set: AUG-CC-PVTZ
    Blend: AUG-CC-PVTZ
  Basis Set: (AUG-CC-PVTZ AUX)
    Blend: AUG-CC-PVTZ-JKFIT

    Orbital Energies [Eh]
    ---------------------

    Doubly Occupied:

       1A    -20.638587     2A    -20.627649     3A    -20.625573
       4A    -20.579325     5A    -20.568554     6A    -20.563559
       7A    -20.561635     8A    -11.413613     9A    -11.407308
      10A    -11.403098    11A    -11.341752    12A    -11.274903
      13A    -11.263467    14A     -1.482521    15A     -1.473197
      16A     -1.470584    17A     -1.398553    18A     -1.369861
      19A     -1.368077    20A     -1.361579    21A     -1.120491
      22A     -1.040414    23A     -0.958205    24A     -0.854554
      25A     -0.831402    26A     -0.797715    27A     -0.760852
      28A     -0.726727    29A     -0.718715    30A     -0.716780
      31A     -0.705281    32A     -0.691721    33A     -0.670263
      34A     -0.653458    35A     -0.643162    36A     -0.636577
      37A     -0.621114    38A     -0.605324    39A     -0.595642
      40A     -0.580984    41A     -0.563090    42A     -0.560800
      43A     -0.545473    44A     -0.501006    45A     -0.495494
      46A     -0.490569    47A     -0.485254    48A     -0.473290
      49A     -0.466196    50A     -0.453973

  @DF-RHF Final Energy:  -756.25507316569235

   => Energetics <=

    Nuclear Repulsion Energy =            874.8433565514657175
    One-Electron Energy =               -2777.8810103232904112
    Two-Electron Energy =                1146.7825806061325693
    Total Energy =                       -756.2550731656922380
  Basis Set: (AUG-CC-PVTZ AUX)
    Blend: AUG-CC-PVTZ-RI
    Molecular point group: c1

    Geometry (in Angstrom), charge = 0, multiplicity = 1:

       Center              X                  Y                   Z               Mass
    ------------   -----------------  -----------------  -----------------  -----------------
         O           -0.307697136893     0.069146635998    -1.416246433771    15.994914619570
         O            1.179274863107     1.733195635998     1.388742566229    15.994914619570
         O            0.898589863107     2.375013635998    -0.774070433771    15.994914619570
         O            2.291325863107    -2.420674364002    -0.008471433771    15.994914619570
         O           -3.466093136893     0.077117635998    -0.544834433771    15.994914619570
         O            2.628289863107    -0.232753364002    -0.481851433771    15.994914619570
         O           -2.443845136893    -1.604961364002     0.573356566229    15.994914619570
         C           -0.115423136893     0.312686635998    -0.032887433771    12.000000000000
         C            0.551208863107    -0.919789364002     0.563686566229    12.000000000000
         C           -1.478624136893     0.621534635998     0.625559566229    12.000000000000
         C            0.727041563107     1.545754035998     0.130426666229    12.000000000000
         C            1.915173863107    -1.119815364002    -0.040127433771    12.000000000000
         C           -2.484583136893    -0.432663364002     0.237037566229    12.000000000000
         H           -0.076617136893    -1.793513364002     0.381176566229     1.007825032230
         H            0.664890863107    -0.814722364002     1.648472566229     1.007825032230
         H           -1.828799136893     1.598102635998     0.280111566229     1.007825032230
         H           -1.380483136893     0.640285635998     1.715512566229     1.007825032230
         H           -0.048699136893     0.895729635998    -1.874240433771     1.007825032230
         H            1.689261863107     2.570534635998     1.390213566229     1.007825032230
         H            3.192749863107    -2.445865364002    -0.392759433771     1.007825032230
         H           -4.049013136893    -0.680177364002    -0.763916433771     1.007825032230

  Basis Set: AUG-CC-PVTZ
    Blend: AUG-CC-PVTZ
  Basis Set: (AUG-CC-PVTZ AUX)
    Blend: AUG-CC-PVTZ-JKFIT
	 Reference Energy          =    -756.2550731656923517 [Eh]
	 Singles Energy            =      -0.0000000000000000 [Eh]
	 Same-Spin Energy          =      -0.7311259661015395 [Eh]
	 Opposite-Spin Energy      =      -2.1626923270347111 [Eh]
	 Correlation Energy        =      -2.8938182931362508 [Eh]
	 Total Energy              =    -759.1488914588286434 [Eh]

	 ================> DF-SCS-MP2 Energies <==================
	-----------------------------------------------------------
	 SCS Same-Spin Scale       =       0.3333333333333333 [-]
	 SCS Opposite-Spin Scale   =       1.2000000000000000 [-]
	 SCS Same-Spin Energy      =      -0.2437086553671798 [Eh]
	 SCS Opposite-Spin Energy  =      -2.5952307924416531 [Eh]
	 SCS Correlation Energy    =      -2.8389394478088330 [Eh]
	 SCS Total Energy          =    -759.0940126135011496 [Eh]
	-----------------------------------------------------------

  Dipole Moment: [D]
     X:    -0.2197      Y:     0.6301      Z:     1.9058     Total:     2.0192

*** Psi4 exiting successfully. Buy a developer a beer!
