                               Psi4 1.4a3.dev225

  ==> Input File <==

--------------------------------------------------------------------------
#psi4
#
memory 32 gb

molecule  {
0 1
  O       -0.2992690     0.0680640    -1.4275900
  O        1.1877140     1.7322170     1.3773330
  O        0.9070830     2.3739170    -0.7855270
  O        2.2997080    -2.4217750    -0.0198700
  O       -3.4574230     0.0760400    -0.5564670
  O        2.6367000    -0.2338780    -0.4933410
  O       -2.4354340    -1.6059620     0.5620860
  C       -0.1069630     0.3116450    -0.0442490
  C        0.5596710    -0.9208170     0.5523550
  C       -1.4701590     0.6204980     0.6142450
  C        0.7433195     1.5515197     0.1272070
  C        1.9235890    -1.1209070    -0.0515450
  C       -2.4760910    -0.4336940     0.2256510
  H       -0.0681940    -1.7945300     0.3699280
  H        0.6734230    -0.8156830     1.6371260
  H       -1.8203340     1.5970830     0.2688470
  H       -1.3719830     0.6391850     1.7041930
  H       -0.0401320     0.8945830    -1.8856220
  H        1.6977060     2.5695530     1.3787680
  H        3.2011100    -2.4470060    -0.4042100
  H       -4.0402960    -0.6812640    -0.7756360
units angstrom
no_reorient  #important for SAPT in psi4, default
symmetry c1  #important for SAPT in psi4, default
}

set PROPERTIES_ORIGIN ["COM"]
properties('MP2/aug-cc-pvtz', properties = ['dipole'])
--------------------------------------------------------------------------

    Molecular point group: c1
  Charge       = 0
  Multiplicity = 1
  Basis Set: AUG-CC-PVTZ
    Blend: AUG-CC-PVTZ
  Basis Set: (AUG-CC-PVTZ AUX)
    Blend: AUG-CC-PVTZ-JKFIT

    Orbital Energies [Eh]
    ---------------------

    Doubly Occupied:

       1A    -20.641642     2A    -20.627248     3A    -20.625392
       4A    -20.578661     5A    -20.567452     6A    -20.563109
       7A    -20.561463     8A    -11.413208     9A    -11.406818
      10A    -11.402859    11A    -11.341356    12A    -11.274178
      13A    -11.262827    14A     -1.487072    15A     -1.472845
      16A     -1.470650    17A     -1.398327    18A     -1.369458
      19A     -1.367918    20A     -1.361871    21A     -1.119087
      22A     -1.039823    23A     -0.956293    24A     -0.855558
      25A     -0.831019    26A     -0.797902    27A     -0.761400
      28A     -0.727633    29A     -0.718680    30A     -0.716572
      31A     -0.705437    32A     -0.691223    33A     -0.669747
      34A     -0.654417    35A     -0.643678    36A     -0.637759
      37A     -0.621404    38A     -0.605157    39A     -0.595655
      40A     -0.580705    41A     -0.562740    42A     -0.560186
      43A     -0.544211    44A     -0.500886    45A     -0.495086
      46A     -0.490419    47A     -0.484731    48A     -0.472592
      49A     -0.465575    50A     -0.453094

  @DF-RHF Final Energy:  -756.25575190214090

   => Energetics <=

    Nuclear Repulsion Energy =            874.7443690892306449
    One-Electron Energy =               -2777.6941915360753228
    Two-Electron Energy =                1146.6940705447038908
    Total Energy =                       -756.2557519021409007
  Basis Set: (AUG-CC-PVTZ AUX)
    Blend: AUG-CC-PVTZ-RI
    Molecular point group: c1

    Geometry (in Angstrom), charge = 0, multiplicity = 1:

       Center              X                  Y                   Z               Mass
    ------------   -----------------  -----------------  -----------------  -----------------
         O           -0.308220110033     0.068696279374    -1.416696341755    15.994914619570
         O            1.178762889967     1.732849279374     1.388226658245    15.994914619570
         O            0.898131889967     2.374549279374    -0.774633341755    15.994914619570
         O            2.290756889967    -2.421142720626    -0.008976341755    15.994914619570
         O           -3.466374110033     0.076672279374    -0.545573341755    15.994914619570
         O            2.627748889967    -0.233245720626    -0.482447341755    15.994914619570
         O           -2.444385110033    -1.605329720626     0.572979658245    15.994914619570
         C           -0.115914110033     0.312277279374    -0.033355341755    12.000000000000
         C            0.550719889967    -0.920184720626     0.563248658245    12.000000000000
         C           -1.479110110033     0.621130279374     0.625138658245    12.000000000000
         C            0.734368389967     1.552151979374     0.138100658245    12.000000000000
         C            1.914637889967    -1.120274720626    -0.040651341755    12.000000000000
         C           -2.485042110033    -0.433061720626     0.236544658245    12.000000000000
         H           -0.077145110033    -1.793897720626     0.380821658245     1.007825032230
         H            0.664471889967    -0.815050720626     1.648019658245     1.007825032230
         H           -1.829285110033     1.597715279374     0.279740658245     1.007825032230
         H           -1.380934110033     0.639817279374     1.715086658245     1.007825032230
         H           -0.049083110033     0.895215279374    -1.874728341755     1.007825032230
         H            1.688754889967     2.570185279374     1.389661658245     1.007825032230
         H            3.192158889967    -2.446373720626    -0.393316341755     1.007825032230
         H           -4.049247110033    -0.680631720626    -0.764742341755     1.007825032230

  Basis Set: AUG-CC-PVTZ
    Blend: AUG-CC-PVTZ
  Basis Set: (AUG-CC-PVTZ AUX)
    Blend: AUG-CC-PVTZ-JKFIT
	 Reference Energy          =    -756.2557519021409007 [Eh]
	 Singles Energy            =      -0.0000000000000000 [Eh]
	 Same-Spin Energy          =      -0.7310068467396471 [Eh]
	 Opposite-Spin Energy      =      -2.1623573203974091 [Eh]
	 Correlation Energy        =      -2.8933641671370562 [Eh]
	 Total Energy              =    -759.1491160692779658 [Eh]

	 ================> DF-SCS-MP2 Energies <==================
	-----------------------------------------------------------
	 SCS Same-Spin Scale       =       0.3333333333333333 [-]
	 SCS Opposite-Spin Scale   =       1.2000000000000000 [-]
	 SCS Same-Spin Energy      =      -0.2436689489132157 [Eh]
	 SCS Opposite-Spin Energy  =      -2.5948287844768907 [Eh]
	 SCS Correlation Energy    =      -2.8384977333901062 [Eh]
	 SCS Total Energy          =    -759.0942496355310141 [Eh]
	-----------------------------------------------------------

  Dipole Moment: [D]
     X:    -0.1728      Y:     0.6711      Z:     1.9682     Total:     2.0866

*** Psi4 exiting successfully. Buy a developer a beer!
