                               Psi4 1.4a3.dev225

  ==> Input File <==

--------------------------------------------------------------------------
#psi4
#
memory 32 gb

molecule  {
0 1
  O       -0.2992690     0.0680640    -1.4275900
  O        1.1877140     1.7322170     1.3773330
  O        0.9070830     2.3739170    -0.7855270
  O        2.2997080    -2.4217750    -0.0198700
  O       -3.4574230     0.0760400    -0.5564670
  O        2.6367000    -0.2338780    -0.4933410
  O       -2.4354340    -1.6059620     0.5620860
  C       -0.1069630     0.3116450    -0.0442490
  C        0.5596710    -0.9208170     0.5523550
  C       -1.4701590     0.6204980     0.6142450
  C        0.7459620     1.5647900     0.1124790
  C        1.8943840    -1.1572346    -0.0334516
  C       -2.4760910    -0.4336940     0.2256510
  H       -0.0681940    -1.7945300     0.3699280
  H        0.6734230    -0.8156830     1.6371260
  H       -1.8203340     1.5970830     0.2688470
  H       -1.3719830     0.6391850     1.7041930
  H       -0.0401320     0.8945830    -1.8856220
  H        1.6977060     2.5695530     1.3787680
  H        3.2011100    -2.4470060    -0.4042100
  H       -4.0402960    -0.6812640    -0.7756360
units angstrom
no_reorient  #important for SAPT in psi4, default
symmetry c1  #important for SAPT in psi4, default
}

set PROPERTIES_ORIGIN ["COM"]
properties('MP2/aug-cc-pvtz', properties = ['dipole'])
--------------------------------------------------------------------------

    Molecular point group: c1
  Charge       = 0
  Multiplicity = 1
  Basis Set: AUG-CC-PVTZ
    Blend: AUG-CC-PVTZ
  Basis Set: (AUG-CC-PVTZ AUX)
    Blend: AUG-CC-PVTZ-JKFIT

    Orbital Energies [Eh]
    ---------------------

    Doubly Occupied:

       1A    -20.636729     2A    -20.633491     3A    -20.627445
       4A    -20.578119     5A    -20.569751     6A    -20.563357
       7A    -20.551490     8A    -11.410584     9A    -11.406994
      10A    -11.406450    11A    -11.342179    12A    -11.274085
      13A    -11.263638    14A     -1.484244    15A     -1.475464
      16A     -1.473028    17A     -1.398544    18A     -1.371183
      19A     -1.368790    20A     -1.340898    21A     -1.119428
      22A     -1.044866    23A     -0.955998    24A     -0.858890
      25A     -0.834309    26A     -0.798095    27A     -0.760352
      28A     -0.727765    29A     -0.718738    30A     -0.714629
      31A     -0.704236    32A     -0.692484    33A     -0.670576
      34A     -0.655691    35A     -0.644434    36A     -0.637919
      37A     -0.622678    38A     -0.601228    39A     -0.596414
      40A     -0.574234    41A     -0.563682    42A     -0.560542
      43A     -0.546175    44A     -0.503898    45A     -0.495313
      46A     -0.485648    47A     -0.476072    48A     -0.469548
      49A     -0.462956    50A     -0.452485

  @DF-RHF Final Energy:  -756.25057111312083

   => Energetics <=

    Nuclear Repulsion Energy =            874.4584758988389694
    One-Electron Energy =               -2777.1666050258986616
    Two-Electron Energy =                1146.4575580139387512
    Total Energy =                       -756.2505711131209409
  Basis Set: (AUG-CC-PVTZ AUX)
    Blend: AUG-CC-PVTZ-RI
    Molecular point group: c1

    Geometry (in Angstrom), charge = 0, multiplicity = 1:

       Center              X                  Y                   Z               Mass
    ------------   -----------------  -----------------  -----------------  -----------------
         O           -0.306560187232     0.070137157981    -1.416906649678    15.994914619570
         O            1.180422812768     1.734290157981     1.388016350322    15.994914619570
         O            0.899791812768     2.375990157981    -0.774843649678    15.994914619570
         O            2.292416812768    -2.419701842019    -0.009186649678    15.994914619570
         O           -3.464714187232     0.078113157981    -0.545783649678    15.994914619570
         O            2.629408812768    -0.231804842019    -0.482657649678    15.994914619570
         O           -2.442725187232    -1.603888842019     0.572769350322    15.994914619570
         C           -0.114254187232     0.313718157981    -0.033565649678    12.000000000000
         C            0.552379812768    -0.918743842019     0.563038350322    12.000000000000
         C           -1.477450187232     0.622571157981     0.624928350322    12.000000000000
         C            0.738670812768     1.566863157981     0.123162350322    12.000000000000
         C            1.887092812768    -1.155161442019    -0.022768249678    12.000000000000
         C           -2.483382187232    -0.431620842019     0.236334350322    12.000000000000
         H           -0.075485187232    -1.792456842019     0.380611350322     1.007825032230
         H            0.666131812768    -0.813609842019     1.647809350322     1.007825032230
         H           -1.827625187232     1.599156157981     0.279530350322     1.007825032230
         H           -1.379274187232     0.641258157981     1.714876350322     1.007825032230
         H           -0.047423187232     0.896656157981    -1.874938649678     1.007825032230
         H            1.690414812768     2.571626157981     1.389451350322     1.007825032230
         H            3.193818812768    -2.444932842019    -0.393526649678     1.007825032230
         H           -4.047587187232    -0.679190842019    -0.764952649678     1.007825032230

  Basis Set: AUG-CC-PVTZ
    Blend: AUG-CC-PVTZ
  Basis Set: (AUG-CC-PVTZ AUX)
    Blend: AUG-CC-PVTZ-JKFIT
	 Reference Energy          =    -756.2505711131208272 [Eh]
	 Singles Energy            =      -0.0000000000000000 [Eh]
	 Same-Spin Energy          =      -0.7315158606237433 [Eh]
	 Opposite-Spin Energy      =      -2.1632375298104849 [Eh]
	 Correlation Energy        =      -2.8947533904342282 [Eh]
	 Total Energy              =    -759.1453245035550026 [Eh]

	 ================> DF-SCS-MP2 Energies <==================
	-----------------------------------------------------------
	 SCS Same-Spin Scale       =       0.3333333333333333 [-]
	 SCS Opposite-Spin Scale   =       1.2000000000000000 [-]
	 SCS Same-Spin Energy      =      -0.2438386202079144 [Eh]
	 SCS Opposite-Spin Energy  =      -2.5958850357725818 [Eh]
	 SCS Correlation Energy    =      -2.8397236559804964 [Eh]
	 SCS Total Energy          =    -759.0902947691013196 [Eh]
	-----------------------------------------------------------

  Dipole Moment: [D]
     X:    -0.2851      Y:     0.4508      Z:     1.9473     Total:     2.0191

*** Psi4 exiting successfully. Buy a developer a beer!
