                               Psi4 1.3.2 release

  ==> Input File <==

--------------------------------------------------------------------------
#psi4
#
memory 32 gb

molecule  {
0 1
  O       -0.2992330     0.0680890    -1.4276520
  O        1.1877390     1.7321380     1.3773370
  O        0.9070540     2.3739560    -0.7854760
  O        2.2997900    -2.4217320    -0.0198770
  O       -3.4576290     0.0760600    -0.5562400
  O        2.6367540    -0.2338110    -0.4932570
  O       -2.4353810    -1.6060190     0.5619510
  C       -0.1340832     0.2772727    -0.2394440
  C        0.5596730    -0.9208470     0.5522810
  C       -1.4701600     0.6204770     0.6141540
  C        0.7459700     1.5647750     0.1124900
  C        1.9236380    -1.1208730    -0.0515330
  C       -2.4761190    -0.4337210     0.2256320
  H       -0.0681530    -1.7945710     0.3697710
  H        0.6733550    -0.8157800     1.6370670
  H       -1.8203350     1.5970450     0.2687060
  H       -1.3720190     0.6392280     1.7041070
  H       -0.0402350     0.8946720    -1.8856460
  H        1.6977260     2.5694770     1.3788080
  H        3.2012140    -2.4469230    -0.4041650
  H       -4.0405490    -0.6812350    -0.7753220
units angstrom
no_reorient  #important for SAPT in psi4, default
symmetry c1  #important for SAPT in psi4, default
}

set PROPERTIES_ORIGIN ["COM"]
properties('MP2/aug-cc-pvtz', properties = ['dipole'])
--------------------------------------------------------------------------

    Molecular point group: c1
  Charge       = 0
  Multiplicity = 1
  Basis Set: AUG-CC-PVTZ
    Blend: AUG-CC-PVTZ
  Basis Set: (AUG-CC-PVTZ AUX)
    Blend: AUG-CC-PVTZ-JKFIT

    Orbital Energies [Eh]
    ---------------------

    Doubly Occupied:

       1A    -20.637756     2A    -20.624474     3A    -20.622339
       4A    -20.604749     5A    -20.566103     6A    -20.559508
       7A    -20.558798     8A    -11.405153     9A    -11.400258
      10A    -11.398081    11A    -11.349763    12A    -11.263690
      13A    -11.255593    14A     -1.508921    15A     -1.473921
      16A     -1.468894    17A     -1.467759    18A     -1.375771
      19A     -1.365853    20A     -1.365776    21A     -1.092682
      22A     -1.027808    23A     -0.932816    24A     -0.863745
      25A     -0.824931    26A     -0.815400    27A     -0.781077
      28A     -0.723719    29A     -0.717948    30A     -0.715295
      31A     -0.709300    32A     -0.688363    33A     -0.680290
      34A     -0.665633    35A     -0.646199    36A     -0.643810
      37A     -0.630484    38A     -0.614904    39A     -0.599489
      40A     -0.585028    41A     -0.576306    42A     -0.556789
      43A     -0.535045    44A     -0.504503    45A     -0.493524
      46A     -0.488015    47A     -0.474858    48A     -0.462833
      49A     -0.444182    50A     -0.430411

  @DF-RHF Final Energy:  -756.21486410741534

   => Energetics <=

    Nuclear Repulsion Energy =            875.2933858091801085
    One-Electron Energy =               -2778.6194041965873112
    Two-Electron Energy =                1147.1111542799917515
    Total Energy =                       -756.2148641074154511
  Basis Set: (AUG-CC-PVTZ AUX)
    Blend: AUG-CC-PVTZ-RI
    Molecular point group: c1

    Geometry (in Angstrom), charge = 0, multiplicity = 1:

       Center              X                  Y                   Z               Mass
    ------------   -----------------  -----------------  -----------------  -----------------
         O           -0.306656039561     0.070038866766    -1.403643075038    15.994914619570
         O            1.180315960439     1.734087866766     1.401345924962    15.994914619570
         O            0.899630960439     2.375905866766    -0.761467075038    15.994914619570
         O            2.292366960439    -2.419782133234     0.004131924962    15.994914619570
         O           -3.465052039561     0.078009866766    -0.532231075038    15.994914619570
         O            2.629330960439    -0.231861133234    -0.469248075038    15.994914619570
         O           -2.442804039561    -1.604069133234     0.585959924962    15.994914619570
         C           -0.141506239561     0.279222566766    -0.215435075038    12.000000000000
         C            0.552249960439    -0.918897133234     0.576289924962    12.000000000000
         C           -1.477583039561     0.622426866766     0.638162924962    12.000000000000
         C            0.738546960439     1.566724866766     0.136498924962    12.000000000000
         C            1.916214960439    -1.118923133234    -0.027524075038    12.000000000000
         C           -2.483542039561    -0.431771133234     0.249640924962    12.000000000000
         H           -0.075576039561    -1.792621133234     0.393779924962     1.007825032230
         H            0.665931960439    -0.813830133234     1.661075924962     1.007825032230
         H           -1.827758039561     1.598994866766     0.292714924962     1.007825032230
         H           -1.379442039561     0.641177866766     1.728115924962     1.007825032230
         H           -0.047658039561     0.896621866766    -1.861637075038     1.007825032230
         H            1.690302960439     2.571426866766     1.402816924962     1.007825032230
         H            3.193790960439    -2.444973133234    -0.380156075038     1.007825032230
         H           -4.047972039561    -0.679285133234    -0.751313075038     1.007825032230

  Basis Set: AUG-CC-PVTZ
    Blend: AUG-CC-PVTZ
  Basis Set: (AUG-CC-PVTZ AUX)
    Blend: AUG-CC-PVTZ-JKFIT
	 Reference Energy          =    -756.2148641074153375 [Eh]
	 Singles Energy            =      -0.0000000000000000 [Eh]
	 Same-Spin Energy          =      -0.7315163956486886 [Eh]
	 Opposite-Spin Energy      =      -2.1602801493243518 [Eh]
	 Correlation Energy        =      -2.8917965449730403 [Eh]
	 Total Energy              =    -759.1066606523884275 [Eh]

	 ================> DF-SCS-MP2 Energies <==================
	-----------------------------------------------------------
	 SCS Same-Spin Scale       =       0.3333333333333333 [-]
	 SCS Opposite-Spin Scale   =       1.2000000000000000 [-]
	 SCS Same-Spin Energy      =      -0.2438387985495629 [Eh]
	 SCS Opposite-Spin Energy  =      -2.5923361791892221 [Eh]
	 SCS Correlation Energy    =      -2.8361749777387848 [Eh]
	 SCS Total Energy          =    -759.0510390851541160 [Eh]
	-----------------------------------------------------------

  Dipole Moment: [D]
     X:    -0.1170      Y:     0.7217      Z:     1.1700     Total:     1.3796

*** Psi4 exiting successfully. Buy a developer a beer!
