                               Psi4 1.3.2 release

  ==> Input File <==

--------------------------------------------------------------------------
#psi4
#
memory 32 gb

molecule  {
0 1
  O       -0.2992330     0.0680890    -1.4276520
  O        1.1877390     1.7321380     1.3773370
  O        0.9070540     2.3739560    -0.7854760
  O        2.2997900    -2.4217320    -0.0198770
  O       -3.4576290     0.0760600    -0.5562400
  O        2.6367540    -0.2338110    -0.4932570
  O       -2.4353810    -1.6060190     0.5619510
  C       -0.1069590     0.3116290    -0.0442930
  C        0.5596730    -0.9208470     0.5522810
  C       -1.4701600     0.6204770     0.6141540
  C        0.7459700     1.5647750     0.1124900
  C        1.8330086    -1.1075822    -0.0114123
  C       -2.4761190    -0.4337210     0.2256320
  H       -0.0681530    -1.7945710     0.3697710
  H        0.6733550    -0.8157800     1.6370670
  H       -1.8203350     1.5970450     0.2687060
  H       -1.3720190     0.6392280     1.7041070
  H       -0.0402350     0.8946720    -1.8856460
  H        1.6977260     2.5694770     1.3788080
  H        3.2012140    -2.4469230    -0.4041650
  H       -4.0405490    -0.6812350    -0.7753220
units angstrom
no_reorient  #important for SAPT in psi4, default
symmetry c1  #important for SAPT in psi4, default
}

set PROPERTIES_ORIGIN ["COM"]
properties('MP2/aug-cc-pvtz', properties = ['dipole'])
--------------------------------------------------------------------------

    Molecular point group: c1
  Charge       = 0
  Multiplicity = 1
  Basis Set: AUG-CC-PVTZ
    Blend: AUG-CC-PVTZ
  Basis Set: (AUG-CC-PVTZ AUX)
    Blend: AUG-CC-PVTZ-JKFIT

    Orbital Energies [Eh]
    ---------------------

    Doubly Occupied:

       1A    -20.640020     2A    -20.629763     3A    -20.615584
       4A    -20.582297     5A    -20.573103     6A    -20.566195
       7A    -20.556070     8A    -11.414229     9A    -11.410564
      10A    -11.409785    11A    -11.347462    12A    -11.277307
      13A    -11.266329    14A     -1.487343    15A     -1.475533
      16A     -1.442946    17A     -1.402385    18A     -1.374450
      19A     -1.371701    20A     -1.330169    21A     -1.131607
      22A     -1.060257    23A     -0.961906    24A     -0.856131
      25A     -0.830821    26A     -0.796499    27A     -0.764026
      28A     -0.729657    29A     -0.722162    30A     -0.717295
      31A     -0.698517    32A     -0.690429    33A     -0.671228
      34A     -0.653875    35A     -0.645875    36A     -0.638541
      37A     -0.624774    38A     -0.600833    39A     -0.594485
      40A     -0.576163    41A     -0.565756    42A     -0.562696
      43A     -0.549801    44A     -0.507090    45A     -0.498250
      46A     -0.489050    47A     -0.477454    48A     -0.468938
      49A     -0.463015    50A     -0.456899

  @DF-RHF Final Energy:  -756.23495664905272

   => Energetics <=

    Nuclear Repulsion Energy =            875.2631716800977983
    One-Electron Energy =               -2778.6417306546295549
    Two-Electron Energy =                1147.1436023254789234
    Total Energy =                       -756.2349566490527195
  Basis Set: (AUG-CC-PVTZ AUX)
    Blend: AUG-CC-PVTZ-RI
    Molecular point group: c1

    Geometry (in Angstrom), charge = 0, multiplicity = 1:

       Center              X                  Y                   Z               Mass
    ------------   -----------------  -----------------  -----------------  -----------------
         O           -0.302687522688     0.067061341771    -1.418345488563    15.994914619570
         O            1.184284477312     1.731110341771     1.386643511437    15.994914619570
         O            0.903599477312     2.372928341771    -0.776169488563    15.994914619570
         O            2.296335477312    -2.422759658229    -0.010570488563    15.994914619570
         O           -3.461083522688     0.075032341771    -0.546933488563    15.994914619570
         O            2.633299477312    -0.234838658229    -0.483950488563    15.994914619570
         O           -2.438835522688    -1.607046658229     0.571257511437    15.994914619570
         C           -0.110413522688     0.310601341771    -0.034986488563    12.000000000000
         C            0.556218477312    -0.921874658229     0.561587511437    12.000000000000
         C           -1.473614522688     0.619449341771     0.623460511437    12.000000000000
         C            0.742515477312     1.563747341771     0.121796511437    12.000000000000
         C            1.829554077312    -1.108609858229    -0.002105788563    12.000000000000
         C           -2.479573522688    -0.434748658229     0.234938511437    12.000000000000
         H           -0.071607522688    -1.795598658229     0.379077511437     1.007825032230
         H            0.669900477312    -0.816807658229     1.646373511437     1.007825032230
         H           -1.823789522688     1.596017341771     0.278012511437     1.007825032230
         H           -1.375473522688     0.638200341771     1.713413511437     1.007825032230
         H           -0.043689522688     0.893644341771    -1.876339488563     1.007825032230
         H            1.694271477312     2.568449341771     1.388114511437     1.007825032230
         H            3.197759477312    -2.447950658229    -0.394858488563     1.007825032230
         H           -4.044003522688    -0.682262658229    -0.766015488563     1.007825032230

  Basis Set: AUG-CC-PVTZ
    Blend: AUG-CC-PVTZ
  Basis Set: (AUG-CC-PVTZ AUX)
    Blend: AUG-CC-PVTZ-JKFIT
	 Reference Energy          =    -756.2349566490527195 [Eh]
	 Singles Energy            =      -0.0000000000000000 [Eh]
	 Same-Spin Energy          =      -0.7331791695669310 [Eh]
	 Opposite-Spin Energy      =      -2.1666847200502874 [Eh]
	 Correlation Energy        =      -2.8998638896172184 [Eh]
	 Total Energy              =    -759.1348205386699419 [Eh]

	 ================> DF-SCS-MP2 Energies <==================
	-----------------------------------------------------------
	 SCS Same-Spin Scale       =       0.3333333333333333 [-]
	 SCS Opposite-Spin Scale   =       1.2000000000000000 [-]
	 SCS Same-Spin Energy      =      -0.2443930565223103 [Eh]
	 SCS Opposite-Spin Energy  =      -2.6000216640603449 [Eh]
	 SCS Correlation Energy    =      -2.8444147205826553 [Eh]
	 SCS Total Energy          =    -759.0793713696353961 [Eh]
	-----------------------------------------------------------

  Dipole Moment: [D]
     X:    -0.6986      Y:     0.9553      Z:     2.0229     Total:     2.3437

*** Psi4 exiting successfully. Buy a developer a beer!
