                               Psi4 1.3.2 release

  ==> Input File <==

--------------------------------------------------------------------------
#psi4
#
memory 32 gb

molecule  {
0 1
  O       -0.2992330     0.0680890    -1.4276520
  O        1.1877390     1.7321380     1.3773370
  O        0.9070540     2.3739560    -0.7854760
  O        2.2997900    -2.4217320    -0.0198770
  O       -3.4576290     0.0760600    -0.5562400
  O        2.6367540    -0.2338110    -0.4932570
  O       -2.4353810    -1.6060190     0.5619510
  C       -0.1069590     0.3116290    -0.0442930
  C        0.5596730    -0.9208470     0.5522810
  C       -1.4701600     0.6204770     0.6141540
  C        0.6340339     1.4003155     0.0919142
  C        1.9236380    -1.1208730    -0.0515330
  C       -2.4761190    -0.4337210     0.2256320
  H       -0.0681530    -1.7945710     0.3697710
  H        0.6733550    -0.8157800     1.6370670
  H       -1.8203350     1.5970450     0.2687060
  H       -1.3720190     0.6392280     1.7041070
  H       -0.0402350     0.8946720    -1.8856460
  H        1.6977260     2.5694770     1.3788080
  H        3.2012140    -2.4469230    -0.4041650
  H       -4.0405490    -0.6812350    -0.7753220
units angstrom
no_reorient  #important for SAPT in psi4, default
symmetry c1  #important for SAPT in psi4, default
}

set PROPERTIES_ORIGIN ["COM"]
properties('MP2/aug-cc-pvtz', properties = ['dipole'])
--------------------------------------------------------------------------

    Molecular point group: c1
  Charge       = 0
  Multiplicity = 1
  Basis Set: AUG-CC-PVTZ
    Blend: AUG-CC-PVTZ
  Basis Set: (AUG-CC-PVTZ AUX)
    Blend: AUG-CC-PVTZ-JKFIT

    Orbital Energies [Eh]
    ---------------------

    Doubly Occupied:

       1A    -20.634250     2A    -20.629293     3A    -20.618734
       4A    -20.589585     5A    -20.571350     6A    -20.565283
       7A    -20.562282     8A    -11.427158     9A    -11.415803
      10A    -11.407840    11A    -11.342815    12A    -11.289245
      13A    -11.275595    14A     -1.480516    15A     -1.475585
      16A     -1.440429    17A     -1.401475    18A     -1.376957
      19A     -1.371382    20A     -1.304931    21A     -1.154897
      22A     -1.051876    23A     -1.002485    24A     -0.857212
      25A     -0.839913    26A     -0.802215    27A     -0.759872
      28A     -0.728911    29A     -0.723189    30A     -0.719092
      31A     -0.700378    32A     -0.691123    33A     -0.677740
      34A     -0.655203    35A     -0.641327    36A     -0.628242
      37A     -0.610829    38A     -0.602973    39A     -0.587045
      40A     -0.582897    41A     -0.574298    42A     -0.563525
      43A     -0.554427    44A     -0.503814    45A     -0.495206
      46A     -0.488759    47A     -0.478910    48A     -0.475350
      49A     -0.463610    50A     -0.451893

  @DF-RHF Final Energy:  -756.18060878100312

   => Energetics <=

    Nuclear Repulsion Energy =            876.7175705222674651
    One-Electron Energy =               -2781.3009204392933498
    Two-Electron Energy =                1148.4027411360225415
    Total Energy =                       -756.1806087810032295
  Basis Set: (AUG-CC-PVTZ AUX)
    Blend: AUG-CC-PVTZ-RI
    Molecular point group: c1

    Geometry (in Angstrom), charge = 0, multiplicity = 1:

       Center              X                  Y                   Z               Mass
    ------------   -----------------  -----------------  -----------------  -----------------
         O           -0.301356041195     0.078169173332    -1.414552490754    15.994914619570
         O            1.185615958805     1.742218173332     1.390436509246    15.994914619570
         O            0.904930958805     2.384036173332    -0.772376490754    15.994914619570
         O            2.297666958805    -2.411651826668    -0.006777490754    15.994914619570
         O           -3.459752041195     0.086140173332    -0.543140490754    15.994914619570
         O            2.634630958805    -0.223730826668    -0.480157490754    15.994914619570
         O           -2.437504041195    -1.595938826668     0.575050509246    15.994914619570
         C           -0.109082041195     0.321709173332    -0.031193490754    12.000000000000
         C            0.557549958805    -0.910766826668     0.565380509246    12.000000000000
         C           -1.472283041195     0.630557173332     0.627253509246    12.000000000000
         C            0.631910858805     1.410395673332     0.105013709246    12.000000000000
         C            1.921514958805    -1.110792826668    -0.038433490754    12.000000000000
         C           -2.478242041195    -0.423640826668     0.238731509246    12.000000000000
         H           -0.070276041195    -1.784490826668     0.382870509246     1.007825032230
         H            0.671231958805    -0.805699826668     1.650166509246     1.007825032230
         H           -1.822458041195     1.607125173332     0.281805509246     1.007825032230
         H           -1.374142041195     0.649308173332     1.717206509246     1.007825032230
         H           -0.042358041195     0.904752173332    -1.872546490754     1.007825032230
         H            1.695602958805     2.579557173332     1.391907509246     1.007825032230
         H            3.199090958805    -2.436842826668    -0.391065490754     1.007825032230
         H           -4.042672041195    -0.671154826668    -0.762222490754     1.007825032230

  Basis Set: AUG-CC-PVTZ
    Blend: AUG-CC-PVTZ
  Basis Set: (AUG-CC-PVTZ AUX)
    Blend: AUG-CC-PVTZ-JKFIT
	 Reference Energy          =    -756.1806087810031158 [Eh]
	 Singles Energy            =      -0.0000000000000000 [Eh]
	 Same-Spin Energy          =      -0.7369904938153331 [Eh]
	 Opposite-Spin Energy      =      -2.1743855931736058 [Eh]
	 Correlation Energy        =      -2.9113760869889389 [Eh]
	 Total Energy              =    -759.0919848679920960 [Eh]

	 ================> DF-SCS-MP2 Energies <==================
	-----------------------------------------------------------
	 SCS Same-Spin Scale       =       0.3333333333333333 [-]
	 SCS Opposite-Spin Scale   =       1.2000000000000000 [-]
	 SCS Same-Spin Energy      =      -0.2456634979384444 [Eh]
	 SCS Opposite-Spin Energy  =      -2.6092627118083267 [Eh]
	 SCS Correlation Energy    =      -2.8549262097467709 [Eh]
	 SCS Total Energy          =    -759.0355349907498521 [Eh]
	-----------------------------------------------------------

  Dipole Moment: [D]
     X:    -0.8115      Y:    -0.1553      Z:     1.6331     Total:     1.8302

*** Psi4 exiting successfully. Buy a developer a beer!
