                               Psi4 1.4a3.dev225

  ==> Input File <==

--------------------------------------------------------------------------
#psi4
#
memory 32 gb

molecule  {
0 1
  O       -0.2992690     0.0680640    -1.4275900
  O        1.1877140     1.7322170     1.3773330
  O        0.9070830     2.3739170    -0.7855270
  O        2.2997080    -2.4217750    -0.0198700
  O       -3.4574230     0.0760400    -0.5564670
  O        2.6367000    -0.2338780    -0.4933410
  O       -2.4354340    -1.6059620     0.5620860
  C       -0.1069630     0.3116450    -0.0442490
  C        0.5596710    -0.9208170     0.5523550
  C       -1.4701590     0.6204980     0.6142450
  C        0.7179779     1.5236749     0.1073368
  C        1.9235890    -1.1209070    -0.0515450
  C       -2.4760910    -0.4336940     0.2256510
  H       -0.0681940    -1.7945300     0.3699280
  H        0.6734230    -0.8156830     1.6371260
  H       -1.8203340     1.5970830     0.2688470
  H       -1.3719830     0.6391850     1.7041930
  H       -0.0401320     0.8945830    -1.8856220
  H        1.6977060     2.5695530     1.3787680
  H        3.2011100    -2.4470060    -0.4042100
  H       -4.0402960    -0.6812640    -0.7756360
units angstrom
no_reorient  #important for SAPT in psi4, default
symmetry c1  #important for SAPT in psi4, default
}

set PROPERTIES_ORIGIN ["COM"]
properties('MP2/aug-cc-pvtz', properties = ['dipole'])
--------------------------------------------------------------------------

    Molecular point group: c1
  Charge       = 0
  Multiplicity = 1
  Basis Set: AUG-CC-PVTZ
    Blend: AUG-CC-PVTZ
  Basis Set: (AUG-CC-PVTZ AUX)
    Blend: AUG-CC-PVTZ-JKFIT

    Orbital Energies [Eh]
    ---------------------

    Doubly Occupied:

       1A    -20.633433     2A    -20.628656     3A    -20.626131
       4A    -20.580936     5A    -20.569284     6A    -20.564725
       7A    -20.562206     8A    -11.415412     9A    -11.408578
      10A    -11.403823    11A    -11.342649    12A    -11.276872
      13A    -11.265195    14A     -1.476000    15A     -1.473680
      16A     -1.469004    17A     -1.399056    18A     -1.370884
      19A     -1.368468    20A     -1.356244    21A     -1.124635
      22A     -1.042051    23A     -0.964305    24A     -0.853731
      25A     -0.832535    26A     -0.798057    27A     -0.760239
      28A     -0.725441    29A     -0.718572    30A     -0.717366
      31A     -0.704684    32A     -0.692916    33A     -0.671602
      34A     -0.652610    35A     -0.641825    36A     -0.633780
      37A     -0.619279    38A     -0.605850    39A     -0.595404
      40A     -0.581642    41A     -0.564009    42A     -0.562537
      43A     -0.547692    44A     -0.499767    45A     -0.495961
      46A     -0.490599    47A     -0.485352    48A     -0.474938
      49A     -0.467468    50A     -0.455603

  @DF-RHF Final Energy:  -756.25059107724167

   => Energetics <=

    Nuclear Repulsion Energy =            875.1175812794983813
    One-Electron Energy =               -2778.3929746892722505
    Two-Electron Energy =                1147.0248023325323175
    Total Energy =                       -756.2505910772415518
  Basis Set: (AUG-CC-PVTZ AUX)
    Blend: AUG-CC-PVTZ-RI
    Molecular point group: c1

    Geometry (in Angstrom), charge = 0, multiplicity = 1:

       Center              X                  Y                   Z               Mass
    ------------   -----------------  -----------------  -----------------  -----------------
         O           -0.306636482752     0.070436334655    -1.415454628888    15.994914619570
         O            1.180346517248     1.734589334655     1.389468371112    15.994914619570
         O            0.899715517248     2.376289334655    -0.773391628888    15.994914619570
         O            2.292340517248    -2.419402665345    -0.007734628888    15.994914619570
         O           -3.464790482752     0.078412334655    -0.544331628888    15.994914619570
         O            2.629332517248    -0.231505665345    -0.481205628888    15.994914619570
         O           -2.442801482752    -1.603589665345     0.574221371112    15.994914619570
         C           -0.114330482752     0.314017334655    -0.032113628888    12.000000000000
         C            0.552303517248    -0.918444665345     0.564490371112    12.000000000000
         C           -1.477526482752     0.622870334655     0.626380371112    12.000000000000
         C            0.710610417248     1.526047234655     0.119472171112    12.000000000000
         C            1.916221517248    -1.118534665345    -0.039409628888    12.000000000000
         C           -2.483458482752    -0.431321665345     0.237786371112    12.000000000000
         H           -0.075561482752    -1.792157665345     0.382063371112     1.007825032230
         H            0.666055517248    -0.813310665345     1.649261371112     1.007825032230
         H           -1.827701482752     1.599455334655     0.280982371112     1.007825032230
         H           -1.379350482752     0.641557334655     1.716328371112     1.007825032230
         H           -0.047499482752     0.896955334655    -1.873486628888     1.007825032230
         H            1.690338517248     2.571925334655     1.390903371112     1.007825032230
         H            3.193742517248    -2.444633665345    -0.392074628888     1.007825032230
         H           -4.047663482752    -0.678891665345    -0.763500628888     1.007825032230

  Basis Set: AUG-CC-PVTZ
    Blend: AUG-CC-PVTZ
  Basis Set: (AUG-CC-PVTZ AUX)
    Blend: AUG-CC-PVTZ-JKFIT
	 Reference Energy          =    -756.2505910772416655 [Eh]
	 Singles Energy            =      -0.0000000000000000 [Eh]
	 Same-Spin Energy          =      -0.7316742545386276 [Eh]
	 Opposite-Spin Energy      =      -2.1639205241308863 [Eh]
	 Correlation Energy        =      -2.8955947786695138 [Eh]
	 Total Energy              =    -759.1461858559111988 [Eh]

	 ================> DF-SCS-MP2 Energies <==================
	-----------------------------------------------------------
	 SCS Same-Spin Scale       =       0.3333333333333333 [-]
	 SCS Opposite-Spin Scale   =       1.2000000000000000 [-]
	 SCS Same-Spin Energy      =      -0.2438914181795425 [Eh]
	 SCS Opposite-Spin Energy  =      -2.5967046289570637 [Eh]
	 SCS Correlation Energy    =      -2.8405960471366063 [Eh]
	 SCS Total Energy          =    -759.0911871243782798 [Eh]
	-----------------------------------------------------------

  Dipole Moment: [D]
     X:    -0.3231      Y:     0.5110      Z:     1.8140     Total:     1.9121

*** Psi4 exiting successfully. Buy a developer a beer!
