                               Psi4 1.4a3.dev225

  ==> Input File <==

--------------------------------------------------------------------------
#psi4
#
memory 32 gb

molecule  {
0 1
  O       -0.2992690     0.0680640    -1.4275900
  O        1.1877140     1.7322170     1.3773330
  O        0.9070830     2.3739170    -0.7855270
  O        2.2997080    -2.4217750    -0.0198700
  O       -3.4574230     0.0760400    -0.5564670
  O        2.6367000    -0.2338780    -0.4933410
  O       -2.4354340    -1.6059620     0.5620860
  C       -0.1069630     0.3116450    -0.0442490
  C        0.5596710    -0.9208170     0.5523550
  C       -1.4701590     0.6204980     0.6142450
  C        0.7459620     1.5647900     0.1124790
  C        1.9235890    -1.1209070    -0.0515450
  C       -2.4760910    -0.4336940     0.2256510
  H       -0.0681940    -1.7945300     0.3699280
  H        0.6734230    -0.8156830     1.6371260
  H       -1.8203340     1.5970830     0.2688470
  H       -1.3719830     0.6391850     1.7041930
  H       -0.0401320     0.8945830    -1.8856220
  H        1.7237148     2.6122559     1.3788412
  H        3.2011100    -2.4470060    -0.4042100
  H       -4.0402960    -0.6812640    -0.7756360
units angstrom
no_reorient  #important for SAPT in psi4, default
symmetry c1  #important for SAPT in psi4, default
}

set PROPERTIES_ORIGIN ["COM"]
properties('MP2/aug-cc-pvtz', properties = ['dipole'])
--------------------------------------------------------------------------

    Molecular point group: c1
  Charge       = 0
  Multiplicity = 1
  Basis Set: AUG-CC-PVTZ
    Blend: AUG-CC-PVTZ
  Basis Set: (AUG-CC-PVTZ AUX)
    Blend: AUG-CC-PVTZ-JKFIT

    Orbital Energies [Eh]
    ---------------------

    Doubly Occupied:

       1A    -20.640789     2A    -20.626727     3A    -20.624792
       4A    -20.578015     5A    -20.570364     6A    -20.562454
       7A    -20.560717     8A    -11.410465     9A    -11.406098
      10A    -11.402109    11A    -11.340541    12A    -11.273062
      13A    -11.261789    14A     -1.479735    15A     -1.472165
      16A     -1.469550    17A     -1.396554    18A     -1.370295
      19A     -1.368437    20A     -1.365704    21A     -1.116219
      22A     -1.038727    23A     -0.949688    24A     -0.849593
      25A     -0.829872    26A     -0.792240    27A     -0.758112
      28A     -0.724828    29A     -0.717185    30A     -0.715795
      31A     -0.704006    32A     -0.690754    33A     -0.668895
      34A     -0.652814    35A     -0.642414    36A     -0.636368
      37A     -0.622119    38A     -0.604062    39A     -0.594879
      40A     -0.580107    41A     -0.561881    42A     -0.558847
      43A     -0.544376    44A     -0.504582    45A     -0.494868
      46A     -0.490109    47A     -0.485310    48A     -0.471701
      49A     -0.465207    50A     -0.452203

  @DF-RHF Final Energy:  -756.25301534034088

   => Energetics <=

    Nuclear Repulsion Energy =            874.3120163329210754
    One-Electron Energy =               -2776.9338169150892099
    Two-Electron Energy =                1146.3687852418272541
    Total Energy =                       -756.2530153403408804
  Basis Set: (AUG-CC-PVTZ AUX)
    Blend: AUG-CC-PVTZ-RI
    Molecular point group: c1

    Geometry (in Angstrom), charge = 0, multiplicity = 1:

       Center              X                  Y                   Z               Mass
    ------------   -----------------  -----------------  -----------------  -----------------
         O           -0.308521746360     0.067642882462    -1.415776355374    15.994914619570
         O            1.178461253640     1.731795882462     1.389146644626    15.994914619570
         O            0.897830253640     2.373495882462    -0.773713355374    15.994914619570
         O            2.290455253640    -2.422196117538    -0.008056355374    15.994914619570
         O           -3.466675746360     0.075618882462    -0.544653355374    15.994914619570
         O            2.627447253640    -0.234299117538    -0.481527355374    15.994914619570
         O           -2.444686746360    -1.606383117538     0.573899644626    15.994914619570
         C           -0.116215746360     0.311223882462    -0.032435355374    12.000000000000
         C            0.550418253640    -0.921238117538     0.564168644626    12.000000000000
         C           -1.479411746360     0.620076882462     0.626058644626    12.000000000000
         C            0.736709253640     1.564368882462     0.124292644626    12.000000000000
         C            1.914336253640    -1.121328117538    -0.039731355374    12.000000000000
         C           -2.485343746360    -0.434115117538     0.237464644626    12.000000000000
         H           -0.077446746360    -1.794951117538     0.381741644626     1.007825032230
         H            0.664170253640    -0.816104117538     1.648939644626     1.007825032230
         H           -1.829586746360     1.596661882462     0.280660644626     1.007825032230
         H           -1.381235746360     0.638763882462     1.716006644626     1.007825032230
         H           -0.049384746360     0.894161882462    -1.873808355374     1.007825032230
         H            1.714462053640     2.611834782462     1.390654844626     1.007825032230
         H            3.191857253640    -2.447427117538    -0.392396355374     1.007825032230
         H           -4.049548746360    -0.681685117538    -0.763822355374     1.007825032230

  Basis Set: AUG-CC-PVTZ
    Blend: AUG-CC-PVTZ
  Basis Set: (AUG-CC-PVTZ AUX)
    Blend: AUG-CC-PVTZ-JKFIT
	 Reference Energy          =    -756.2530153403408804 [Eh]
	 Singles Energy            =      -0.0000000000000000 [Eh]
	 Same-Spin Energy          =      -0.7311974037228780 [Eh]
	 Opposite-Spin Energy      =      -2.1631374457490651 [Eh]
	 Correlation Energy        =      -2.8943348494719432 [Eh]
	 Total Energy              =    -759.1473501898128688 [Eh]

	 ================> DF-SCS-MP2 Energies <==================
	-----------------------------------------------------------
	 SCS Same-Spin Scale       =       0.3333333333333333 [-]
	 SCS Opposite-Spin Scale   =       1.2000000000000000 [-]
	 SCS Same-Spin Energy      =      -0.2437324679076260 [Eh]
	 SCS Opposite-Spin Energy  =      -2.5957649348988778 [Eh]
	 SCS Correlation Energy    =      -2.8394974028065039 [Eh]
	 SCS Total Energy          =    -759.0925127431473811 [Eh]
	-----------------------------------------------------------

  Dipole Moment: [D]
     X:    -0.1276      Y:     0.7966      Z:     1.8781     Total:     2.0441

*** Psi4 exiting successfully. Buy a developer a beer!
