                               Psi4 1.3.2 release

  ==> Input File <==

--------------------------------------------------------------------------
#psi4
#
memory 32 gb

molecule  {
0 1
  O       -0.2992330     0.0680890    -1.4276520
  O        1.1877390     1.7321380     1.3773370
  O        0.9070540     2.3739560    -0.7854760
  O        2.2997900    -2.4217320    -0.0198770
  O       -3.4576290     0.0760600    -0.5562400
  O        2.6367540    -0.2338110    -0.4932570
  O       -2.4353810    -1.6060190     0.5619510
  C       -0.1384605     0.2193884    -0.0272150
  C        0.5596730    -0.9208470     0.5522810
  C       -1.4701600     0.6204770     0.6141540
  C        0.7459700     1.5647750     0.1124900
  C        1.9236380    -1.1208730    -0.0515330
  C       -2.4761190    -0.4337210     0.2256320
  H       -0.0681530    -1.7945710     0.3697710
  H        0.6733550    -0.8157800     1.6370670
  H       -1.8203350     1.5970450     0.2687060
  H       -1.3720190     0.6392280     1.7041070
  H       -0.0402350     0.8946720    -1.8856460
  H        1.6977260     2.5694770     1.3788080
  H        3.2012140    -2.4469230    -0.4041650
  H       -4.0405490    -0.6812350    -0.7753220
units angstrom
no_reorient  #important for SAPT in psi4, default
symmetry c1  #important for SAPT in psi4, default
}

set PROPERTIES_ORIGIN ["COM"]
properties('MP2/aug-cc-pvtz', properties = ['dipole'])
--------------------------------------------------------------------------

    Molecular point group: c1
  Charge       = 0
  Multiplicity = 1
  Basis Set: AUG-CC-PVTZ
    Blend: AUG-CC-PVTZ
  Basis Set: (AUG-CC-PVTZ AUX)
    Blend: AUG-CC-PVTZ-JKFIT

    Orbital Energies [Eh]
    ---------------------

    Doubly Occupied:

       1A    -20.635541     2A    -20.626809     3A    -20.626527
       4A    -20.574949     5A    -20.569732     6A    -20.562758
       7A    -20.562407     8A    -11.409334     9A    -11.405721
      10A    -11.404653    11A    -11.344111    12A    -11.273498
      13A    -11.260659    14A     -1.481414    15A     -1.472604
      16A     -1.471335    17A     -1.395152    18A     -1.371112
      19A     -1.369167    20A     -1.366458    21A     -1.124377
      22A     -1.045642    23A     -0.935686    24A     -0.856615
      25A     -0.831762    26A     -0.795149    27A     -0.755788
      28A     -0.726628    29A     -0.717952    30A     -0.717657
      31A     -0.706232    32A     -0.689633    33A     -0.674411
      34A     -0.653188    35A     -0.647225    36A     -0.636544
      37A     -0.623117    38A     -0.606902    39A     -0.594494
      40A     -0.582646    41A     -0.566059    42A     -0.562813
      43A     -0.535095    44A     -0.505501    45A     -0.496581
      46A     -0.492264    47A     -0.483960    48A     -0.474252
      49A     -0.466321    50A     -0.441201

  @DF-RHF Final Energy:  -756.24776414759492

   => Energetics <=

    Nuclear Repulsion Energy =            874.5804159194850627
    One-Electron Energy =               -2777.3970881202858436
    Two-Electron Energy =                1146.5689080532060871
    Total Energy =                       -756.2477641475948076
  Basis Set: (AUG-CC-PVTZ AUX)
    Blend: AUG-CC-PVTZ-RI
    Molecular point group: c1

    Geometry (in Angstrom), charge = 0, multiplicity = 1:

       Center              X                  Y                   Z               Mass
    ------------   -----------------  -----------------  -----------------  -----------------
         O           -0.306382496782     0.073656126790    -1.416905522327    15.994914619570
         O            1.180589503218     1.737705126790     1.388083477673    15.994914619570
         O            0.899904503218     2.379523126790    -0.774729522327    15.994914619570
         O            2.292640503218    -2.416164873210    -0.009130522327    15.994914619570
         O           -3.464778496782     0.081627126790    -0.545493522327    15.994914619570
         O            2.629604503218    -0.228243873210    -0.482510522327    15.994914619570
         O           -2.442530496782    -1.600451873210     0.572697477673    15.994914619570
         C           -0.145609996782     0.224955526790    -0.016468522327    12.000000000000
         C            0.552523503218    -0.915279873210     0.563027477673    12.000000000000
         C           -1.477309496782     0.626044126790     0.624900477673    12.000000000000
         C            0.738820503218     1.570342126790     0.123236477673    12.000000000000
         C            1.916488503218    -1.115305873210    -0.040786522327    12.000000000000
         C           -2.483268496782    -0.428153873210     0.236378477673    12.000000000000
         H           -0.075302496782    -1.789003873210     0.380517477673     1.007825032230
         H            0.666205503218    -0.810212873210     1.647813477673     1.007825032230
         H           -1.827484496782     1.602612126790     0.279452477673     1.007825032230
         H           -1.379168496782     0.644795126790     1.714853477673     1.007825032230
         H           -0.047384496782     0.900239126790    -1.874899522327     1.007825032230
         H            1.690576503218     2.575044126790     1.389554477673     1.007825032230
         H            3.194064503218    -2.441355873210    -0.393418522327     1.007825032230
         H           -4.047698496782    -0.675667873210    -0.764575522327     1.007825032230

  Basis Set: AUG-CC-PVTZ
    Blend: AUG-CC-PVTZ
  Basis Set: (AUG-CC-PVTZ AUX)
    Blend: AUG-CC-PVTZ-JKFIT
	 Reference Energy          =    -756.2477641475949213 [Eh]
	 Singles Energy            =      -0.0000000000000000 [Eh]
	 Same-Spin Energy          =      -0.7312121106060061 [Eh]
	 Opposite-Spin Energy      =      -2.1624122284303393 [Eh]
	 Correlation Energy        =      -2.8936243390363456 [Eh]
	 Total Energy              =    -759.1413884866312856 [Eh]

	 ================> DF-SCS-MP2 Energies <==================
	-----------------------------------------------------------
	 SCS Same-Spin Scale       =       0.3333333333333333 [-]
	 SCS Opposite-Spin Scale   =       1.2000000000000000 [-]
	 SCS Same-Spin Energy      =      -0.2437373702020020 [Eh]
	 SCS Opposite-Spin Energy  =      -2.5948946741164072 [Eh]
	 SCS Correlation Energy    =      -2.8386320443184090 [Eh]
	 SCS Total Energy          =    -759.0863961919133089 [Eh]
	-----------------------------------------------------------

  Dipole Moment: [D]
     X:    -0.1224      Y:     0.6844      Z:     1.9164     Total:     2.0386

*** Psi4 exiting successfully. Buy a developer a beer!
