                               Psi4 1.3.2 release

  ==> Input File <==

--------------------------------------------------------------------------
#psi4
#
memory 32 gb

molecule  {
0 1
  O       -0.2992330     0.0680890    -1.4276520
  O        1.1877390     1.7321380     1.3773370
  O        0.9070540     2.3739560    -0.7854760
  O        2.2997900    -2.4217320    -0.0198770
  O       -3.4576290     0.0760600    -0.5562400
  O        2.6367540    -0.2338110    -0.4932570
  O       -2.4353810    -1.6060190     0.5619510
  C       -0.1069590     0.3116290    -0.0442930
  C        0.5596730    -0.9208470     0.5522810
  C       -1.4701600     0.6204770     0.6141540
  C        0.7565689     1.5849045     0.1063442
  C        1.9236380    -1.1208730    -0.0515330
  C       -2.4761190    -0.4337210     0.2256320
  H       -0.0681530    -1.7945710     0.3697710
  H        0.6733550    -0.8157800     1.6370670
  H       -1.8203350     1.5970450     0.2687060
  H       -1.3720190     0.6392280     1.7041070
  H       -0.0402350     0.8946720    -1.8856460
  H        1.6977260     2.5694770     1.3788080
  H        3.2012140    -2.4469230    -0.4041650
  H       -4.0405490    -0.6812350    -0.7753220
units angstrom
no_reorient  #important for SAPT in psi4, default
symmetry c1  #important for SAPT in psi4, default
}

set PROPERTIES_ORIGIN ["COM"]
properties('MP2/aug-cc-pvtz', properties = ['dipole'])
--------------------------------------------------------------------------

    Molecular point group: c1
  Charge       = 0
  Multiplicity = 1
  Basis Set: AUG-CC-PVTZ
    Blend: AUG-CC-PVTZ
  Basis Set: (AUG-CC-PVTZ AUX)
    Blend: AUG-CC-PVTZ-JKFIT

    Orbital Energies [Eh]
    ---------------------

    Doubly Occupied:

       1A    -20.637969     2A    -20.626244     3A    -20.624513
       4A    -20.577345     5A    -20.574153     6A    -20.561831
       7A    -20.560456     8A    -11.409457     9A    -11.405418
      10A    -11.401736    11A    -11.339654    12A    -11.271926
      13A    -11.260776    14A     -1.489759    15A     -1.471762
      16A     -1.469786    17A     -1.401479    18A     -1.378982
      19A     -1.368109    20A     -1.366235    21A     -1.113880
      22A     -1.037710    23A     -0.947499    24A     -0.852064
      25A     -0.829344    26A     -0.793523    27A     -0.759693
      28A     -0.729821    29A     -0.718138    30A     -0.715616
      31A     -0.704818    32A     -0.690748    33A     -0.668315
      34A     -0.654661    35A     -0.646312    36A     -0.639407
      37A     -0.623675    38A     -0.603891    39A     -0.594992
      40A     -0.579968    41A     -0.561367    42A     -0.558036
      43A     -0.546991    44A     -0.511471    45A     -0.494537
      46A     -0.490269    47A     -0.485885    48A     -0.470727
      49A     -0.464815    50A     -0.450724

  @DF-RHF Final Energy:  -756.25928066926463

   => Energetics <=

    Nuclear Repulsion Energy =            874.4625628803370319
    One-Electron Energy =               -2777.1707130653389868
    Two-Electron Energy =                1146.4488695157374423
    Total Energy =                       -756.2592806692646263
  Basis Set: (AUG-CC-PVTZ AUX)
    Blend: AUG-CC-PVTZ-RI
    Molecular point group: c1

    Geometry (in Angstrom), charge = 0, multiplicity = 1:

       Center              X                  Y                   Z               Mass
    ------------   -----------------  -----------------  -----------------  -----------------
         O           -0.309013401775     0.066633983124    -1.415454238934    15.994914619570
         O            1.177958598225     1.730682983124     1.389534761066    15.994914619570
         O            0.897273598225     2.372500983124    -0.773278238934    15.994914619570
         O            2.290009598225    -2.423187016876    -0.007679238934    15.994914619570
         O           -3.467409401775     0.074604983124    -0.544042238934    15.994914619570
         O            2.626973598225    -0.235266016876    -0.481059238934    15.994914619570
         O           -2.445161401775    -1.607474016876     0.574148761066    15.994914619570
         C           -0.116739401775     0.310173983124    -0.032095238934    12.000000000000
         C            0.549892598225    -0.922302016876     0.564478761066    12.000000000000
         C           -1.479940401775     0.619021983124     0.626351761066    12.000000000000
         C            0.746788498225     1.583449483124     0.118541961066    12.000000000000
         C            1.913857598225    -1.122328016876    -0.039335238934    12.000000000000
         C           -2.485899401775    -0.435176016876     0.237829761066    12.000000000000
         H           -0.077933401775    -1.796026016876     0.381968761066     1.007825032230
         H            0.663574598225    -0.817235016876     1.649264761066     1.007825032230
         H           -1.830115401775     1.595589983124     0.280903761066     1.007825032230
         H           -1.381799401775     0.637772983124     1.716304761066     1.007825032230
         H           -0.050015401775     0.893216983124    -1.873448238934     1.007825032230
         H            1.687945598225     2.568021983124     1.391005761066     1.007825032230
         H            3.191433598225    -2.448378016876    -0.391967238934     1.007825032230
         H           -4.050329401775    -0.682690016876    -0.763124238934     1.007825032230

  Basis Set: AUG-CC-PVTZ
    Blend: AUG-CC-PVTZ
  Basis Set: (AUG-CC-PVTZ AUX)
    Blend: AUG-CC-PVTZ-JKFIT
	 Reference Energy          =    -756.2592806692646263 [Eh]
	 Singles Energy            =      -0.0000000000000000 [Eh]
	 Same-Spin Energy          =      -0.7300391047785465 [Eh]
	 Opposite-Spin Energy      =      -2.1606235829154552 [Eh]
	 Correlation Energy        =      -2.8906626876940016 [Eh]
	 Total Energy              =    -759.1499433569586017 [Eh]

	 ================> DF-SCS-MP2 Energies <==================
	-----------------------------------------------------------
	 SCS Same-Spin Scale       =       0.3333333333333333 [-]
	 SCS Opposite-Spin Scale   =       1.2000000000000000 [-]
	 SCS Same-Spin Energy      =      -0.2433463682595155 [Eh]
	 SCS Opposite-Spin Energy  =      -2.5927482994985462 [Eh]
	 SCS Correlation Energy    =      -2.8360946677580618 [Eh]
	 SCS Total Energy          =    -759.0953753370226877 [Eh]
	-----------------------------------------------------------

  Dipole Moment: [D]
     X:    -0.1143      Y:     0.8514      Z:     1.8156     Total:     2.0086

*** Psi4 exiting successfully. Buy a developer a beer!
