                               Psi4 1.4a3.dev225

  ==> Input File <==

--------------------------------------------------------------------------
#psi4
#
memory 32 gb

molecule  {
0 1
  O       -0.2992690     0.0680640    -1.4275900
  O        1.1877140     1.7322170     1.3773330
  O        0.9070830     2.3739170    -0.7855270
  O        2.2997080    -2.4217750    -0.0198700
  O       -3.4574230     0.0760400    -0.5564670
  O        2.6367000    -0.2338780    -0.4933410
  O       -2.4354340    -1.6059620     0.5620860
  C       -0.1069630     0.3116450    -0.0442490
  C        0.5596710    -0.9208170     0.5523550
  C       -1.4701590     0.6204980     0.6142450
  C        0.7525055     1.5672700     0.1312148
  C        1.9235890    -1.1209070    -0.0515450
  C       -2.4760910    -0.4336940     0.2256510
  H       -0.0681940    -1.7945300     0.3699280
  H        0.6734230    -0.8156830     1.6371260
  H       -1.8203340     1.5970830     0.2688470
  H       -1.3719830     0.6391850     1.7041930
  H       -0.0401320     0.8945830    -1.8856220
  H        1.6977060     2.5695530     1.3787680
  H        3.2011100    -2.4470060    -0.4042100
  H       -4.0402960    -0.6812640    -0.7756360
units angstrom
no_reorient  #important for SAPT in psi4, default
symmetry c1  #important for SAPT in psi4, default
}

set PROPERTIES_ORIGIN ["COM"]
properties('MP2/aug-cc-pvtz', properties = ['dipole'])
--------------------------------------------------------------------------

    Molecular point group: c1
  Charge       = 0
  Multiplicity = 1
  Basis Set: AUG-CC-PVTZ
    Blend: AUG-CC-PVTZ
  Basis Set: (AUG-CC-PVTZ AUX)
    Blend: AUG-CC-PVTZ-JKFIT

    Orbital Energies [Eh]
    ---------------------

    Doubly Occupied:

       1A    -20.643948     2A    -20.626612     3A    -20.624958
       4A    -20.577710     5A    -20.567965     6A    -20.562357
       7A    -20.560968     8A    -11.412005     9A    -11.405993
      10A    -11.402295    11A    -11.340533    12A    -11.272924
      13A    -11.261728    14A     -1.492221    15A     -1.472208
      16A     -1.470323    17A     -1.398548    18A     -1.369367
      19A     -1.368133    20A     -1.365262    21A     -1.116504
      22A     -1.038732    23A     -0.952519    24A     -0.855915
      25A     -0.830240    26A     -0.796919    27A     -0.761516
      28A     -0.729144    29A     -0.718411    30A     -0.716073
      31A     -0.705348    32A     -0.690591    33A     -0.668883
      34A     -0.655773    35A     -0.644605    36A     -0.639255
      37A     -0.622278    38A     -0.604669    39A     -0.595422
      40A     -0.580206    41A     -0.562053    42A     -0.559034
      43A     -0.543614    44A     -0.502985    45A     -0.494637
      46A     -0.490286    47A     -0.484571    48A     -0.471454
      49A     -0.464847    50A     -0.451585

  @DF-RHF Final Energy:  -756.25723539079979

   => Energetics <=

    Nuclear Repulsion Energy =            874.5680719535381513
    One-Electron Energy =               -2777.3623535535530209
    Two-Electron Energy =                1146.5370462092150774
    Total Energy =                       -756.2572353907999059
  Basis Set: (AUG-CC-PVTZ AUX)
    Blend: AUG-CC-PVTZ-RI
    Molecular point group: c1

    Geometry (in Angstrom), charge = 0, multiplicity = 1:

       Center              X                  Y                   Z               Mass
    ------------   -----------------  -----------------  -----------------  -----------------
         O           -0.308794154300     0.067712024048    -1.416946794032    15.994914619570
         O            1.178188845700     1.731865024048     1.387976205968    15.994914619570
         O            0.897557845700     2.373565024048    -0.774883794032    15.994914619570
         O            2.290182845700    -2.422126975952    -0.009226794032    15.994914619570
         O           -3.466948154300     0.075688024048    -0.545823794032    15.994914619570
         O            2.627174845700    -0.234229975952    -0.482697794032    15.994914619570
         O           -2.444959154300    -1.606313975952     0.572729205968    15.994914619570
         C           -0.116488154300     0.311293024048    -0.033605794032    12.000000000000
         C            0.550145845700    -0.921168975952     0.562998205968    12.000000000000
         C           -1.479684154300     0.620146024048     0.624888205968    12.000000000000
         C            0.742980345700     1.566918024048     0.141858005968    12.000000000000
         C            1.914063845700    -1.121258975952    -0.040901794032    12.000000000000
         C           -2.485616154300    -0.434045975952     0.236294205968    12.000000000000
         H           -0.077719154300    -1.794881975952     0.380571205968     1.007825032230
         H            0.663897845700    -0.816034975952     1.647769205968     1.007825032230
         H           -1.829859154300     1.596731024048     0.279490205968     1.007825032230
         H           -1.381508154300     0.638833024048     1.714836205968     1.007825032230
         H           -0.049657154300     0.894231024048    -1.874978794032     1.007825032230
         H            1.688180845700     2.569201024048     1.389411205968     1.007825032230
         H            3.191584845700    -2.447357975952    -0.393566794032     1.007825032230
         H           -4.049821154300    -0.681615975952    -0.764992794032     1.007825032230

  Basis Set: AUG-CC-PVTZ
    Blend: AUG-CC-PVTZ
  Basis Set: (AUG-CC-PVTZ AUX)
    Blend: AUG-CC-PVTZ-JKFIT
	 Reference Energy          =    -756.2572353907997922 [Eh]
	 Singles Energy            =      -0.0000000000000000 [Eh]
	 Same-Spin Energy          =      -0.7306743950873126 [Eh]
	 Opposite-Spin Energy      =      -2.1616420924650797 [Eh]
	 Correlation Energy        =      -2.8923164875523923 [Eh]
	 Total Energy              =    -759.1495518783522130 [Eh]

	 ================> DF-SCS-MP2 Energies <==================
	-----------------------------------------------------------
	 SCS Same-Spin Scale       =       0.3333333333333333 [-]
	 SCS Opposite-Spin Scale   =       1.2000000000000000 [-]
	 SCS Same-Spin Energy      =      -0.2435581316957708 [Eh]
	 SCS Opposite-Spin Energy  =      -2.5939705109580955 [Eh]
	 SCS Correlation Energy    =      -2.8375286426538664 [Eh]
	 SCS Total Energy          =    -759.0947640334536572 [Eh]
	-----------------------------------------------------------

  Dipole Moment: [D]
     X:    -0.1147      Y:     0.7564      Z:     1.9979     Total:     2.1393

*** Psi4 exiting successfully. Buy a developer a beer!
