                               Psi4 1.3.2 release

  ==> Input File <==

--------------------------------------------------------------------------
#psi4
#
memory 32 gb

molecule  {
0 1
  O       -0.2992330     0.0680890    -1.4276520
  O        1.1877390     1.7321380     1.3773370
  O        0.9070540     2.3739560    -0.7854760
  O        2.2997900    -2.4217320    -0.0198770
  O       -3.4576290     0.0760600    -0.5562400
  O        2.6367540    -0.2338110    -0.4932570
  O       -2.4353810    -1.6060190     0.5619510
  C       -0.0763943     0.4026831    -0.0681106
  C        0.5596730    -0.9208470     0.5522810
  C       -1.4701600     0.6204770     0.6141540
  C        0.7459700     1.5647750     0.1124900
  C        1.9236380    -1.1208730    -0.0515330
  C       -2.4761190    -0.4337210     0.2256320
  H       -0.0681530    -1.7945710     0.3697710
  H        0.6733550    -0.8157800     1.6370670
  H       -1.8203350     1.5970450     0.2687060
  H       -1.3720190     0.6392280     1.7041070
  H       -0.0402350     0.8946720    -1.8856460
  H        1.6977260     2.5694770     1.3788080
  H        3.2012140    -2.4469230    -0.4041650
  H       -4.0405490    -0.6812350    -0.7753220
units angstrom
no_reorient  #important for SAPT in psi4, default
symmetry c1  #important for SAPT in psi4, default
}

set PROPERTIES_ORIGIN ["COM"]
properties('MP2/aug-cc-pvtz', properties = ['dipole'])
--------------------------------------------------------------------------

    Molecular point group: c1
  Charge       = 0
  Multiplicity = 1
  Basis Set: AUG-CC-PVTZ
    Blend: AUG-CC-PVTZ
  Basis Set: (AUG-CC-PVTZ AUX)
    Blend: AUG-CC-PVTZ-JKFIT

    Orbital Energies [Eh]
    ---------------------

    Doubly Occupied:

       1A    -20.639915     2A    -20.627359     3A    -20.623749
       4A    -20.582671     5A    -20.571846     6A    -20.563027
       7A    -20.559728     8A    -11.410417     9A    -11.407331
      10A    -11.400435    11A    -11.339072    12A    -11.275076
      13A    -11.264423    14A     -1.489545    15A     -1.472694
      16A     -1.469067    17A     -1.403545    18A     -1.373644
      19A     -1.368913    20A     -1.365813    21A     -1.112944
      22A     -1.033019    23A     -0.972504    24A     -0.849922
      25A     -0.828098    26A     -0.798704    27A     -0.762336
      28A     -0.729596    29A     -0.719251    30A     -0.714691
      31A     -0.705467    32A     -0.692091    33A     -0.666198
      34A     -0.654353    35A     -0.642506    36A     -0.638781
      37A     -0.620628    38A     -0.602887    39A     -0.596556
      40A     -0.579266    41A     -0.569123    42A     -0.558327
      43A     -0.544991    44A     -0.506639    45A     -0.494268
      46A     -0.489217    47A     -0.486567    48A     -0.470912
      49A     -0.461064    50A     -0.455351

  @DF-RHF Final Energy:  -756.24704207294110

   => Energetics <=

    Nuclear Repulsion Energy =            874.7270763419618334
    One-Electron Energy =               -2777.6191778864008484
    Two-Electron Energy =                1146.6450594714979161
    Total Energy =                       -756.2470420729409852
  Basis Set: (AUG-CC-PVTZ AUX)
    Blend: AUG-CC-PVTZ-RI
    Molecular point group: c1

    Geometry (in Angstrom), charge = 0, multiplicity = 1:

       Center              X                  Y                   Z               Mass
    ------------   -----------------  -----------------  -----------------  -----------------
         O           -0.310261088802     0.062201818957    -1.414349906745    15.994914619570
         O            1.176710911198     1.726250818957     1.390639093255    15.994914619570
         O            0.896025911198     2.368068818957    -0.772173906745    15.994914619570
         O            2.288761911198    -2.427619181043    -0.006574906745    15.994914619570
         O           -3.468657088802     0.070172818957    -0.542937906745    15.994914619570
         O            2.625725911198    -0.239698181043    -0.479954906745    15.994914619570
         O           -2.446409088802    -1.611906181043     0.575253093255    15.994914619570
         C           -0.087422388802     0.396795918957    -0.054808506745    12.000000000000
         C            0.548644911198    -0.926734181043     0.565583093255    12.000000000000
         C           -1.481188088802     0.614589818957     0.627456093255    12.000000000000
         C            0.734941911198     1.558887818957     0.125792093255    12.000000000000
         C            1.912609911198    -1.126760181043    -0.038230906745    12.000000000000
         C           -2.487147088802    -0.439608181043     0.238934093255    12.000000000000
         H           -0.079181088802    -1.800458181043     0.383073093255     1.007825032230
         H            0.662326911198    -0.821667181043     1.650369093255     1.007825032230
         H           -1.831363088802     1.591157818957     0.282008093255     1.007825032230
         H           -1.383047088802     0.633340818957     1.717409093255     1.007825032230
         H           -0.051263088802     0.888784818957    -1.872343906745     1.007825032230
         H            1.686697911198     2.563589818957     1.392110093255     1.007825032230
         H            3.190185911198    -2.452810181043    -0.390862906745     1.007825032230
         H           -4.051577088802    -0.687122181043    -0.762019906745     1.007825032230

  Basis Set: AUG-CC-PVTZ
    Blend: AUG-CC-PVTZ
  Basis Set: (AUG-CC-PVTZ AUX)
    Blend: AUG-CC-PVTZ-JKFIT
	 Reference Energy          =    -756.2470420729410989 [Eh]
	 Singles Energy            =      -0.0000000000000000 [Eh]
	 Same-Spin Energy          =      -0.7309520854659423 [Eh]
	 Opposite-Spin Energy      =      -2.1627217404047974 [Eh]
	 Correlation Energy        =      -2.8936738258707395 [Eh]
	 Total Energy              =    -759.1407158988118908 [Eh]

	 ================> DF-SCS-MP2 Energies <==================
	-----------------------------------------------------------
	 SCS Same-Spin Scale       =       0.3333333333333333 [-]
	 SCS Opposite-Spin Scale   =       1.2000000000000000 [-]
	 SCS Same-Spin Energy      =      -0.2436506951553141 [Eh]
	 SCS Opposite-Spin Energy  =      -2.5952660884857566 [Eh]
	 SCS Correlation Energy    =      -2.8389167836410705 [Eh]
	 SCS Total Energy          =    -759.0859588565821241 [Eh]
	-----------------------------------------------------------

  Dipole Moment: [D]
     X:    -0.2302      Y:     0.7551      Z:     1.7910     Total:     1.9572

*** Psi4 exiting successfully. Buy a developer a beer!
