                               Psi4 1.3.2 release

  ==> Input File <==

--------------------------------------------------------------------------
#psi4
#
memory 32 gb

molecule  {
0 1
  O       -0.2992330     0.0680890    -1.4276520
  O        1.2228001     1.8154163     1.3505611
  O        0.9070540     2.3739560    -0.7854760
  O        2.2997900    -2.4217320    -0.0198770
  O       -3.4576290     0.0760600    -0.5562400
  O        2.6367540    -0.2338110    -0.4932570
  O       -2.4353810    -1.6060190     0.5619510
  C       -0.1069590     0.3116290    -0.0442930
  C        0.5596730    -0.9208470     0.5522810
  C       -1.4701600     0.6204770     0.6141540
  C        0.7459700     1.5647750     0.1124900
  C        1.9236380    -1.1208730    -0.0515330
  C       -2.4761190    -0.4337210     0.2256320
  H       -0.0681530    -1.7945710     0.3697710
  H        0.6733550    -0.8157800     1.6370670
  H       -1.8203350     1.5970450     0.2687060
  H       -1.3720190     0.6392280     1.7041070
  H       -0.0402350     0.8946720    -1.8856460
  H        1.6977260     2.5694770     1.3788080
  H        3.2012140    -2.4469230    -0.4041650
  H       -4.0405490    -0.6812350    -0.7753220
units angstrom
no_reorient  #important for SAPT in psi4, default
symmetry c1  #important for SAPT in psi4, default
}

set PROPERTIES_ORIGIN ["COM"]
properties('MP2/aug-cc-pvtz', properties = ['dipole'])
--------------------------------------------------------------------------

    Molecular point group: c1
  Charge       = 0
  Multiplicity = 1
  Basis Set: AUG-CC-PVTZ
    Blend: AUG-CC-PVTZ
  Basis Set: (AUG-CC-PVTZ AUX)
    Blend: AUG-CC-PVTZ-JKFIT

    Orbital Energies [Eh]
    ---------------------

    Doubly Occupied:

       1A    -20.628013     2A    -20.625871     3A    -20.624843
       4A    -20.581031     5A    -20.567187     6A    -20.563939
       7A    -20.561968     8A    -11.411868     9A    -11.407678
      10A    -11.403437    11A    -11.345406    12A    -11.275183
      13A    -11.264123    14A     -1.494599    15A     -1.473687
      16A     -1.471341    17A     -1.402780    18A     -1.372171
      19A     -1.369805    20A     -1.367379    21A     -1.120206
      22A     -1.040689    23A     -0.960379    24A     -0.865584
      25A     -0.832053    26A     -0.805619    27A     -0.766789
      28A     -0.726911    29A     -0.719662    30A     -0.717067
      31A     -0.706123    32A     -0.692356    33A     -0.670920
      34A     -0.654349    35A     -0.644367    36A     -0.637972
      37A     -0.621645    38A     -0.606109    39A     -0.596217
      40A     -0.581598    41A     -0.564156    42A     -0.561880
      43A     -0.547264    44A     -0.503198    45A     -0.496202
      46A     -0.491230    47A     -0.485454    48A     -0.473839
      49A     -0.466469    50A     -0.454210

  @DF-RHF Final Energy:  -756.25480082554463

   => Energetics <=

    Nuclear Repulsion Energy =            873.9663960445126349
    One-Electron Energy =               -2775.9967372715432248
    Two-Electron Energy =                1145.7755404014858414
    Total Energy =                       -756.2548008255446348
  Basis Set: (AUG-CC-PVTZ AUX)
    Blend: AUG-CC-PVTZ-RI
    Molecular point group: c1

    Geometry (in Angstrom), charge = 0, multiplicity = 1:

       Center              X                  Y                   Z               Mass
    ------------   -----------------  -----------------  -----------------  -----------------
         O           -0.311271482645     0.060955222932    -1.413607995283    15.994914619570
         O            1.210761617355     1.808282522932     1.364605104717    15.994914619570
         O            0.895015517355     2.366822222932    -0.771431995283    15.994914619570
         O            2.287751517355    -2.428865777068    -0.005832995283    15.994914619570
         O           -3.469667482645     0.068926222932    -0.542195995283    15.994914619570
         O            2.624715517355    -0.240944777068    -0.479212995283    15.994914619570
         O           -2.447419482645    -1.613152777068     0.575995004717    15.994914619570
         C           -0.118997482645     0.304495222932    -0.030248995283    12.000000000000
         C            0.547634517355    -0.927980777068     0.566325004717    12.000000000000
         C           -1.482198482645     0.613343222932     0.628198004717    12.000000000000
         C            0.733931517355     1.557641222932     0.126534004717    12.000000000000
         C            1.911599517355    -1.128006777068    -0.037488995283    12.000000000000
         C           -2.488157482645    -0.440854777068     0.239676004717    12.000000000000
         H           -0.080191482645    -1.801704777068     0.383815004717     1.007825032230
         H            0.661316517355    -0.822913777068     1.651111004717     1.007825032230
         H           -1.832373482645     1.589911222932     0.282750004717     1.007825032230
         H           -1.384057482645     0.632094222932     1.718151004717     1.007825032230
         H           -0.052273482645     0.887538222932    -1.871601995283     1.007825032230
         H            1.685687517355     2.562343222932     1.392852004717     1.007825032230
         H            3.189175517355    -2.454056777068    -0.390120995283     1.007825032230
         H           -4.052587482645    -0.688368777068    -0.761277995283     1.007825032230

  Basis Set: AUG-CC-PVTZ
    Blend: AUG-CC-PVTZ
  Basis Set: (AUG-CC-PVTZ AUX)
    Blend: AUG-CC-PVTZ-JKFIT
	 Reference Energy          =    -756.2548008255446348 [Eh]
	 Singles Energy            =      -0.0000000000000000 [Eh]
	 Same-Spin Energy          =      -0.7288890822146257 [Eh]
	 Opposite-Spin Energy      =      -2.1581718275603636 [Eh]
	 Correlation Energy        =      -2.8870609097749895 [Eh]
	 Total Energy              =    -759.1418617353195941 [Eh]

	 ================> DF-SCS-MP2 Energies <==================
	-----------------------------------------------------------
	 SCS Same-Spin Scale       =       0.3333333333333333 [-]
	 SCS Opposite-Spin Scale   =       1.2000000000000000 [-]
	 SCS Same-Spin Energy      =      -0.2429630274048752 [Eh]
	 SCS Opposite-Spin Energy  =      -2.5898061930724361 [Eh]
	 SCS Correlation Energy    =      -2.8327692204773114 [Eh]
	 SCS Total Energy          =    -759.0875700460219377 [Eh]
	-----------------------------------------------------------

  Dipole Moment: [D]
     X:    -0.2776      Y:     0.5534      Z:     1.8139     Total:     1.9166

*** Psi4 exiting successfully. Buy a developer a beer!
