                               Psi4 1.3.2 release

  ==> Input File <==

--------------------------------------------------------------------------
#psi4
#
memory 32 gb

molecule  {
0 1
  O       -0.2992330     0.0680890    -1.4276520
  O        1.1877390     1.7321380     1.3773370
  O        0.9070540     2.3739560    -0.7854760
  O        2.2997900    -2.4217320    -0.0198770
  O       -3.4576290     0.0760600    -0.5562400
  O        2.6367540    -0.2338110    -0.4932570
  O       -2.4353810    -1.6060190     0.5619510
  C       -0.1069590     0.3116290    -0.0442930
  C        0.5596730    -0.9208470     0.5522810
  C       -1.4701600     0.6204770     0.6141540
  C        0.7459700     1.5647750     0.1124900
  C        2.0074344    -1.1010280    -0.0905580
  C       -2.4761190    -0.4337210     0.2256320
  H       -0.0681530    -1.7945710     0.3697710
  H        0.6733550    -0.8157800     1.6370670
  H       -1.8203350     1.5970450     0.2687060
  H       -1.3720190     0.6392280     1.7041070
  H       -0.0402350     0.8946720    -1.8856460
  H        1.6977260     2.5694770     1.3788080
  H        3.2012140    -2.4469230    -0.4041650
  H       -4.0405490    -0.6812350    -0.7753220
units angstrom
no_reorient  #important for SAPT in psi4, default
symmetry c1  #important for SAPT in psi4, default
}

set PROPERTIES_ORIGIN ["COM"]
properties('MP2/aug-cc-pvtz', properties = ['dipole'])
--------------------------------------------------------------------------

    Molecular point group: c1
  Charge       = 0
  Multiplicity = 1
  Basis Set: AUG-CC-PVTZ
    Blend: AUG-CC-PVTZ
  Basis Set: (AUG-CC-PVTZ AUX)
    Blend: AUG-CC-PVTZ-JKFIT

    Orbital Energies [Eh]
    ---------------------

    Doubly Occupied:

       1A    -20.638275     2A    -20.624652     3A    -20.624628
       4A    -20.575831     5A    -20.572337     6A    -20.571591
       7A    -20.559781     8A    -11.410465     9A    -11.403531
      10A    -11.395042    11A    -11.335617    12A    -11.270221
      13A    -11.255385    14A     -1.497934    15A     -1.484243
      16A     -1.469967    17A     -1.404852    18A     -1.396739
      19A     -1.370699    20A     -1.365873    21A     -1.109031
      22A     -1.022509    23A     -0.943416    24A     -0.847821
      25A     -0.825927    26A     -0.792476    27A     -0.757751
      28A     -0.733135    29A     -0.723195    30A     -0.716232
      31A     -0.708168    32A     -0.690785    33A     -0.671833
      34A     -0.659868    35A     -0.643872    36A     -0.637871
      37A     -0.620375    38A     -0.608998    39A     -0.593643
      40A     -0.584839    41A     -0.558156    42A     -0.556113
      43A     -0.542855    44A     -0.517086    45A     -0.504018
      46A     -0.492602    47A     -0.484362    48A     -0.470842
      49A     -0.459429    50A     -0.445178

  @DF-RHF Final Energy:  -756.25069822043372

   => Energetics <=

    Nuclear Repulsion Energy =            874.5018108580956095
    One-Electron Energy =               -2777.2049180805297510
    Two-Electron Energy =                1146.4524090020004223
    Total Energy =                       -756.2506982204336055
  Basis Set: (AUG-CC-PVTZ AUX)
    Blend: AUG-CC-PVTZ-RI
    Molecular point group: c1

    Geometry (in Angstrom), charge = 0, multiplicity = 1:

       Center              X                  Y                   Z               Mass
    ------------   -----------------  -----------------  -----------------  -----------------
         O           -0.313587602217     0.066651761874    -1.413399577898    15.994914619570
         O            1.173384397783     1.730700761874     1.391589422102    15.994914619570
         O            0.892699397783     2.372518761874    -0.771223577898    15.994914619570
         O            2.285435397783    -2.423169238126    -0.005624577898    15.994914619570
         O           -3.471983602217     0.074622761874    -0.541987577898    15.994914619570
         O            2.622399397783    -0.235248238126    -0.479004577898    15.994914619570
         O           -2.449735602217    -1.607456238126     0.576203422102    15.994914619570
         C           -0.121313602217     0.310191761874    -0.030040577898    12.000000000000
         C            0.545318397783    -0.922284238126     0.566533422102    12.000000000000
         C           -1.484514602217     0.619039761874     0.628406422102    12.000000000000
         C            0.731615397783     1.563337761874     0.126742422102    12.000000000000
         C            1.993079797783    -1.102465238126    -0.076305577898    12.000000000000
         C           -2.490473602217    -0.435158238126     0.239884422102    12.000000000000
         H           -0.082507602217    -1.796008238126     0.384023422102     1.007825032230
         H            0.659000397783    -0.817217238126     1.651319422102     1.007825032230
         H           -1.834689602217     1.595607761874     0.282958422102     1.007825032230
         H           -1.386373602217     0.637790761874     1.718359422102     1.007825032230
         H           -0.054589602217     0.893234761874    -1.871393577898     1.007825032230
         H            1.683371397783     2.568039761874     1.393060422102     1.007825032230
         H            3.186859397783    -2.448360238126    -0.389912577898     1.007825032230
         H           -4.054903602217    -0.682672238126    -0.761069577898     1.007825032230

  Basis Set: AUG-CC-PVTZ
    Blend: AUG-CC-PVTZ
  Basis Set: (AUG-CC-PVTZ AUX)
    Blend: AUG-CC-PVTZ-JKFIT
	 Reference Energy          =    -756.2506982204337191 [Eh]
	 Singles Energy            =      -0.0000000000000000 [Eh]
	 Same-Spin Energy          =      -0.7289785848909163 [Eh]
	 Opposite-Spin Energy      =      -2.1586391249047070 [Eh]
	 Correlation Energy        =      -2.8876177097956233 [Eh]
	 Total Energy              =    -759.1383159302293961 [Eh]

	 ================> DF-SCS-MP2 Energies <==================
	-----------------------------------------------------------
	 SCS Same-Spin Scale       =       0.3333333333333333 [-]
	 SCS Opposite-Spin Scale   =       1.2000000000000000 [-]
	 SCS Same-Spin Energy      =      -0.2429928616303054 [Eh]
	 SCS Opposite-Spin Energy  =      -2.5903669498856483 [Eh]
	 SCS Correlation Energy    =      -2.8333598115159537 [Eh]
	 SCS Total Energy          =    -759.0840580319496667 [Eh]
	-----------------------------------------------------------

  Dipole Moment: [D]
     X:     0.3170      Y:     0.8593      Z:     1.6661     Total:     1.9013

*** Psi4 exiting successfully. Buy a developer a beer!
