                               Psi4 1.3.2 release

  ==> Input File <==

--------------------------------------------------------------------------
#psi4
#
memory 32 gb

molecule  {
0 1
  O       -0.3260722     0.0281772    -1.4160100
  O        1.1877390     1.7321380     1.3773370
  O        0.9070540     2.3739560    -0.7854760
  O        2.2997900    -2.4217320    -0.0198770
  O       -3.4576290     0.0760600    -0.5562400
  O        2.6367540    -0.2338110    -0.4932570
  O       -2.4353810    -1.6060190     0.5619510
  C       -0.1069590     0.3116290    -0.0442930
  C        0.5596730    -0.9208470     0.5522810
  C       -1.4701600     0.6204770     0.6141540
  C        0.7459700     1.5647750     0.1124900
  C        1.9236380    -1.1208730    -0.0515330
  C       -2.4761190    -0.4337210     0.2256320
  H       -0.0681530    -1.7945710     0.3697710
  H        0.6733550    -0.8157800     1.6370670
  H       -1.8203350     1.5970450     0.2687060
  H       -1.3720190     0.6392280     1.7041070
  H       -0.0402350     0.8946720    -1.8856460
  H        1.6977260     2.5694770     1.3788080
  H        3.2012140    -2.4469230    -0.4041650
  H       -4.0405490    -0.6812350    -0.7753220
units angstrom
no_reorient  #important for SAPT in psi4, default
symmetry c1  #important for SAPT in psi4, default
}

set PROPERTIES_ORIGIN ["COM"]
properties('MP2/aug-cc-pvtz', properties = ['dipole'])
--------------------------------------------------------------------------

    Molecular point group: c1
  Charge       = 0
  Multiplicity = 1
  Basis Set: AUG-CC-PVTZ
    Blend: AUG-CC-PVTZ
  Basis Set: (AUG-CC-PVTZ AUX)
    Blend: AUG-CC-PVTZ-JKFIT

    Orbital Energies [Eh]
    ---------------------

    Doubly Occupied:

       1A    -20.639453     2A    -20.626276     3A    -20.624930
       4A    -20.583066     5A    -20.573132     6A    -20.561881
       7A    -20.561123     8A    -11.413213     9A    -11.405697
      10A    -11.402321    11A    -11.339903    12A    -11.272615
      13A    -11.261082    14A     -1.486627    15A     -1.471810
      16A     -1.470202    17A     -1.395231    18A     -1.372197
      19A     -1.368143    20A     -1.365829    21A     -1.114314
      22A     -1.038531    23A     -0.952936    24A     -0.852507
      25A     -0.829797    26A     -0.792226    27A     -0.757422
      28A     -0.728876    29A     -0.717935    30A     -0.716051
      31A     -0.704018    32A     -0.690086    33A     -0.669286
      34A     -0.654047    35A     -0.641183    36A     -0.638333
      37A     -0.622734    38A     -0.604197    39A     -0.594841
      40A     -0.580261    41A     -0.560686    42A     -0.558758
      43A     -0.545346    44A     -0.507220    45A     -0.494309
      46A     -0.490461    47A     -0.486285    48A     -0.471196
      49A     -0.465493    50A     -0.452781

  @DF-RHF Final Energy:  -756.25262445298722

   => Energetics <=

    Nuclear Repulsion Energy =            874.5378496747251802
    One-Electron Energy =               -2777.3272488156385407
    Two-Electron Energy =                1146.5367746879260267
    Total Energy =                       -756.2526244529872201
  Basis Set: (AUG-CC-PVTZ AUX)
    Blend: AUG-CC-PVTZ-RI
    Molecular point group: c1

    Geometry (in Angstrom), charge = 0, multiplicity = 1:

       Center              X                  Y                   Z               Mass
    ------------   -----------------  -----------------  -----------------  -----------------
         O           -0.332954688956     0.031304558631    -1.405166019352    15.994914619570
         O            1.180856511044     1.735265358631     1.388180980648    15.994914619570
         O            0.900171511044     2.377083358631    -0.774632019352    15.994914619570
         O            2.292907511044    -2.418604641369    -0.009033019352    15.994914619570
         O           -3.464511488956     0.079187358631    -0.545396019352    15.994914619570
         O            2.629871511044    -0.230683641369    -0.482413019352    15.994914619570
         O           -2.442263488956    -1.602891641369     0.572794980648    15.994914619570
         C           -0.113841488956     0.314756358631    -0.033449019352    12.000000000000
         C            0.552790511044    -0.917719641369     0.563124980648    12.000000000000
         C           -1.477042488956     0.623604358631     0.624997980648    12.000000000000
         C            0.739087511044     1.567902358631     0.123333980648    12.000000000000
         C            1.916755511044    -1.117745641369    -0.040689019352    12.000000000000
         C           -2.483001488956    -0.430593641369     0.236475980648    12.000000000000
         H           -0.075035488956    -1.791443641369     0.380614980648     1.007825032230
         H            0.666472511044    -0.812652641369     1.647910980648     1.007825032230
         H           -1.827217488956     1.600172358631     0.279549980648     1.007825032230
         H           -1.378901488956     0.642355358631     1.714950980648     1.007825032230
         H           -0.047117488956     0.897799358631    -1.874802019352     1.007825032230
         H            1.690843511044     2.572604358631     1.389651980648     1.007825032230
         H            3.194331511044    -2.443795641369    -0.393321019352     1.007825032230
         H           -4.047431488956    -0.678107641369    -0.764478019352     1.007825032230

  Basis Set: AUG-CC-PVTZ
    Blend: AUG-CC-PVTZ
  Basis Set: (AUG-CC-PVTZ AUX)
    Blend: AUG-CC-PVTZ-JKFIT
	 Reference Energy          =    -756.2526244529872201 [Eh]
	 Singles Energy            =      -0.0000000000000000 [Eh]
	 Same-Spin Energy          =      -0.7313574846589868 [Eh]
	 Opposite-Spin Energy      =      -2.1634330550380581 [Eh]
	 Correlation Energy        =      -2.8947905396970448 [Eh]
	 Total Energy              =    -759.1474149926842756 [Eh]

	 ================> DF-SCS-MP2 Energies <==================
	-----------------------------------------------------------
	 SCS Same-Spin Scale       =       0.3333333333333333 [-]
	 SCS Opposite-Spin Scale   =       1.2000000000000000 [-]
	 SCS Same-Spin Energy      =      -0.2437858282196622 [Eh]
	 SCS Opposite-Spin Energy  =      -2.5961196660456696 [Eh]
	 SCS Correlation Energy    =      -2.8399054942653317 [Eh]
	 SCS Total Energy          =    -759.0925299472525012 [Eh]
	-----------------------------------------------------------

  Dipole Moment: [D]
     X:    -0.1058      Y:     0.8114      Z:     1.8306     Total:     2.0052

*** Psi4 exiting successfully. Buy a developer a beer!
