                               Psi4 1.3.2 release

  ==> Input File <==

--------------------------------------------------------------------------
#psi4
#
memory 32 gb

molecule  {
0 1
  O       -0.2992330     0.0680890    -1.4276520
  O        1.1877390     1.7321380     1.3773370
  O        0.9070540     2.3739560    -0.7854760
  O        2.2997900    -2.4217320    -0.0198770
  O       -3.4576290     0.0760600    -0.5562400
  O        2.6367540    -0.2338110    -0.4932570
  O       -2.4353810    -1.6060190     0.5619510
  C       -0.1069590     0.3116290    -0.0442930
  C        0.5596730    -0.9208470     0.5522810
  C       -1.4701600     0.6204770     0.6141540
  C        0.7459700     1.5647750     0.1124900
  C        1.9494323    -1.0255532    -0.0157048
  C       -2.4761190    -0.4337210     0.2256320
  H       -0.0681530    -1.7945710     0.3697710
  H        0.6733550    -0.8157800     1.6370670
  H       -1.8203350     1.5970450     0.2687060
  H       -1.3720190     0.6392280     1.7041070
  H       -0.0402350     0.8946720    -1.8856460
  H        1.6977260     2.5694770     1.3788080
  H        3.2012140    -2.4469230    -0.4041650
  H       -4.0405490    -0.6812350    -0.7753220
units angstrom
no_reorient  #important for SAPT in psi4, default
symmetry c1  #important for SAPT in psi4, default
}

set PROPERTIES_ORIGIN ["COM"]
properties('MP2/aug-cc-pvtz', properties = ['dipole'])
--------------------------------------------------------------------------

    Molecular point group: c1
  Charge       = 0
  Multiplicity = 1
  Basis Set: AUG-CC-PVTZ
    Blend: AUG-CC-PVTZ
  Basis Set: (AUG-CC-PVTZ AUX)
    Blend: AUG-CC-PVTZ-JKFIT

    Orbital Energies [Eh]
    ---------------------

    Doubly Occupied:

       1A    -20.643121     2A    -20.627724     3A    -20.598939
       4A    -20.580818     5A    -20.578135     6A    -20.576297
       7A    -20.563612     8A    -11.415509     9A    -11.407310
      10A    -11.398013    11A    -11.342469    12A    -11.274614
      13A    -11.263427    14A     -1.491951    15A     -1.481209
      16A     -1.473318    17A     -1.402155    18A     -1.375535
      19A     -1.369553    20A     -1.364811    21A     -1.119826
      22A     -1.040131    23A     -0.952671    24A     -0.850288
      25A     -0.821649    26A     -0.790357    27A     -0.761963
      28A     -0.731841    29A     -0.721080    30A     -0.718445
      31A     -0.707817    32A     -0.691361    33A     -0.670422
      34A     -0.653436    35A     -0.647032    36A     -0.638917
      37A     -0.622523    38A     -0.611442    39A     -0.595389
      40A     -0.588086    41A     -0.561437    42A     -0.558106
      43A     -0.547779    44A     -0.511244    45A     -0.502957
      46A     -0.496534    47A     -0.489324    48A     -0.476040
      49A     -0.464000    50A     -0.454531

  @DF-RHF Final Energy:  -756.24838608310040

   => Energetics <=

    Nuclear Repulsion Energy =            875.3732718805750892
    One-Electron Energy =               -2778.7930234519049009
    Two-Electron Energy =                1147.1713654882294122
    Total Energy =                       -756.2483860831005131
  Basis Set: (AUG-CC-PVTZ AUX)
    Blend: AUG-CC-PVTZ-RI
    Molecular point group: c1

    Geometry (in Angstrom), charge = 0, multiplicity = 1:

       Center              X                  Y                   Z               Mass
    ------------   -----------------  -----------------  -----------------  -----------------
         O           -0.309962980728     0.061935250197    -1.418077245038    15.994914619570
         O            1.177009019272     1.725984250197     1.386911754962    15.994914619570
         O            0.896324019272     2.367802250197    -0.775901245038    15.994914619570
         O            2.289060019272    -2.427885749803    -0.010302245038    15.994914619570
         O           -3.468358980728     0.069906250197    -0.546665245038    15.994914619570
         O            2.626024019272    -0.239964749803    -0.483682245038    15.994914619570
         O           -2.446110980728    -1.612172749803     0.571525754962    15.994914619570
         C           -0.117688980728     0.305475250197    -0.034718245038    12.000000000000
         C            0.548943019272    -0.927000749803     0.561855754962    12.000000000000
         C           -1.480889980728     0.614323250197     0.623728754962    12.000000000000
         C            0.735240019272     1.558621250197     0.122064754962    12.000000000000
         C            1.938702319272    -1.031706949803    -0.006130045038    12.000000000000
         C           -2.486848980728    -0.439874749803     0.235206754962    12.000000000000
         H           -0.078882980728    -1.800724749803     0.379345754962     1.007825032230
         H            0.662625019272    -0.821933749803     1.646641754962     1.007825032230
         H           -1.831064980728     1.590891250197     0.278280754962     1.007825032230
         H           -1.382748980728     0.633074250197     1.713681754962     1.007825032230
         H           -0.050964980728     0.888518250197    -1.876071245038     1.007825032230
         H            1.686996019272     2.563323250197     1.388382754962     1.007825032230
         H            3.190484019272    -2.453076749803    -0.394590245038     1.007825032230
         H           -4.051278980728    -0.687388749803    -0.765747245038     1.007825032230

  Basis Set: AUG-CC-PVTZ
    Blend: AUG-CC-PVTZ
  Basis Set: (AUG-CC-PVTZ AUX)
    Blend: AUG-CC-PVTZ-JKFIT
	 Reference Energy          =    -756.2483860831003994 [Eh]
	 Singles Energy            =      -0.0000000000000000 [Eh]
	 Same-Spin Energy          =      -0.7300940480858211 [Eh]
	 Opposite-Spin Energy      =      -2.1612211985476470 [Eh]
	 Correlation Energy        =      -2.8913152466334680 [Eh]
	 Total Energy              =    -759.1397013297338390 [Eh]

	 ================> DF-SCS-MP2 Energies <==================
	-----------------------------------------------------------
	 SCS Same-Spin Scale       =       0.3333333333333333 [-]
	 SCS Opposite-Spin Scale   =       1.2000000000000000 [-]
	 SCS Same-Spin Energy      =      -0.2433646826952737 [Eh]
	 SCS Opposite-Spin Energy  =      -2.5934654382571765 [Eh]
	 SCS Correlation Energy    =      -2.8368301209524502 [Eh]
	 SCS Total Energy          =    -759.0852162040528128 [Eh]
	-----------------------------------------------------------

  Dipole Moment: [D]
     X:    -0.2513      Y:     1.5601      Z:     1.8339     Total:     2.4208

*** Psi4 exiting successfully. Buy a developer a beer!
