                               Psi4 1.3.2 release

  ==> Input File <==

--------------------------------------------------------------------------
#psi4
#
memory 32 gb

molecule  {
0 1
  O       -0.2992330     0.0680890    -1.4276520
  O        1.1877390     1.7321380     1.3773370
  O        0.9070540     2.3739560    -0.7854760
  O        2.2997900    -2.4217320    -0.0198770
  O       -3.4576290     0.0760600    -0.5562400
  O        2.6367540    -0.2338110    -0.4932570
  O       -2.4353810    -1.6060190     0.5619510
  C       -0.0992241     0.3345212    -0.0496195
  C        0.5596730    -0.9208470     0.5522810
  C       -1.4701600     0.6204770     0.6141540
  C        0.7459700     1.5647750     0.1124900
  C        1.9236380    -1.1208730    -0.0515330
  C       -2.4761190    -0.4337210     0.2256320
  H       -0.0681530    -1.7945710     0.3697710
  H        0.6733550    -0.8157800     1.6370670
  H       -1.8203350     1.5970450     0.2687060
  H       -1.3720190     0.6392280     1.7041070
  H       -0.0402350     0.8946720    -1.8856460
  H        1.6977260     2.5694770     1.3788080
  H        3.2012140    -2.4469230    -0.4041650
  H       -4.0405490    -0.6812350    -0.7753220
units angstrom
no_reorient  #important for SAPT in psi4, default
symmetry c1  #important for SAPT in psi4, default
}

set PROPERTIES_ORIGIN ["COM"]
properties('MP2/aug-cc-pvtz', properties = ['dipole'])
--------------------------------------------------------------------------

    Molecular point group: c1
  Charge       = 0
  Multiplicity = 1
  Basis Set: AUG-CC-PVTZ
    Blend: AUG-CC-PVTZ
  Basis Set: (AUG-CC-PVTZ AUX)
    Blend: AUG-CC-PVTZ-JKFIT

    Orbital Energies [Eh]
    ---------------------

    Doubly Occupied:

       1A    -20.638740     2A    -20.627029     3A    -20.624705
       4A    -20.579345     5A    -20.571593     6A    -20.562747
       7A    -20.560721     8A    -11.411527     9A    -11.406583
      10A    -11.401902    11A    -11.340259    12A    -11.273660
      13A    -11.262627    14A     -1.486696    15A     -1.472513
      16A     -1.469934    17A     -1.400187    18A     -1.372685
      19A     -1.368781    20A     -1.366346    21A     -1.115736
      22A     -1.037478    23A     -0.957593    24A     -0.852477
      25A     -0.829878    26A     -0.796108    27A     -0.760854
      28A     -0.728485    29A     -0.718669    30A     -0.715809
      31A     -0.705072    32A     -0.691455    33A     -0.668326
      34A     -0.653969    35A     -0.643964    36A     -0.638224
      37A     -0.622367    38A     -0.604144    39A     -0.595654
      40A     -0.580138    41A     -0.561921    42A     -0.559665
      43A     -0.547090    44A     -0.506066    45A     -0.494838
      46A     -0.490001    47A     -0.486410    48A     -0.471530
      49A     -0.464911    50A     -0.454189

  @DF-RHF Final Energy:  -756.25742080779867

   => Energetics <=

    Nuclear Repulsion Energy =            874.6675091277343199
    One-Electron Energy =               -2777.5466586818743053
    Two-Electron Energy =                1146.6217287463414323
    Total Energy =                       -756.2574208077985531
  Basis Set: (AUG-CC-PVTZ AUX)
    Blend: AUG-CC-PVTZ-RI
    Molecular point group: c1

    Geometry (in Angstrom), charge = 0, multiplicity = 1:

       Center              X                  Y                   Z               Mass
    ------------   -----------------  -----------------  -----------------  -----------------
         O           -0.308834426946     0.066461338654    -1.415505437983    15.994914619570
         O            1.178137573054     1.730510338654     1.389483562017    15.994914619570
         O            0.897452573054     2.372328338654    -0.773329437983    15.994914619570
         O            2.290188573054    -2.423359661346    -0.007730437983    15.994914619570
         O           -3.467230426946     0.074432338654    -0.544093437983    15.994914619570
         O            2.627152573054    -0.235438661346    -0.481110437983    15.994914619570
         O           -2.444982426946    -1.607646661346     0.574097562017    15.994914619570
         C           -0.108825526946     0.332893538654    -0.037472937983    12.000000000000
         C            0.550071573054    -0.922474661346     0.564427562017    12.000000000000
         C           -1.479761426946     0.618849338654     0.626300562017    12.000000000000
         C            0.736368573054     1.563147338654     0.124636562017    12.000000000000
         C            1.914036573054    -1.122500661346    -0.039386437983    12.000000000000
         C           -2.485720426946    -0.435348661346     0.237778562017    12.000000000000
         H           -0.077754426946    -1.796198661346     0.381917562017     1.007825032230
         H            0.663753573054    -0.817407661346     1.649213562017     1.007825032230
         H           -1.829936426946     1.595417338654     0.280852562017     1.007825032230
         H           -1.381620426946     0.637600338654     1.716253562017     1.007825032230
         H           -0.049836426946     0.893044338654    -1.873499437983     1.007825032230
         H            1.688124573054     2.567849338654     1.390954562017     1.007825032230
         H            3.191612573054    -2.448550661346    -0.392018437983     1.007825032230
         H           -4.050150426946    -0.682862661346    -0.763175437983     1.007825032230

  Basis Set: AUG-CC-PVTZ
    Blend: AUG-CC-PVTZ
  Basis Set: (AUG-CC-PVTZ AUX)
    Blend: AUG-CC-PVTZ-JKFIT
	 Reference Energy          =    -756.2574208077986668 [Eh]
	 Singles Energy            =      -0.0000000000000000 [Eh]
	 Same-Spin Energy          =      -0.7305465910685562 [Eh]
	 Opposite-Spin Energy      =      -2.1616943055017419 [Eh]
	 Correlation Energy        =      -2.8922408965702981 [Eh]
	 Total Energy              =    -759.1496617043690094 [Eh]

	 ================> DF-SCS-MP2 Energies <==================
	-----------------------------------------------------------
	 SCS Same-Spin Scale       =       0.3333333333333333 [-]
	 SCS Opposite-Spin Scale   =       1.2000000000000000 [-]
	 SCS Same-Spin Energy      =      -0.2435155303561854 [Eh]
	 SCS Opposite-Spin Energy  =      -2.5940331666020904 [Eh]
	 SCS Correlation Energy    =      -2.8375486969582759 [Eh]
	 SCS Total Energy          =    -759.0949695047569321 [Eh]
	-----------------------------------------------------------

  Dipole Moment: [D]
     X:    -0.1819      Y:     0.7465      Z:     1.8445     Total:     1.9981

*** Psi4 exiting successfully. Buy a developer a beer!
