                               Psi4 1.3.2 release

  ==> Input File <==

--------------------------------------------------------------------------
#psi4
#
memory 32 gb

molecule  {
0 1
  O       -0.2992330     0.0680890    -1.4276520
  O        1.1877390     1.7321380     1.3773370
  O        0.9070540     2.3739560    -0.7854760
  O        2.2997900    -2.4217320    -0.0198770
  O       -3.4576290     0.0760600    -0.5562400
  O        2.6367540    -0.2338110    -0.4932570
  O       -2.4353810    -1.6060190     0.5619510
  C       -0.1069590     0.3116290    -0.0442930
  C        0.5596730    -0.9208470     0.5522810
  C       -1.4701600     0.6204770     0.6141540
  C        0.7459700     1.5647750     0.1124900
  C        1.9444311    -1.1153133    -0.0613111
  C       -2.4761190    -0.4337210     0.2256320
  H       -0.0681530    -1.7945710     0.3697710
  H        0.6733550    -0.8157800     1.6370670
  H       -1.8203350     1.5970450     0.2687060
  H       -1.3720190     0.6392280     1.7041070
  H       -0.0402350     0.8946720    -1.8856460
  H        1.6977260     2.5694770     1.3788080
  H        3.2012140    -2.4469230    -0.4041650
  H       -4.0405490    -0.6812350    -0.7753220
units angstrom
no_reorient  #important for SAPT in psi4, default
symmetry c1  #important for SAPT in psi4, default
}

set PROPERTIES_ORIGIN ["COM"]
properties('MP2/aug-cc-pvtz', properties = ['dipole'])
--------------------------------------------------------------------------

    Molecular point group: c1
  Charge       = 0
  Multiplicity = 1
  Basis Set: AUG-CC-PVTZ
    Blend: AUG-CC-PVTZ
  Basis Set: (AUG-CC-PVTZ AUX)
    Blend: AUG-CC-PVTZ-JKFIT

    Orbital Energies [Eh]
    ---------------------

    Doubly Occupied:

       1A    -20.638263     2A    -20.626400     3A    -20.624739
       4A    -20.577755     5A    -20.571447     6A    -20.563858
       7A    -20.562008     8A    -11.411276     9A    -11.405695
      10A    -11.400383    11A    -11.339535    12A    -11.272650
      13A    -11.260784    14A     -1.485993    15A     -1.474756
      16A     -1.471889    17A     -1.398760    18A     -1.378219
      19A     -1.371189    20A     -1.367825    21A     -1.114907
      22A     -1.034705    23A     -0.950584    24A     -0.851969
      25A     -0.829324    26A     -0.794768    27A     -0.759448
      28A     -0.728395    29A     -0.718051    30A     -0.717931
      31A     -0.705739    32A     -0.690842    33A     -0.669454
      34A     -0.654552    35A     -0.644414    36A     -0.637975
      37A     -0.622337    38A     -0.606012    39A     -0.594997
      40A     -0.581773    41A     -0.561297    42A     -0.558316
      43A     -0.545206    44A     -0.506441    45A     -0.496815
      46A     -0.494204    47A     -0.485687    48A     -0.472039
      49A     -0.464739    50A     -0.451512

  @DF-RHF Final Energy:  -756.25914995559947

   => Energetics <=

    Nuclear Repulsion Energy =            874.6088992707223042
    One-Electron Energy =               -2777.4403783331517843
    Two-Electron Energy =                1146.5723291068300114
    Total Energy =                       -756.2591499555994687
  Basis Set: (AUG-CC-PVTZ AUX)
    Blend: AUG-CC-PVTZ-RI
    Molecular point group: c1

    Geometry (in Angstrom), charge = 0, multiplicity = 1:

       Center              X                  Y                   Z               Mass
    ------------   -----------------  -----------------  -----------------  -----------------
         O           -0.309650449682     0.067544467575    -1.415227252107    15.994914619570
         O            1.177321550318     1.731593467575     1.389761747893    15.994914619570
         O            0.896636550318     2.373411467575    -0.773051252107    15.994914619570
         O            2.289372550318    -2.422276532425    -0.007452252107    15.994914619570
         O           -3.468046449682     0.075515467575    -0.543815252107    15.994914619570
         O            2.626336550318    -0.234355532425    -0.480832252107    15.994914619570
         O           -2.445798449682    -1.606563532425     0.574375747893    15.994914619570
         C           -0.117376449682     0.311084467575    -0.031868252107    12.000000000000
         C            0.549255550318    -0.921391532425     0.564705747893    12.000000000000
         C           -1.480577449682     0.619932467575     0.626578747893    12.000000000000
         C            0.735552550318     1.564230467575     0.124914747893    12.000000000000
         C            1.934013650318    -1.115857832425    -0.048886352107    12.000000000000
         C           -2.486536449682    -0.434265532425     0.238056747893    12.000000000000
         H           -0.078570449682    -1.795115532425     0.382195747893     1.007825032230
         H            0.662937550318    -0.816324532425     1.649491747893     1.007825032230
         H           -1.830752449682     1.596500467575     0.281130747893     1.007825032230
         H           -1.382436449682     0.638683467575     1.716531747893     1.007825032230
         H           -0.050652449682     0.894127467575    -1.873221252107     1.007825032230
         H            1.687308550318     2.568932467575     1.391232747893     1.007825032230
         H            3.190796550318    -2.447467532425    -0.391740252107     1.007825032230
         H           -4.050966449682    -0.681779532425    -0.762897252107     1.007825032230

  Basis Set: AUG-CC-PVTZ
    Blend: AUG-CC-PVTZ
  Basis Set: (AUG-CC-PVTZ AUX)
    Blend: AUG-CC-PVTZ-JKFIT
	 Reference Energy          =    -756.2591499555994687 [Eh]
	 Singles Energy            =      -0.0000000000000000 [Eh]
	 Same-Spin Energy          =      -0.7300662001044911 [Eh]
	 Opposite-Spin Energy      =      -2.1606981776180341 [Eh]
	 Correlation Energy        =      -2.8907643777225251 [Eh]
	 Total Energy              =    -759.1499143333220445 [Eh]

	 ================> DF-SCS-MP2 Energies <==================
	-----------------------------------------------------------
	 SCS Same-Spin Scale       =       0.3333333333333333 [-]
	 SCS Opposite-Spin Scale   =       1.2000000000000000 [-]
	 SCS Same-Spin Energy      =      -0.2433554000348304 [Eh]
	 SCS Opposite-Spin Energy  =      -2.5928378131416410 [Eh]
	 SCS Correlation Energy    =      -2.8361932131764713 [Eh]
	 SCS Total Energy          =    -759.0953431687759121 [Eh]
	-----------------------------------------------------------

  Dipole Moment: [D]
     X:    -0.0549      Y:     0.7706      Z:     1.8147     Total:     1.9723

*** Psi4 exiting successfully. Buy a developer a beer!
