                               Psi4 1.3.2 release

  ==> Input File <==

--------------------------------------------------------------------------
#psi4
#
memory 32 gb

molecule  {
0 1
  O       -0.2992330     0.0680890    -1.4276520
  O        1.1877390     1.7321380     1.3773370
  O        0.9070540     2.3739560    -0.7854760
  O        2.2997900    -2.4217320    -0.0198770
  O       -3.4576290     0.0760600    -0.5562400
  O        2.6367540    -0.2338110    -0.4932570
  O       -2.4353810    -1.6060190     0.5619510
  C       -0.1069590     0.3116290    -0.0442930
  C        0.5596730    -0.9208470     0.5522810
  C       -1.4701600     0.6204770     0.6141540
  C        0.7459700     1.5647750     0.1124900
  C        1.9161455    -1.1445687    -0.0600369
  C       -2.4761190    -0.4337210     0.2256320
  H       -0.0681530    -1.7945710     0.3697710
  H        0.6733550    -0.8157800     1.6370670
  H       -1.8203350     1.5970450     0.2687060
  H       -1.3720190     0.6392280     1.7041070
  H       -0.0402350     0.8946720    -1.8856460
  H        1.6977260     2.5694770     1.3788080
  H        3.2012140    -2.4469230    -0.4041650
  H       -4.0405490    -0.6812350    -0.7753220
units angstrom
no_reorient  #important for SAPT in psi4, default
symmetry c1  #important for SAPT in psi4, default
}

set PROPERTIES_ORIGIN ["COM"]
properties('MP2/aug-cc-pvtz', properties = ['dipole'])
--------------------------------------------------------------------------

    Molecular point group: c1
  Charge       = 0
  Multiplicity = 1
  Basis Set: AUG-CC-PVTZ
    Blend: AUG-CC-PVTZ
  Basis Set: (AUG-CC-PVTZ AUX)
    Blend: AUG-CC-PVTZ-JKFIT

    Orbital Energies [Eh]
    ---------------------

    Doubly Occupied:

       1A    -20.637079     2A    -20.631163     3A    -20.626805
       4A    -20.577784     5A    -20.570205     6A    -20.562530
       7A    -20.556651     8A    -11.410573     9A    -11.406192
      10A    -11.403648    11A    -11.340515    12A    -11.273175
      13A    -11.262182    14A     -1.484715    15A     -1.475930
      16A     -1.472330    17A     -1.398417    18A     -1.371255
      19A     -1.368320    20A     -1.359012    21A     -1.116562
      22A     -1.039029    23A     -0.953114    24A     -0.855938
      25A     -0.832592    26A     -0.796639    27A     -0.759557
      28A     -0.727718    29A     -0.718159    30A     -0.716254
      31A     -0.704822    32A     -0.691530    33A     -0.669637
      34A     -0.655134    35A     -0.644230    36A     -0.637931
      37A     -0.622397    38A     -0.603132    39A     -0.595761
      40A     -0.577430    41A     -0.563084    42A     -0.559148
      43A     -0.545533    44A     -0.504583    45A     -0.494749
      46A     -0.486141    47A     -0.484013    48A     -0.470929
      49A     -0.464579    50A     -0.451785

  @DF-RHF Final Energy:  -756.25642824968202

   => Energetics <=

    Nuclear Repulsion Energy =            874.4869884455604279
    One-Electron Energy =               -2777.2256513249144518
    Two-Electron Energy =                1146.4822346296721207
    Total Energy =                       -756.2564282496819033
  Basis Set: (AUG-CC-PVTZ AUX)
    Blend: AUG-CC-PVTZ-RI
    Molecular point group: c1

    Geometry (in Angstrom), charge = 0, multiplicity = 1:

       Center              X                  Y                   Z               Mass
    ------------   -----------------  -----------------  -----------------  -----------------
         O           -0.307882848275     0.069372672959    -1.415306878408    15.994914619570
         O            1.179089151725     1.733421672959     1.389682121592    15.994914619570
         O            0.898404151725     2.375239672959    -0.773130878408    15.994914619570
         O            2.291140151725    -2.420448327041    -0.007531878408    15.994914619570
         O           -3.466278848275     0.077343672959    -0.543894878408    15.994914619570
         O            2.628104151725    -0.232527327041    -0.480911878408    15.994914619570
         O           -2.444030848275    -1.604735327041     0.574296121592    15.994914619570
         C           -0.115608848275     0.312912672959    -0.031947878408    12.000000000000
         C            0.551023151725    -0.919563327041     0.564626121592    12.000000000000
         C           -1.478809848275     0.621760672959     0.626499121592    12.000000000000
         C            0.737320151725     1.566058672959     0.124835121592    12.000000000000
         C            1.907495651725    -1.143285027041    -0.047691778408    12.000000000000
         C           -2.484768848275    -0.432437327041     0.237977121592    12.000000000000
         H           -0.076802848275    -1.793287327041     0.382116121592     1.007825032230
         H            0.664705151725    -0.814496327041     1.649412121592     1.007825032230
         H           -1.828984848275     1.598328672959     0.281051121592     1.007825032230
         H           -1.380668848275     0.640511672959     1.716452121592     1.007825032230
         H           -0.048884848275     0.895955672959    -1.873300878408     1.007825032230
         H            1.689076151725     2.570760672959     1.391153121592     1.007825032230
         H            3.192564151725    -2.445639327041    -0.391819878408     1.007825032230
         H           -4.049198848275    -0.679951327041    -0.762976878408     1.007825032230

  Basis Set: AUG-CC-PVTZ
    Blend: AUG-CC-PVTZ
  Basis Set: (AUG-CC-PVTZ AUX)
    Blend: AUG-CC-PVTZ-JKFIT
	 Reference Energy          =    -756.2564282496820169 [Eh]
	 Singles Energy            =      -0.0000000000000000 [Eh]
	 Same-Spin Energy          =      -0.7307598410849041 [Eh]
	 Opposite-Spin Energy      =      -2.1618986983520099 [Eh]
	 Correlation Energy        =      -2.8926585394369138 [Eh]
	 Total Energy              =    -759.1490867891188827 [Eh]

	 ================> DF-SCS-MP2 Energies <==================
	-----------------------------------------------------------
	 SCS Same-Spin Scale       =       0.3333333333333333 [-]
	 SCS Opposite-Spin Scale   =       1.2000000000000000 [-]
	 SCS Same-Spin Energy      =      -0.2435866136949680 [Eh]
	 SCS Opposite-Spin Energy  =      -2.5942784380224118 [Eh]
	 SCS Correlation Energy    =      -2.8378650517173796 [Eh]
	 SCS Total Energy          =    -759.0942933013993752 [Eh]
	-----------------------------------------------------------

  Dipole Moment: [D]
     X:    -0.1563      Y:     0.5450      Z:     1.8710     Total:     1.9550

*** Psi4 exiting successfully. Buy a developer a beer!
