                               Psi4 1.3.2 release

  ==> Input File <==

--------------------------------------------------------------------------
#psi4
#
memory 32 gb

molecule  {
0 1
  O       -0.2992330     0.0680890    -1.4276520
  O        1.1877390     1.7321380     1.3773370
  O        0.9070540     2.3739560    -0.7854760
  O        2.2997900    -2.4217320    -0.0198770
  O       -3.4576290     0.0760600    -0.5562400
  O        2.6367540    -0.2338110    -0.4932570
  O       -2.4353810    -1.6060190     0.5619510
  C       -0.1069590     0.3116290    -0.0442930
  C        0.5596730    -0.9208470     0.5522810
  C       -1.4701600     0.6204770     0.6141540
  C        0.7591795     1.6311311     0.0388532
  C        1.9236380    -1.1208730    -0.0515330
  C       -2.4761190    -0.4337210     0.2256320
  H       -0.0681530    -1.7945710     0.3697710
  H        0.6733550    -0.8157800     1.6370670
  H       -1.8203350     1.5970450     0.2687060
  H       -1.3720190     0.6392280     1.7041070
  H       -0.0402350     0.8946720    -1.8856460
  H        1.6977260     2.5694770     1.3788080
  H        3.2012140    -2.4469230    -0.4041650
  H       -4.0405490    -0.6812350    -0.7753220
units angstrom
no_reorient  #important for SAPT in psi4, default
symmetry c1  #important for SAPT in psi4, default
}

set PROPERTIES_ORIGIN ["COM"]
properties('MP2/aug-cc-pvtz', properties = ['dipole'])
--------------------------------------------------------------------------

    Molecular point group: c1
  Charge       = 0
  Multiplicity = 1
  Basis Set: AUG-CC-PVTZ
    Blend: AUG-CC-PVTZ
  Basis Set: (AUG-CC-PVTZ AUX)
    Blend: AUG-CC-PVTZ-JKFIT

    Orbital Energies [Eh]
    ---------------------

    Doubly Occupied:

       1A    -20.625427     2A    -20.623283     3A    -20.619948
       4A    -20.590479     5A    -20.576918     6A    -20.560604
       7A    -20.558942     8A    -11.404052     9A    -11.401903
      10A    -11.400190    11A    -11.337636    12A    -11.269606
      13A    -11.258581    14A     -1.517205    15A     -1.470865
      16A     -1.468689    17A     -1.399135    18A     -1.388714
      19A     -1.367062    20A     -1.364951    21A     -1.108032
      22A     -1.035279    23A     -0.935454    24A     -0.843315
      25A     -0.827057    26A     -0.785810    27A     -0.760271
      28A     -0.736110    29A     -0.717894    30A     -0.714489
      31A     -0.704926    32A     -0.692024    33A     -0.667836
      34A     -0.655875    35A     -0.648638    36A     -0.641901
      37A     -0.624854    38A     -0.602121    39A     -0.594589
      40A     -0.580067    41A     -0.559992    42A     -0.558468
      43A     -0.554386    44A     -0.528051    45A     -0.493898
      46A     -0.489243    47A     -0.484905    48A     -0.468651
      49A     -0.463596    50A     -0.445490

  @DF-RHF Final Energy:  -756.24646177329407

   => Energetics <=

    Nuclear Repulsion Energy =            874.3507831455726773
    One-Electron Energy =               -2776.9396600879172183
    Two-Electron Energy =                1146.3424151690503550
    Total Energy =                       -756.2464617732941861
  Basis Set: (AUG-CC-PVTZ AUX)
    Blend: AUG-CC-PVTZ-RI
    Molecular point group: c1

    Geometry (in Angstrom), charge = 0, multiplicity = 1:

       Center              X                  Y                   Z               Mass
    ------------   -----------------  -----------------  -----------------  -----------------
         O           -0.309176541332     0.063745226894    -1.411236644590    15.994914619570
         O            1.177795458668     1.727794226894     1.393752355410    15.994914619570
         O            0.897110458668     2.369612226894    -0.769060644590    15.994914619570
         O            2.289846458668    -2.426075773106    -0.003461644590    15.994914619570
         O           -3.467572541332     0.071716226894    -0.539824644590    15.994914619570
         O            2.626810458668    -0.238154773106    -0.476841644590    15.994914619570
         O           -2.445324541332    -1.610362773106     0.578366355410    15.994914619570
         C           -0.116902541332     0.307285226894    -0.027877644590    12.000000000000
         C            0.549729458668    -0.925190773106     0.568696355410    12.000000000000
         C           -1.480103541332     0.616133226894     0.630569355410    12.000000000000
         C            0.749235958668     1.626787326894     0.055268555410    12.000000000000
         C            1.913694458668    -1.125216773106    -0.035117644590    12.000000000000
         C           -2.486062541332    -0.438064773106     0.242047355410    12.000000000000
         H           -0.078096541332    -1.798914773106     0.386186355410     1.007825032230
         H            0.663411458668    -0.820123773106     1.653482355410     1.007825032230
         H           -1.830278541332     1.592701226894     0.285121355410     1.007825032230
         H           -1.381962541332     0.634884226894     1.720522355410     1.007825032230
         H           -0.050178541332     0.890328226894    -1.869230644590     1.007825032230
         H            1.687782458668     2.565133226894     1.395223355410     1.007825032230
         H            3.191270458668    -2.451266773106    -0.387749644590     1.007825032230
         H           -4.050492541332    -0.685578773106    -0.758906644590     1.007825032230

  Basis Set: AUG-CC-PVTZ
    Blend: AUG-CC-PVTZ
  Basis Set: (AUG-CC-PVTZ AUX)
    Blend: AUG-CC-PVTZ-JKFIT
	 Reference Energy          =    -756.2464617732940724 [Eh]
	 Singles Energy            =      -0.0000000000000000 [Eh]
	 Same-Spin Energy          =      -0.7285731359980592 [Eh]
	 Opposite-Spin Energy      =      -2.1583262171606488 [Eh]
	 Correlation Energy        =      -2.8868993531587082 [Eh]
	 Total Energy              =    -759.1333611264527690 [Eh]

	 ================> DF-SCS-MP2 Energies <==================
	-----------------------------------------------------------
	 SCS Same-Spin Scale       =       0.3333333333333333 [-]
	 SCS Opposite-Spin Scale   =       1.2000000000000000 [-]
	 SCS Same-Spin Energy      =      -0.2428577119993530 [Eh]
	 SCS Opposite-Spin Energy  =      -2.5899914605927785 [Eh]
	 SCS Correlation Energy    =      -2.8328491725921316 [Eh]
	 SCS Total Energy          =    -759.0793109458861636 [Eh]
	-----------------------------------------------------------

  Dipole Moment: [D]
     X:    -0.1397      Y:     1.1053      Z:     1.2755     Total:     1.6935

*** Psi4 exiting successfully. Buy a developer a beer!
