                               Psi4 1.3.2 release

  ==> Input File <==

--------------------------------------------------------------------------
#psi4
#
memory 32 gb

molecule  {
0 1
  O       -0.2992330     0.0680890    -1.4276520
  O        1.1877390     1.7321380     1.3773370
  O        0.9070540     2.3739560    -0.7854760
  O        2.2997900    -2.4217320    -0.0198770
  O       -3.4576290     0.0760600    -0.5562400
  O        2.6367540    -0.2338110    -0.4932570
  O       -2.4353810    -1.6060190     0.5619510
  C       -0.0798348     0.3459853     0.1508580
  C        0.5596730    -0.9208470     0.5522810
  C       -1.4701600     0.6204770     0.6141540
  C        0.7459700     1.5647750     0.1124900
  C        1.9236380    -1.1208730    -0.0515330
  C       -2.4761190    -0.4337210     0.2256320
  H       -0.0681530    -1.7945710     0.3697710
  H        0.6733550    -0.8157800     1.6370670
  H       -1.8203350     1.5970450     0.2687060
  H       -1.3720190     0.6392280     1.7041070
  H       -0.0402350     0.8946720    -1.8856460
  H        1.6977260     2.5694770     1.3788080
  H        3.2012140    -2.4469230    -0.4041650
  H       -4.0405490    -0.6812350    -0.7753220
units angstrom
no_reorient  #important for SAPT in psi4, default
symmetry c1  #important for SAPT in psi4, default
}

set PROPERTIES_ORIGIN ["COM"]
properties('MP2/aug-cc-pvtz', properties = ['dipole'])
--------------------------------------------------------------------------

    Molecular point group: c1
  Charge       = 0
  Multiplicity = 1
  Basis Set: AUG-CC-PVTZ
    Blend: AUG-CC-PVTZ
  Basis Set: (AUG-CC-PVTZ AUX)
    Blend: AUG-CC-PVTZ-JKFIT

    Orbital Energies [Eh]
    ---------------------

    Doubly Occupied:

       1A    -20.639012     2A    -20.628731     3A    -20.627542
       4A    -20.577393     5A    -20.564908     6A    -20.562458
       7A    -20.553572     8A    -11.418318     9A    -11.411184
      10A    -11.406585    11A    -11.345469    12A    -11.280892
      13A    -11.268920    14A     -1.490691    15A     -1.474267
      16A     -1.472376    17A     -1.386321    18A     -1.371198
      19A     -1.369637    20A     -1.320584    21A     -1.138655
      22A     -1.049745    23A     -0.971390    24A     -0.862535
      25A     -0.839053    26A     -0.785780    27A     -0.744358
      28A     -0.733391    29A     -0.719442    30A     -0.718062
      31A     -0.706628    32A     -0.691390    33A     -0.668099
      34A     -0.658814    35A     -0.643369    36A     -0.631087
      37A     -0.626921    38A     -0.601488    39A     -0.596706
      40A     -0.580054    41A     -0.575817    42A     -0.554776
      43A     -0.509103    44A     -0.504158    45A     -0.493945
      46A     -0.491371    47A     -0.486998    48A     -0.471058
      49A     -0.466541    50A     -0.459784

  @DF-RHF Final Energy:  -756.21900444135110

   => Energetics <=

    Nuclear Repulsion Energy =            874.0655254900287900
    One-Electron Energy =               -2776.2679113557337587
    Two-Electron Energy =                1145.9833814243536381
    Total Energy =                       -756.2190044413512169
  Basis Set: (AUG-CC-PVTZ AUX)
    Blend: AUG-CC-PVTZ-RI
    Molecular point group: c1

    Geometry (in Angstrom), charge = 0, multiplicity = 1:

       Center              X                  Y                   Z               Mass
    ------------   -----------------  -----------------  -----------------  -----------------
         O           -0.310046087790     0.065744933159    -1.428033519802    15.994914619570
         O            1.176925912210     1.729793933159     1.376955480198    15.994914619570
         O            0.896240912210     2.371611933159    -0.785857519802    15.994914619570
         O            2.288976912210    -2.424076066841    -0.020258519802    15.994914619570
         O           -3.468442087790     0.073715933159    -0.556621519802    15.994914619570
         O            2.625940912210    -0.236155066841    -0.493638519802    15.994914619570
         O           -2.446194087790    -1.608363066841     0.561569480198    15.994914619570
         C           -0.090647887790     0.343641233159     0.150476480198    12.000000000000
         C            0.548859912210    -0.923191066841     0.551899480198    12.000000000000
         C           -1.480973087790     0.618132933159     0.613772480198    12.000000000000
         C            0.735156912210     1.562430933159     0.112108480198    12.000000000000
         C            1.912824912210    -1.123217066841    -0.051914519802    12.000000000000
         C           -2.486932087790    -0.436065066841     0.225250480198    12.000000000000
         H           -0.078966087790    -1.796915066841     0.369389480198     1.007825032230
         H            0.662541912210    -0.818124066841     1.636685480198     1.007825032230
         H           -1.831148087790     1.594700933159     0.268324480198     1.007825032230
         H           -1.382832087790     0.636883933159     1.703725480198     1.007825032230
         H           -0.051048087790     0.892327933159    -1.886027519802     1.007825032230
         H            1.686912912210     2.567132933159     1.378426480198     1.007825032230
         H            3.190400912210    -2.449267066841    -0.404546519802     1.007825032230
         H           -4.051362087790    -0.683579066841    -0.775703519802     1.007825032230

  Basis Set: AUG-CC-PVTZ
    Blend: AUG-CC-PVTZ
  Basis Set: (AUG-CC-PVTZ AUX)
    Blend: AUG-CC-PVTZ-JKFIT
	 Reference Energy          =    -756.2190044413511032 [Eh]
	 Singles Energy            =      -0.0000000000000000 [Eh]
	 Same-Spin Energy          =      -0.7332194671429186 [Eh]
	 Opposite-Spin Energy      =      -2.1690906233758347 [Eh]
	 Correlation Energy        =      -2.9023100905187533 [Eh]
	 Total Energy              =    -759.1213145318698707 [Eh]

	 ================> DF-SCS-MP2 Energies <==================
	-----------------------------------------------------------
	 SCS Same-Spin Scale       =       0.3333333333333333 [-]
	 SCS Opposite-Spin Scale   =       1.2000000000000000 [-]
	 SCS Same-Spin Energy      =      -0.2444064890476395 [Eh]
	 SCS Opposite-Spin Energy  =      -2.6029087480510014 [Eh]
	 SCS Correlation Energy    =      -2.8473152370986408 [Eh]
	 SCS Total Energy          =    -759.0663196784497586 [Eh]
	-----------------------------------------------------------

  Dipole Moment: [D]
     X:    -0.1586      Y:     0.7638      Z:     2.3127     Total:     2.4407

*** Psi4 exiting successfully. Buy a developer a beer!
