                               Psi4 1.3.2 release

  ==> Input File <==

--------------------------------------------------------------------------
#psi4
#
memory 32 gb

molecule  {
0 1
  O       -0.2992330     0.0680890    -1.4276520
  O        1.1877390     1.7321380     1.3773370
  O        0.9070540     2.3739560    -0.7854760
  O        2.2997900    -2.4217320    -0.0198770
  O       -3.4576290     0.0760600    -0.5562400
  O        2.6367540    -0.2338110    -0.4932570
  O       -2.4353810    -1.6060190     0.5619510
  C       -0.1147525     0.2886626    -0.0393878
  C        0.5596730    -0.9208470     0.5522810
  C       -1.4701600     0.6204770     0.6141540
  C        0.7459700     1.5647750     0.1124900
  C        1.9236380    -1.1208730    -0.0515330
  C       -2.4761190    -0.4337210     0.2256320
  H       -0.0681530    -1.7945710     0.3697710
  H        0.6733550    -0.8157800     1.6370670
  H       -1.8203350     1.5970450     0.2687060
  H       -1.3720190     0.6392280     1.7041070
  H       -0.0402350     0.8946720    -1.8856460
  H        1.6977260     2.5694770     1.3788080
  H        3.2012140    -2.4469230    -0.4041650
  H       -4.0405490    -0.6812350    -0.7753220
units angstrom
no_reorient  #important for SAPT in psi4, default
symmetry c1  #important for SAPT in psi4, default
}

set PROPERTIES_ORIGIN ["COM"]
properties('MP2/aug-cc-pvtz', properties = ['dipole'])
--------------------------------------------------------------------------

    Molecular point group: c1
  Charge       = 0
  Multiplicity = 1
  Basis Set: AUG-CC-PVTZ
    Blend: AUG-CC-PVTZ
  Basis Set: (AUG-CC-PVTZ AUX)
    Blend: AUG-CC-PVTZ-JKFIT

    Orbital Energies [Eh]
    ---------------------

    Doubly Occupied:

       1A    -20.637638     2A    -20.626892     3A    -20.625405
       4A    -20.577394     5A    -20.571061     6A    -20.562681
       7A    -20.561389     8A    -11.411273     9A    -11.406178
      10A    -11.402964    11A    -11.341474    12A    -11.273266
      13A    -11.261676    14A     -1.484648    15A     -1.472493
      16A     -1.470519    17A     -1.398072    18A     -1.372015
      19A     -1.368838    20A     -1.366557    21A     -1.118659
      22A     -1.040685    23A     -0.948213    24A     -0.854196
      25A     -0.830814    26A     -0.795190    27A     -0.759172
      28A     -0.727664    29A     -0.718358    30A     -0.716581
      31A     -0.705288    32A     -0.690826    33A     -0.670365
      34A     -0.653648    35A     -0.645221    36A     -0.637677
      37A     -0.623064    38A     -0.605137    39A     -0.595078
      40A     -0.580863    41A     -0.563002    42A     -0.559869
      43A     -0.543775    44A     -0.505756    45A     -0.495526
      46A     -0.491093    47A     -0.485396    48A     -0.472656
      49A     -0.465960    50A     -0.450595

  @DF-RHF Final Energy:  -756.25740598053551

   => Energetics <=

    Nuclear Repulsion Energy =            874.6323731897434755
    One-Electron Energy =               -2777.4940432310863798
    Two-Electron Energy =                1146.6042640608075089
    Total Energy =                       -756.2574059805353954
  Basis Set: (AUG-CC-PVTZ AUX)
    Blend: AUG-CC-PVTZ-RI
    Molecular point group: c1

    Geometry (in Angstrom), charge = 0, multiplicity = 1:

       Center              X                  Y                   Z               Mass
    ------------   -----------------  -----------------  -----------------  -----------------
         O           -0.307864038420     0.069327098118    -1.416144829310    15.994914619570
         O            1.179107961580     1.733376098118     1.388844170690    15.994914619570
         O            0.898422961580     2.375194098118    -0.773968829310    15.994914619570
         O            2.291158961580    -2.420493901882    -0.008369829310    15.994914619570
         O           -3.466260038420     0.077298098118    -0.544732829310    15.994914619570
         O            2.628122961580    -0.232572901882    -0.481749829310    15.994914619570
         O           -2.444012038420    -1.604780901882     0.573458170690    15.994914619570
         C           -0.123383538420     0.289900698118    -0.027880629310    12.000000000000
         C            0.551041961580    -0.919608901882     0.563788170690    12.000000000000
         C           -1.478791038420     0.621715098118     0.625661170690    12.000000000000
         C            0.737338961580     1.566013098118     0.123997170690    12.000000000000
         C            1.915006961580    -1.119634901882    -0.040025829310    12.000000000000
         C           -2.484750038420    -0.432482901882     0.237139170690    12.000000000000
         H           -0.076784038420    -1.793332901882     0.381278170690     1.007825032230
         H            0.664723961580    -0.814541901882     1.648574170690     1.007825032230
         H           -1.828966038420     1.598283098118     0.280213170690     1.007825032230
         H           -1.380650038420     0.640466098118     1.715614170690     1.007825032230
         H           -0.048866038420     0.895910098118    -1.874138829310     1.007825032230
         H            1.689094961580     2.570715098118     1.390315170690     1.007825032230
         H            3.192582961580    -2.445684901882    -0.392657829310     1.007825032230
         H           -4.049180038420    -0.679996901882    -0.763814829310     1.007825032230

  Basis Set: AUG-CC-PVTZ
    Blend: AUG-CC-PVTZ
  Basis Set: (AUG-CC-PVTZ AUX)
    Blend: AUG-CC-PVTZ-JKFIT
	 Reference Energy          =    -756.2574059805355091 [Eh]
	 Singles Energy            =      -0.0000000000000000 [Eh]
	 Same-Spin Energy          =      -0.7306201217166050 [Eh]
	 Opposite-Spin Energy      =      -2.1616306595479826 [Eh]
	 Correlation Energy        =      -2.8922507812645875 [Eh]
	 Total Energy              =    -759.1496567618000881 [Eh]

	 ================> DF-SCS-MP2 Energies <==================
	-----------------------------------------------------------
	 SCS Same-Spin Scale       =       0.3333333333333333 [-]
	 SCS Opposite-Spin Scale   =       1.2000000000000000 [-]
	 SCS Same-Spin Energy      =      -0.2435400405722016 [Eh]
	 SCS Opposite-Spin Energy  =      -2.5939567914575790 [Eh]
	 SCS Correlation Energy    =      -2.8374968320297804 [Eh]
	 SCS Total Energy          =    -759.0949028125652376 [Eh]
	-----------------------------------------------------------

  Dipole Moment: [D]
     X:    -0.1553      Y:     0.7284      Z:     1.8762     Total:     2.0186

*** Psi4 exiting successfully. Buy a developer a beer!
