                               Psi4 1.3.2 release

  ==> Input File <==

--------------------------------------------------------------------------
#psi4
#
memory 32 gb

molecule  {
0 1
  O       -0.2992330     0.0680890    -1.4276520
  O        1.1877390     1.7321380     1.3773370
  O        0.9070540     2.3739560    -0.7854760
  O        2.2997900    -2.4217320    -0.0198770
  O       -3.4576290     0.0760600    -0.5562400
  O        2.6367540    -0.2338110    -0.4932570
  O       -2.4353810    -1.6060190     0.5619510
  C       -0.1069590     0.3116290    -0.0442930
  C        0.5596730    -0.9208470     0.5522810
  C       -1.4701600     0.6204770     0.6141540
  C        0.7459700     1.5647750     0.1124900
  C        1.9514081    -1.2169113    -0.0491959
  C       -2.4761190    -0.4337210     0.2256320
  H       -0.0681530    -1.7945710     0.3697710
  H        0.6733550    -0.8157800     1.6370670
  H       -1.8203350     1.5970450     0.2687060
  H       -1.3720190     0.6392280     1.7041070
  H       -0.0402350     0.8946720    -1.8856460
  H        1.6977260     2.5694770     1.3788080
  H        3.2012140    -2.4469230    -0.4041650
  H       -4.0405490    -0.6812350    -0.7753220
units angstrom
no_reorient  #important for SAPT in psi4, default
symmetry c1  #important for SAPT in psi4, default
}

set PROPERTIES_ORIGIN ["COM"]
properties('MP2/aug-cc-pvtz', properties = ['dipole'])
--------------------------------------------------------------------------

    Molecular point group: c1
  Charge       = 0
  Multiplicity = 1
  Basis Set: AUG-CC-PVTZ
    Blend: AUG-CC-PVTZ
  Basis Set: (AUG-CC-PVTZ AUX)
    Blend: AUG-CC-PVTZ-JKFIT

    Orbital Energies [Eh]
    ---------------------

    Doubly Occupied:

       1A    -20.654092     2A    -20.633083     3A    -20.625294
       4A    -20.573896     5A    -20.566043     6A    -20.560744
       7A    -20.544206     8A    -11.406758     9A    -11.404559
      10A    -11.404416    11A    -11.337521    12A    -11.271099
      13A    -11.260451    14A     -1.521010    15A     -1.479928
      16A     -1.470705    17A     -1.394371    18A     -1.368025
      19A     -1.365621    20A     -1.338657    21A     -1.110974
      22A     -1.031684    23A     -0.951803    24A     -0.872874
      25A     -0.835523    26A     -0.797742    27A     -0.756522
      28A     -0.735354    29A     -0.721550    30A     -0.715514
      31A     -0.699578    32A     -0.691355    33A     -0.677185
      34A     -0.664657    35A     -0.641737    36A     -0.636326
      37A     -0.619343    38A     -0.601168    39A     -0.595646
      40A     -0.570978    41A     -0.559865    42A     -0.551038
      43A     -0.542277    44A     -0.500005    45A     -0.492480
      46A     -0.482120    47A     -0.472793    48A     -0.465874
      49A     -0.457895    50A     -0.444863

  @DF-RHF Final Energy:  -756.24407004062903

   => Energetics <=

    Nuclear Repulsion Energy =            873.6763281526677929
    One-Electron Energy =               -2775.6863958859721606
    Two-Electron Energy =                1145.7659976926752279
    Total Energy =                       -756.2440700406291398
  Basis Set: (AUG-CC-PVTZ AUX)
    Blend: AUG-CC-PVTZ-RI
    Molecular point group: c1

    Geometry (in Angstrom), charge = 0, multiplicity = 1:

       Center              X                  Y                   Z               Mass
    ------------   -----------------  -----------------  -----------------  -----------------
         O           -0.310086450863     0.073893449663    -1.415984345630    15.994914619570
         O            1.176885549137     1.737942449663     1.389004654370    15.994914619570
         O            0.896200549137     2.379760449663    -0.773808345630    15.994914619570
         O            2.288936549137    -2.415927550337    -0.008209345630    15.994914619570
         O           -3.468482450863     0.081864449663    -0.544572345630    15.994914619570
         O            2.625900549137    -0.228006550337    -0.481589345630    15.994914619570
         O           -2.446234450863    -1.600214550337     0.573618654370    15.994914619570
         C           -0.117812450863     0.317433449663    -0.032625345630    12.000000000000
         C            0.548819549137    -0.915042550337     0.563948654370    12.000000000000
         C           -1.481013450863     0.626281449663     0.625821654370    12.000000000000
         C            0.735116549137     1.570579449663     0.124157654370    12.000000000000
         C            1.940554649137    -1.211106850337    -0.037528245630    12.000000000000
         C           -2.486972450863    -0.427916550337     0.237299654370    12.000000000000
         H           -0.079006450863    -1.788766550337     0.381438654370     1.007825032230
         H            0.662501549137    -0.809975550337     1.648734654370     1.007825032230
         H           -1.831188450863     1.602849449663     0.280373654370     1.007825032230
         H           -1.382872450863     0.645032449663     1.715774654370     1.007825032230
         H           -0.051088450863     0.900476449663    -1.873978345630     1.007825032230
         H            1.686872549137     2.575281449663     1.390475654370     1.007825032230
         H            3.190360549137    -2.441118550337    -0.392497345630     1.007825032230
         H           -4.051402450863    -0.675430550337    -0.763654345630     1.007825032230

  Basis Set: AUG-CC-PVTZ
    Blend: AUG-CC-PVTZ
  Basis Set: (AUG-CC-PVTZ AUX)
    Blend: AUG-CC-PVTZ-JKFIT
	 Reference Energy          =    -756.2440700406290262 [Eh]
	 Singles Energy            =      -0.0000000000000000 [Eh]
	 Same-Spin Energy          =      -0.7307919474828168 [Eh]
	 Opposite-Spin Energy      =      -2.1615020944365977 [Eh]
	 Correlation Energy        =      -2.8922940419194143 [Eh]
	 Total Energy              =    -759.1363640825484254 [Eh]

	 ================> DF-SCS-MP2 Energies <==================
	-----------------------------------------------------------
	 SCS Same-Spin Scale       =       0.3333333333333333 [-]
	 SCS Opposite-Spin Scale   =       1.2000000000000000 [-]
	 SCS Same-Spin Energy      =      -0.2435973158276056 [Eh]
	 SCS Opposite-Spin Energy  =      -2.5938025133239173 [Eh]
	 SCS Correlation Energy    =      -2.8373998291515230 [Eh]
	 SCS Total Energy          =    -759.0814698697805625 [Eh]
	-----------------------------------------------------------

  Dipole Moment: [D]
     X:     0.0831      Y:    -0.1292      Z:     1.9016     Total:     1.9078

*** Psi4 exiting successfully. Buy a developer a beer!
