                               Psi4 1.3.2 release

  ==> Input File <==

--------------------------------------------------------------------------
#psi4
#
memory 32 gb

molecule  {
0 1
  O       -0.2992330     0.0680890    -1.4276520
  O        1.1877390     1.7321380     1.3773370
  O        0.8572118     2.3252115    -0.8343080
  O        2.2997900    -2.4217320    -0.0198770
  O       -3.4576290     0.0760600    -0.5562400
  O        2.6367540    -0.2338110    -0.4932570
  O       -2.4353810    -1.6060190     0.5619510
  C       -0.1069590     0.3116290    -0.0442930
  C        0.5596730    -0.9208470     0.5522810
  C       -1.4701600     0.6204770     0.6141540
  C        0.7459700     1.5647750     0.1124900
  C        1.9236380    -1.1208730    -0.0515330
  C       -2.4761190    -0.4337210     0.2256320
  H       -0.0681530    -1.7945710     0.3697710
  H        0.6733550    -0.8157800     1.6370670
  H       -1.8203350     1.5970450     0.2687060
  H       -1.3720190     0.6392280     1.7041070
  H       -0.0402350     0.8946720    -1.8856460
  H        1.6977260     2.5694770     1.3788080
  H        3.2012140    -2.4469230    -0.4041650
  H       -4.0405490    -0.6812350    -0.7753220
units angstrom
no_reorient  #important for SAPT in psi4, default
symmetry c1  #important for SAPT in psi4, default
}

set PROPERTIES_ORIGIN ["COM"]
properties('MP2/aug-cc-pvtz', properties = ['dipole'])
--------------------------------------------------------------------------

    Molecular point group: c1
  Charge       = 0
  Multiplicity = 1
  Basis Set: AUG-CC-PVTZ
    Blend: AUG-CC-PVTZ
  Basis Set: (AUG-CC-PVTZ AUX)
    Blend: AUG-CC-PVTZ-JKFIT

    Orbital Energies [Eh]
    ---------------------

    Doubly Occupied:

       1A    -20.645308     2A    -20.625636     3A    -20.624360
       4A    -20.573754     5A    -20.573296     6A    -20.561230
       7A    -20.560418     8A    -11.413098     9A    -11.404870
      10A    -11.401606    11A    -11.336547    12A    -11.271582
      13A    -11.260179    14A     -1.487131    15A     -1.471134
      16A     -1.469590    17A     -1.402008    18A     -1.372454
      19A     -1.367509    20A     -1.365521    21A     -1.114831
      22A     -1.037400    23A     -0.951495    24A     -0.853255
      25A     -0.829219    26A     -0.795074    27A     -0.760915
      28A     -0.730367    29A     -0.717632    30A     -0.715452
      31A     -0.704399    32A     -0.690214    33A     -0.667832
      34A     -0.654367    35A     -0.645579    36A     -0.638509
      37A     -0.622414    38A     -0.603360    39A     -0.594582
      40A     -0.579494    41A     -0.560419    42A     -0.557279
      43A     -0.543394    44A     -0.509354    45A     -0.493563
      46A     -0.490121    47A     -0.485530    48A     -0.469763
      49A     -0.464433    50A     -0.450863

  @DF-RHF Final Energy:  -756.25605273128451

   => Energetics <=

    Nuclear Repulsion Energy =            875.5309229550499595
    One-Electron Energy =               -2779.3372678241321410
    Two-Electron Energy =                1147.5502921377978964
    Total Energy =                       -756.2560527312843988
  Basis Set: (AUG-CC-PVTZ AUX)
    Blend: AUG-CC-PVTZ-RI
    Molecular point group: c1

    Geometry (in Angstrom), charge = 0, multiplicity = 1:

       Center              X                  Y                   Z               Mass
    ------------   -----------------  -----------------  -----------------  -----------------
         O           -0.304199451024     0.071952079547    -1.411770829511    15.994914619570
         O            1.182772548976     1.736001079547     1.393218170489    15.994914619570
         O            0.852245348976     2.329074579547    -0.818426829511    15.994914619570
         O            2.294823548976    -2.417868920453    -0.003995829511    15.994914619570
         O           -3.462595451024     0.079923079547    -0.540358829511    15.994914619570
         O            2.631787548976    -0.229947920453    -0.477375829511    15.994914619570
         O           -2.440347451024    -1.602155920453     0.577832170489    15.994914619570
         C           -0.111925451024     0.315492079547    -0.028411829511    12.000000000000
         C            0.554706548976    -0.916983920453     0.568162170489    12.000000000000
         C           -1.475126451024     0.624340079547     0.630035170489    12.000000000000
         C            0.741003548976     1.568638079547     0.128371170489    12.000000000000
         C            1.918671548976    -1.117009920453    -0.035651829511    12.000000000000
         C           -2.481085451024    -0.429857920453     0.241513170489    12.000000000000
         H           -0.073119451024    -1.790707920453     0.385652170489     1.007825032230
         H            0.668388548976    -0.811916920453     1.652948170489     1.007825032230
         H           -1.825301451024     1.600908079547     0.284587170489     1.007825032230
         H           -1.376985451024     0.643091079547     1.719988170489     1.007825032230
         H           -0.045201451024     0.898535079547    -1.869764829511     1.007825032230
         H            1.692759548976     2.573340079547     1.394689170489     1.007825032230
         H            3.196247548976    -2.443059920453    -0.388283829511     1.007825032230
         H           -4.045515451024    -0.677371920453    -0.759440829511     1.007825032230

  Basis Set: AUG-CC-PVTZ
    Blend: AUG-CC-PVTZ
  Basis Set: (AUG-CC-PVTZ AUX)
    Blend: AUG-CC-PVTZ-JKFIT
	 Reference Energy          =    -756.2560527312845124 [Eh]
	 Singles Energy            =      -0.0000000000000000 [Eh]
	 Same-Spin Energy          =      -0.7309045583165166 [Eh]
	 Opposite-Spin Energy      =      -2.1620523823031972 [Eh]
	 Correlation Energy        =      -2.8929569406197135 [Eh]
	 Total Energy              =    -759.1490096719041958 [Eh]

	 ================> DF-SCS-MP2 Energies <==================
	-----------------------------------------------------------
	 SCS Same-Spin Scale       =       0.3333333333333333 [-]
	 SCS Opposite-Spin Scale   =       1.2000000000000000 [-]
	 SCS Same-Spin Energy      =      -0.2436348527721722 [Eh]
	 SCS Opposite-Spin Energy  =      -2.5944628587638365 [Eh]
	 SCS Correlation Energy    =      -2.8380977115360086 [Eh]
	 SCS Total Energy          =    -759.0941504428204780 [Eh]
	-----------------------------------------------------------

  Dipole Moment: [D]
     X:    -0.0090      Y:     0.9404      Z:     1.9796     Total:     2.1917

*** Psi4 exiting successfully. Buy a developer a beer!
