                               Psi4 1.4a3.dev225

  ==> Input File <==

--------------------------------------------------------------------------
#psi4
#
memory 32 gb

molecule  {
0 1
  O       -0.2992690     0.0680640    -1.4275900
  O        1.1877140     1.7322170     1.3773330
  O        0.9070830     2.3739170    -0.7855270
  O        2.2997080    -2.4217750    -0.0198700
  O       -3.4574230     0.0760400    -0.5564670
  O        2.6367000    -0.2338780    -0.4933410
  O       -2.4354340    -1.6059620     0.5620860
  C       -0.1069630     0.3116450    -0.0442490
  C        0.5596710    -0.9208170     0.5523550
  C       -1.4701590     0.6204980     0.6142450
  C        0.7459620     1.5647900     0.1124790
  C        1.9235890    -1.1209070    -0.0515450
  C       -2.4760910    -0.4336940     0.2256510
  H       -0.0681940    -1.7945300     0.3699280
  H        0.6734230    -0.8156830     1.6371260
  H       -1.8203340     1.5970830     0.2688470
  H       -1.3719830     0.6391850     1.7041930
  H       -0.0401320     0.8945830    -1.8856220
  H        1.6873025     2.5524718     1.3787387
  H        3.2011100    -2.4470060    -0.4042100
  H       -4.0402960    -0.6812640    -0.7756360
units angstrom
no_reorient  #important for SAPT in psi4, default
symmetry c1  #important for SAPT in psi4, default
}

set PROPERTIES_ORIGIN ["COM"]
properties('MP2/aug-cc-pvtz', properties = ['dipole'])
--------------------------------------------------------------------------

    Molecular point group: c1
  Charge       = 0
  Multiplicity = 1
  Basis Set: AUG-CC-PVTZ
    Blend: AUG-CC-PVTZ
  Basis Set: (AUG-CC-PVTZ AUX)
    Blend: AUG-CC-PVTZ-JKFIT

    Orbital Energies [Eh]
    ---------------------

    Doubly Occupied:

       1A    -20.637035     2A    -20.627040     3A    -20.625153
       4A    -20.578473     5A    -20.571775     6A    -20.562800
       7A    -20.561189     8A    -11.411922     9A    -11.406477
      10A    -11.402553    11A    -11.340936    12A    -11.273546
      13A    -11.262262    14A     -1.488537    15A     -1.472611
      16A     -1.470435    17A     -1.400262    18A     -1.373216
      19A     -1.368912    20A     -1.366700    21A     -1.117477
      22A     -1.039199    23A     -0.954244    24A     -0.855047
      25A     -0.830573    26A     -0.796948    27A     -0.760840
      28A     -0.729518    29A     -0.718882    30A     -0.716330
      31A     -0.705508    32A     -0.691323    33A     -0.669434
      34A     -0.654253    35A     -0.645405    36A     -0.638544
      37A     -0.623034    38A     -0.604837    39A     -0.595545
      40A     -0.580622    41A     -0.562409    42A     -0.559605
      43A     -0.546562    44A     -0.506448    45A     -0.495276
      46A     -0.490741    47A     -0.486169    48A     -0.472201
      49A     -0.465731    50A     -0.452824

  @DF-RHF Final Energy:  -756.25899057889876

   => Energetics <=

    Nuclear Repulsion Energy =            874.7954990233145054
    One-Electron Energy =               -2777.7742488743238027
    Two-Electron Energy =                1146.7197592721106503
    Total Energy =                       -756.2589905788986471
  Basis Set: (AUG-CC-PVTZ AUX)
    Blend: AUG-CC-PVTZ-RI
    Molecular point group: c1

    Geometry (in Angstrom), charge = 0, multiplicity = 1:

       Center              X                  Y                   Z               Mass
    ------------   -----------------  -----------------  -----------------  -----------------
         O           -0.308330641844     0.067956650379    -1.415775817418    15.994914619570
         O            1.178652358156     1.732109650379     1.389147182582    15.994914619570
         O            0.898021358156     2.373809650379    -0.773712817418    15.994914619570
         O            2.290646358156    -2.421882349621    -0.008055817418    15.994914619570
         O           -3.466484641844     0.075932650379    -0.544652817418    15.994914619570
         O            2.627638358156    -0.233985349621    -0.481526817418    15.994914619570
         O           -2.444495641844    -1.606069349621     0.573900182582    15.994914619570
         C           -0.116024641844     0.311537650379    -0.032434817418    12.000000000000
         C            0.550609358156    -0.920924349621     0.564169182582    12.000000000000
         C           -1.479220641844     0.620390650379     0.626059182582    12.000000000000
         C            0.736900358156     1.564682650379     0.124293182582    12.000000000000
         C            1.914527358156    -1.121014349621    -0.039730817418    12.000000000000
         C           -2.485152641844    -0.433801349621     0.237465182582    12.000000000000
         H           -0.077255641844    -1.794637349621     0.381742182582     1.007825032230
         H            0.664361358156    -0.815790349621     1.648940182582     1.007825032230
         H           -1.829395641844     1.596975650379     0.280661182582     1.007825032230
         H           -1.381044641844     0.639077650379     1.716007182582     1.007825032230
         H           -0.049193641844     0.894475650379    -1.873807817418     1.007825032230
         H            1.678240858156     2.552364450379     1.390552882582     1.007825032230
         H            3.192048358156    -2.447113349621    -0.392395817418     1.007825032230
         H           -4.049357641844    -0.681371349621    -0.763821817418     1.007825032230

  Basis Set: AUG-CC-PVTZ
    Blend: AUG-CC-PVTZ
  Basis Set: (AUG-CC-PVTZ AUX)
    Blend: AUG-CC-PVTZ-JKFIT
	 Reference Energy          =    -756.2589905788987608 [Eh]
	 Singles Energy            =      -0.0000000000000000 [Eh]
	 Same-Spin Energy          =      -0.7302915495149103 [Eh]
	 Opposite-Spin Energy      =      -2.1610082393134595 [Eh]
	 Correlation Energy        =      -2.8912997888283698 [Eh]
	 Total Energy              =    -759.1502903677271661 [Eh]

	 ================> DF-SCS-MP2 Energies <==================
	-----------------------------------------------------------
	 SCS Same-Spin Scale       =       0.3333333333333333 [-]
	 SCS Opposite-Spin Scale   =       1.2000000000000000 [-]
	 SCS Same-Spin Energy      =      -0.2434305165049701 [Eh]
	 SCS Opposite-Spin Energy  =      -2.5932098871761515 [Eh]
	 SCS Correlation Energy    =      -2.8366404036811215 [Eh]
	 SCS Total Energy          =    -759.0956309825799053 [Eh]
	-----------------------------------------------------------

  Dipole Moment: [D]
     X:    -0.1840      Y:     0.7154      Z:     1.8527     Total:     1.9945

*** Psi4 exiting successfully. Buy a developer a beer!
