                               Psi4 1.4a3.dev225

  ==> Input File <==

--------------------------------------------------------------------------
#psi4
#
memory 32 gb

molecule  {
0 1
  O       -0.2992690     0.0680640    -1.4275900
  O        1.1877140     1.7322170     1.3773330
  O        0.9070830     2.3739170    -0.7855270
  O        2.2997080    -2.4217750    -0.0198700
  O       -3.4574230     0.0760400    -0.5564670
  O        2.6367000    -0.2338780    -0.4933410
  O       -2.4354340    -1.6059620     0.5620860
  C       -0.1069630     0.3116450    -0.0442490
  C        0.5596710    -0.9208170     0.5523550
  C       -1.4701590     0.6204980     0.6142450
  C        0.7459620     1.5647900     0.1124790
  C        1.9235890    -1.1209070    -0.0515450
  C       -2.4760910    -0.4336940     0.2256510
  H       -0.0681940    -1.7945300     0.3699280
  H        0.6734230    -0.8156830     1.6371260
  H       -1.8203340     1.5970830     0.2688470
  H       -1.3719830     0.6391850     1.7041930
  H       -0.0348426     0.9114536    -1.8949712
  H        1.6977060     2.5695530     1.3787680
  H        3.2011100    -2.4470060    -0.4042100
  H       -4.0402960    -0.6812640    -0.7756360
units angstrom
no_reorient  #important for SAPT in psi4, default
symmetry c1  #important for SAPT in psi4, default
}

set PROPERTIES_ORIGIN ["COM"]
properties('MP2/aug-cc-pvtz', properties = ['dipole'])
--------------------------------------------------------------------------

    Molecular point group: c1
  Charge       = 0
  Multiplicity = 1
  Basis Set: AUG-CC-PVTZ
    Blend: AUG-CC-PVTZ
  Basis Set: (AUG-CC-PVTZ AUX)
    Blend: AUG-CC-PVTZ-JKFIT

    Orbital Energies [Eh]
    ---------------------

    Doubly Occupied:

       1A    -20.638315     2A    -20.626795     3A    -20.624952
       4A    -20.579188     5A    -20.571662     6A    -20.562533
       7A    -20.560942     8A    -11.411583     9A    -11.406207
      10A    -11.402315    11A    -11.340466    12A    -11.273211
      13A    -11.261960    14A     -1.485726    15A     -1.472330
      16A     -1.470131    17A     -1.396562    18A     -1.371557
      19A     -1.368590    20A     -1.365812    21A     -1.116010
      22A     -1.038872    23A     -0.952589    24A     -0.852785
      25A     -0.830164    26A     -0.794253    27A     -0.758569
      28A     -0.728174    29A     -0.718319    30A     -0.716069
      31A     -0.704728    32A     -0.690812    33A     -0.669017
      34A     -0.653752    35A     -0.643390    36A     -0.637927
      37A     -0.622536    38A     -0.604295    39A     -0.595061
      40A     -0.580263    41A     -0.561792    42A     -0.558870
      43A     -0.544318    44A     -0.506071    45A     -0.494878
      46A     -0.490458    47A     -0.485995    48A     -0.471487
      49A     -0.465453    50A     -0.452560

  @DF-RHF Final Energy:  -756.25649298422150

   => Energetics <=

    Nuclear Repulsion Energy =            874.5285568458731404
    One-Electron Energy =               -2777.3094968012342179
    Two-Electron Energy =                1146.5244469711396960
    Total Energy =                       -756.2564929842214951
  Basis Set: (AUG-CC-PVTZ AUX)
    Blend: AUG-CC-PVTZ-RI
    Molecular point group: c1

    Geometry (in Angstrom), charge = 0, multiplicity = 1:

       Center              X                  Y                   Z               Mass
    ------------   -----------------  -----------------  -----------------  -----------------
         O           -0.308413003685     0.067778459429    -1.415726903316    15.994914619570
         O            1.178569996315     1.731931459429     1.389196096684    15.994914619570
         O            0.897938996315     2.373631459429    -0.773663903316    15.994914619570
         O            2.290563996315    -2.422060540571    -0.008006903316    15.994914619570
         O           -3.466567003685     0.075754459429    -0.544603903316    15.994914619570
         O            2.627555996315    -0.234163540571    -0.481477903316    15.994914619570
         O           -2.444578003685    -1.606247540571     0.573949096684    15.994914619570
         C           -0.116107003685     0.311359459429    -0.032385903316    12.000000000000
         C            0.550526996315    -0.921102540571     0.564218096684    12.000000000000
         C           -1.479303003685     0.620212459429     0.626108096684    12.000000000000
         C            0.736817996315     1.564504459429     0.124342096684    12.000000000000
         C            1.914444996315    -1.121192540571    -0.039681903316    12.000000000000
         C           -2.485235003685    -0.433979540571     0.237514096684    12.000000000000
         H           -0.077338003685    -1.794815540571     0.381791096684     1.007825032230
         H            0.664278996315    -0.815968540571     1.648989096684     1.007825032230
         H           -1.829478003685     1.596797459429     0.280710096684     1.007825032230
         H           -1.381127003685     0.638899459429     1.716056096684     1.007825032230
         H           -0.043986603685     0.911168059429    -1.883108103316     1.007825032230
         H            1.688561996315     2.569267459429     1.390631096684     1.007825032230
         H            3.191965996315    -2.447291540571    -0.392346903316     1.007825032230
         H           -4.049440003685    -0.681549540571    -0.763772903316     1.007825032230

  Basis Set: AUG-CC-PVTZ
    Blend: AUG-CC-PVTZ
  Basis Set: (AUG-CC-PVTZ AUX)
    Blend: AUG-CC-PVTZ-JKFIT
	 Reference Energy          =    -756.2564929842214951 [Eh]
	 Singles Energy            =      -0.0000000000000000 [Eh]
	 Same-Spin Energy          =      -0.7308443827128541 [Eh]
	 Opposite-Spin Energy      =      -2.1622272401230589 [Eh]
	 Correlation Energy        =      -2.8930716228359130 [Eh]
	 Total Energy              =    -759.1495646070574139 [Eh]

	 ================> DF-SCS-MP2 Energies <==================
	-----------------------------------------------------------
	 SCS Same-Spin Scale       =       0.3333333333333333 [-]
	 SCS Opposite-Spin Scale   =       1.2000000000000000 [-]
	 SCS Same-Spin Energy      =      -0.2436147942376180 [Eh]
	 SCS Opposite-Spin Energy  =      -2.5946726881476705 [Eh]
	 SCS Correlation Energy    =      -2.8382874823852884 [Eh]
	 SCS Total Energy          =    -759.0947804666068350 [Eh]
	-----------------------------------------------------------

  Dipole Moment: [D]
     X:    -0.1559      Y:     0.7637      Z:     1.8501     Total:     2.0076

*** Psi4 exiting successfully. Buy a developer a beer!
