                               Psi4 1.4a3.dev225

  ==> Input File <==

--------------------------------------------------------------------------
#psi4
#
memory 32 gb

molecule  {
0 1
  O       -0.2992690     0.0680640    -1.4275900
  O        1.1877140     1.7322170     1.3773330
  O        0.9070830     2.3739170    -0.7855270
  O        2.2997080    -2.4217750    -0.0198700
  O       -3.4574230     0.0760400    -0.5564670
  O        2.6367000    -0.2338780    -0.4933410
  O       -2.4354340    -1.6059620     0.5620860
  C       -0.1069630     0.3116450    -0.0442490
  C        0.5596710    -0.9208170     0.5523550
  C       -1.4701590     0.6204980     0.6142450
  C        0.7739461     1.6059051     0.1176212
  C        1.9235890    -1.1209070    -0.0515450
  C       -2.4760910    -0.4336940     0.2256510
  H       -0.0681940    -1.7945300     0.3699280
  H        0.6734230    -0.8156830     1.6371260
  H       -1.8203340     1.5970830     0.2688470
  H       -1.3719830     0.6391850     1.7041930
  H       -0.0401320     0.8945830    -1.8856220
  H        1.6977060     2.5695530     1.3787680
  H        3.2011100    -2.4470060    -0.4042100
  H       -4.0402960    -0.6812640    -0.7756360
units angstrom
no_reorient  #important for SAPT in psi4, default
symmetry c1  #important for SAPT in psi4, default
}

set PROPERTIES_ORIGIN ["COM"]
properties('MP2/aug-cc-pvtz', properties = ['dipole'])
--------------------------------------------------------------------------

    Molecular point group: c1
  Charge       = 0
  Multiplicity = 1
  Basis Set: AUG-CC-PVTZ
    Blend: AUG-CC-PVTZ
  Basis Set: (AUG-CC-PVTZ AUX)
    Blend: AUG-CC-PVTZ-JKFIT

    Orbital Energies [Eh]
    ---------------------

    Doubly Occupied:

       1A    -20.643212     2A    -20.625241     3A    -20.623926
       4A    -20.575783     5A    -20.573835     6A    -20.560668
       7A    -20.559829     8A    -11.408354     9A    -11.404149
      10A    -11.400966    11A    -11.337908    12A    -11.270085
      13A    -11.259102    14A     -1.498254    15A     -1.470750
      16A     -1.469293    17A     -1.405988    18A     -1.380279
      19A     -1.367059    20A     -1.365597    21A     -1.110430
      22A     -1.036098    23A     -0.942488    24A     -0.853213
      25A     -0.828234    26A     -0.792650    27A     -0.760902
      28A     -0.732317    29A     -0.717408    30A     -0.714973
      31A     -0.704438    32A     -0.689967    33A     -0.667070
      34A     -0.658136    35A     -0.648154    36A     -0.641299
      37A     -0.623594    38A     -0.603192    39A     -0.594502
      40A     -0.579206    41A     -0.560238    42A     -0.556408
      43A     -0.546466    44A     -0.514339    45A     -0.493464
      46A     -0.489776    47A     -0.484212    48A     -0.468911
      49A     -0.463488    50A     -0.447214

  @DF-RHF Final Energy:  -756.25836215777588

   => Energetics <=

    Nuclear Repulsion Energy =            874.2085295680199124
    One-Electron Energy =               -2776.6876638240719330
    Two-Electron Energy =                1146.2207720982762567
    Total Energy =                       -756.2583621577757640
  Basis Set: (AUG-CC-PVTZ AUX)
    Blend: AUG-CC-PVTZ-RI
    Molecular point group: c1

    Geometry (in Angstrom), charge = 0, multiplicity = 1:

       Center              X                  Y                   Z               Mass
    ------------   -----------------  -----------------  -----------------  -----------------
         O           -0.310134003366     0.065297669850    -1.416097313502    15.994914619570
         O            1.176848996634     1.729450669850     1.388825686498    15.994914619570
         O            0.896217996634     2.371150669850    -0.774034313502    15.994914619570
         O            2.288842996634    -2.424541330150    -0.008377313502    15.994914619570
         O           -3.468288003366     0.073273669850    -0.544974313502    15.994914619570
         O            2.625834996634    -0.236644330150    -0.481848313502    15.994914619570
         O           -2.446299003366    -1.608728330150     0.573578686498    15.994914619570
         C           -0.117828003366     0.308878669850    -0.032756313502    12.000000000000
         C            0.548805996634    -0.923583330150     0.563847686498    12.000000000000
         C           -1.481024003366     0.617731669850     0.625737686498    12.000000000000
         C            0.763081096634     1.603138769850     0.129113886498    12.000000000000
         C            1.912723996634    -1.123673330150    -0.040052313502    12.000000000000
         C           -2.486956003366    -0.436460330150     0.237143686498    12.000000000000
         H           -0.079059003366    -1.797296330150     0.381420686498     1.007825032230
         H            0.662557996634    -0.818449330150     1.648618686498     1.007825032230
         H           -1.831199003366     1.594316669850     0.280339686498     1.007825032230
         H           -1.382848003366     0.636418669850     1.715685686498     1.007825032230
         H           -0.050997003366     0.891816669850    -1.874129313502     1.007825032230
         H            1.686840996634     2.566786669850     1.390260686498     1.007825032230
         H            3.190244996634    -2.449772330150    -0.392717313502     1.007825032230
         H           -4.051161003366    -0.684030330150    -0.764143313502     1.007825032230

  Basis Set: AUG-CC-PVTZ
    Blend: AUG-CC-PVTZ
  Basis Set: (AUG-CC-PVTZ AUX)
    Blend: AUG-CC-PVTZ-JKFIT
	 Reference Energy          =    -756.2583621577758777 [Eh]
	 Singles Energy            =      -0.0000000000000000 [Eh]
	 Same-Spin Energy          =      -0.7297672891723459 [Eh]
	 Opposite-Spin Energy      =      -2.1599156071216599 [Eh]
	 Correlation Energy        =      -2.8896828962940058 [Eh]
	 Total Energy              =    -759.1480450540699394 [Eh]

	 ================> DF-SCS-MP2 Energies <==================
	-----------------------------------------------------------
	 SCS Same-Spin Scale       =       0.3333333333333333 [-]
	 SCS Opposite-Spin Scale   =       1.2000000000000000 [-]
	 SCS Same-Spin Energy      =      -0.2432557630574486 [Eh]
	 SCS Opposite-Spin Energy  =      -2.5918987285459916 [Eh]
	 SCS Correlation Energy    =      -2.8351544916034404 [Eh]
	 SCS Total Energy          =    -759.0935166493793531 [Eh]
	-----------------------------------------------------------

  Dipole Moment: [D]
     X:    -0.0100      Y:     0.9779      Z:     1.8999     Total:     2.1369

*** Psi4 exiting successfully. Buy a developer a beer!
