                               Psi4 1.4a3.dev225

  ==> Input File <==

--------------------------------------------------------------------------
#psi4
#
memory 32 gb

molecule  {
0 1
  O       -0.2992690     0.0680640    -1.4275900
  O        1.1877140     1.7322170     1.3773330
  O        0.9070830     2.3739170    -0.7855270
  O        2.2997080    -2.4217750    -0.0198700
  O       -3.4574230     0.0760400    -0.5564670
  O        2.6367000    -0.2338780    -0.4933410
  O       -2.4354340    -1.6059620     0.5620860
  C       -0.1069630     0.3116450    -0.0442490
  C        0.5596710    -0.9208170     0.5523550
  C       -1.4701590     0.6204980     0.6142450
  C        0.7459620     1.5647900     0.1124790
  C        1.9235890    -1.1209070    -0.0515450
  C       -2.4760910    -0.4336940     0.2256510
  H       -0.0681940    -1.7945300     0.3699280
  H        0.6734230    -0.8156830     1.6371260
  H       -1.8203340     1.5970830     0.2688470
  H       -1.3719830     0.6391850     1.7041930
  H       -0.0454214     0.8777124    -1.8762728
  H        1.6977060     2.5695530     1.3787680
  H        3.2011100    -2.4470060    -0.4042100
  H       -4.0402960    -0.6812640    -0.7756360
units angstrom
no_reorient  #important for SAPT in psi4, default
symmetry c1  #important for SAPT in psi4, default
}

set PROPERTIES_ORIGIN ["COM"]
properties('MP2/aug-cc-pvtz', properties = ['dipole'])
--------------------------------------------------------------------------

    Molecular point group: c1
  Charge       = 0
  Multiplicity = 1
  Basis Set: AUG-CC-PVTZ
    Blend: AUG-CC-PVTZ
  Basis Set: (AUG-CC-PVTZ AUX)
    Blend: AUG-CC-PVTZ-JKFIT

    Orbital Energies [Eh]
    ---------------------

    Doubly Occupied:

       1A    -20.638133     2A    -20.627102     3A    -20.625147
       4A    -20.577380     5A    -20.571084     6A    -20.562865
       7A    -20.561166     8A    -11.411432     9A    -11.406527
      10A    -11.402536    11A    -11.341170    12A    -11.273602
      13A    -11.262293    14A     -1.485663    15A     -1.472652
      16A     -1.470324    17A     -1.402151    18A     -1.373111
      19A     -1.368993    20A     -1.366940    21A     -1.118229
      22A     -1.039254    23A     -0.953063    24A     -0.853949
      25A     -0.830588    26A     -0.797015    27A     -0.761561
      28A     -0.727982    29A     -0.718694    30A     -0.716319
      31A     -0.705532    32A     -0.691504    33A     -0.669542
      34A     -0.653884    35A     -0.645722    36A     -0.638009
      37A     -0.623037    38A     -0.604941    39A     -0.595653
      40A     -0.580687    41A     -0.562722    42A     -0.559931
      43A     -0.547493    44A     -0.505739    45A     -0.495449
      46A     -0.490670    47A     -0.485861    48A     -0.472626
      49A     -0.465697    50A     -0.452727

  @DF-RHF Final Energy:  -756.25899754467900

   => Energetics <=

    Nuclear Repulsion Energy =            874.7804790977645553
    One-Electron Energy =               -2777.7502524457831896
    Two-Electron Energy =                1146.7107758033396294
    Total Energy =                       -756.2589975446790049
  Basis Set: (AUG-CC-PVTZ AUX)
    Blend: AUG-CC-PVTZ-RI
    Molecular point group: c1

    Geometry (in Angstrom), charge = 0, multiplicity = 1:

       Center              X                  Y                   Z               Mass
    ------------   -----------------  -----------------  -----------------  -----------------
         O           -0.308357482434     0.067955545076    -1.415825039074    15.994914619570
         O            1.178625517566     1.732108545076     1.389097960926    15.994914619570
         O            0.897994517566     2.373808545076    -0.773762039074    15.994914619570
         O            2.290619517566    -2.421883454924    -0.008105039074    15.994914619570
         O           -3.466511482434     0.075931545076    -0.544702039074    15.994914619570
         O            2.627611517566    -0.233986454924    -0.481576039074    15.994914619570
         O           -2.444522482434    -1.606070454924     0.573850960926    15.994914619570
         C           -0.116051482434     0.311536545076    -0.032484039074    12.000000000000
         C            0.550582517566    -0.920925454924     0.564119960926    12.000000000000
         C           -1.479247482434     0.620389545076     0.626009960926    12.000000000000
         C            0.736873517566     1.564681545076     0.124243960926    12.000000000000
         C            1.914500517566    -1.121015454924    -0.039780039074    12.000000000000
         C           -2.485179482434    -0.433802454924     0.237415960926    12.000000000000
         H           -0.077282482434    -1.794638454924     0.381692960926     1.007825032230
         H            0.664334517566    -0.815791454924     1.648890960926     1.007825032230
         H           -1.829422482434     1.596974545076     0.280611960926     1.007825032230
         H           -1.381071482434     0.639076545076     1.715957960926     1.007825032230
         H           -0.054509882434     0.877603945076    -1.864507839074     1.007825032230
         H            1.688617517566     2.569444545076     1.390532960926     1.007825032230
         H            3.192021517566    -2.447114454924    -0.392445039074     1.007825032230
         H           -4.049384482434    -0.681372454924    -0.763871039074     1.007825032230

  Basis Set: AUG-CC-PVTZ
    Blend: AUG-CC-PVTZ
  Basis Set: (AUG-CC-PVTZ AUX)
    Blend: AUG-CC-PVTZ-JKFIT
	 Reference Energy          =    -756.2589975446790049 [Eh]
	 Singles Energy            =      -0.0000000000000000 [Eh]
	 Same-Spin Energy          =      -0.7302573581179646 [Eh]
	 Opposite-Spin Energy      =      -2.1609877289608437 [Eh]
	 Correlation Energy        =      -2.8912450870788082 [Eh]
	 Total Energy              =    -759.1502426317578056 [Eh]

	 ================> DF-SCS-MP2 Energies <==================
	-----------------------------------------------------------
	 SCS Same-Spin Scale       =       0.3333333333333333 [-]
	 SCS Opposite-Spin Scale   =       1.2000000000000000 [-]
	 SCS Same-Spin Energy      =      -0.2434191193726548 [Eh]
	 SCS Opposite-Spin Energy  =      -2.5931852747530124 [Eh]
	 SCS Correlation Energy    =      -2.8366043941256671 [Eh]
	 SCS Total Energy          =    -759.0956019388046343 [Eh]
	-----------------------------------------------------------

  Dipole Moment: [D]
     X:    -0.1792      Y:     0.7143      Z:     1.8712     Total:     2.0109

*** Psi4 exiting successfully. Buy a developer a beer!
