                               Psi4 1.3.2 release

  ==> Input File <==

--------------------------------------------------------------------------
#psi4
#
memory 32 gb

molecule  {
0 1
  O       -0.2992330     0.0680890    -1.4276520
  O        1.1877390     1.7321380     1.3773370
  O        0.9070540     2.3739560    -0.7854760
  O        2.1736712    -2.4490445     0.0388574
  O       -3.4576290     0.0760600    -0.5562400
  O        2.6367540    -0.2338110    -0.4932570
  O       -2.4353810    -1.6060190     0.5619510
  C       -0.1069590     0.3116290    -0.0442930
  C        0.5596730    -0.9208470     0.5522810
  C       -1.4701600     0.6204770     0.6141540
  C        0.7459700     1.5647750     0.1124900
  C        1.9236380    -1.1208730    -0.0515330
  C       -2.4761190    -0.4337210     0.2256320
  H       -0.0681530    -1.7945710     0.3697710
  H        0.6733550    -0.8157800     1.6370670
  H       -1.8203350     1.5970450     0.2687060
  H       -1.3720190     0.6392280     1.7041070
  H       -0.0402350     0.8946720    -1.8856460
  H        1.6977260     2.5694770     1.3788080
  H        3.2012140    -2.4469230    -0.4041650
  H       -4.0405490    -0.6812350    -0.7753220
units angstrom
no_reorient  #important for SAPT in psi4, default
symmetry c1  #important for SAPT in psi4, default
}

set PROPERTIES_ORIGIN ["COM"]
properties('MP2/aug-cc-pvtz', properties = ['dipole'])
--------------------------------------------------------------------------

    Molecular point group: c1
  Charge       = 0
  Multiplicity = 1
  Basis Set: AUG-CC-PVTZ
    Blend: AUG-CC-PVTZ
  Basis Set: (AUG-CC-PVTZ AUX)
    Blend: AUG-CC-PVTZ-JKFIT

    Orbital Energies [Eh]
    ---------------------

    Doubly Occupied:

       1A    -20.641181     2A    -20.637497     3A    -20.625641
       4A    -20.576778     5A    -20.570625     6A    -20.567764
       7A    -20.561138     8A    -11.410304     9A    -11.404788
      10A    -11.403361    11A    -11.337466    12A    -11.271270
      13A    -11.255715    14A     -1.484773    15A     -1.471091
      16A     -1.460777    17A     -1.397592    18A     -1.371303
      19A     -1.368225    20A     -1.366718    21A     -1.113936
      22A     -1.034502    23A     -0.948776    24A     -0.846400
      25A     -0.819448    26A     -0.787284    27A     -0.757219
      28A     -0.728230    29A     -0.717063    30A     -0.709085
      31A     -0.703984    32A     -0.688893    33A     -0.668013
      34A     -0.653888    35A     -0.642983    36A     -0.636525
      37A     -0.617224    38A     -0.605006    39A     -0.593506
      40A     -0.580257    41A     -0.558732    42A     -0.553898
      43A     -0.542421    44A     -0.505827    45A     -0.495782
      46A     -0.493342    47A     -0.484727    48A     -0.471548
      49A     -0.463356    50A     -0.450873

  @DF-RHF Final Energy:  -756.23029698878827

   => Energetics <=

    Nuclear Repulsion Energy =            875.0548108714413047
    One-Electron Energy =               -2778.4567418512965560
    Two-Electron Energy =                1147.1716339910669831
    Total Energy =                       -756.2302969887882682
  Basis Set: (AUG-CC-PVTZ AUX)
    Blend: AUG-CC-PVTZ-RI
    Molecular point group: c1

    Geometry (in Angstrom), charge = 0, multiplicity = 1:

       Center              X                  Y                   Z               Mass
    ------------   -----------------  -----------------  -----------------  -----------------
         O           -0.297845981522     0.070166898268    -1.420730587049    15.994914619570
         O            1.189126018478     1.734215898268     1.384258412951    15.994914619570
         O            0.908441018478     2.376033898268    -0.778554587049    15.994914619570
         O            2.175058218478    -2.446966601732     0.045778812951    15.994914619570
         O           -3.456241981522     0.078137898268    -0.549318587049    15.994914619570
         O            2.638141018478    -0.231733101732    -0.486335587049    15.994914619570
         O           -2.433993981522    -1.603941101732     0.568872412951    15.994914619570
         C           -0.105571981522     0.313706898268    -0.037371587049    12.000000000000
         C            0.561060018478    -0.918769101732     0.559202412951    12.000000000000
         C           -1.468772981522     0.622554898268     0.621075412951    12.000000000000
         C            0.747357018478     1.566852898268     0.119411412951    12.000000000000
         C            1.925025018478    -1.118795101732    -0.044611587049    12.000000000000
         C           -2.474731981522    -0.431643101732     0.232553412951    12.000000000000
         H           -0.066765981522    -1.792493101732     0.376692412951     1.007825032230
         H            0.674742018478    -0.813702101732     1.643988412951     1.007825032230
         H           -1.818947981522     1.599122898268     0.275627412951     1.007825032230
         H           -1.370631981522     0.641305898268     1.711028412951     1.007825032230
         H           -0.038847981522     0.896749898268    -1.878724587049     1.007825032230
         H            1.699113018478     2.571554898268     1.385729412951     1.007825032230
         H            3.202601018478    -2.444845101732    -0.397243587049     1.007825032230
         H           -4.039161981522    -0.679157101732    -0.768400587049     1.007825032230

  Basis Set: AUG-CC-PVTZ
    Blend: AUG-CC-PVTZ
  Basis Set: (AUG-CC-PVTZ AUX)
    Blend: AUG-CC-PVTZ-JKFIT
	 Reference Energy          =    -756.2302969887882682 [Eh]
	 Singles Energy            =      -0.0000000000000000 [Eh]
	 Same-Spin Energy          =      -0.7334880260802942 [Eh]
	 Opposite-Spin Energy      =      -2.1681941692682174 [Eh]
	 Correlation Energy        =      -2.9016821953485117 [Eh]
	 Total Energy              =    -759.1319791841367532 [Eh]

	 ================> DF-SCS-MP2 Energies <==================
	-----------------------------------------------------------
	 SCS Same-Spin Scale       =       0.3333333333333333 [-]
	 SCS Opposite-Spin Scale   =       1.2000000000000000 [-]
	 SCS Same-Spin Energy      =      -0.2444960086934314 [Eh]
	 SCS Opposite-Spin Energy  =      -2.6018330031218606 [Eh]
	 SCS Correlation Energy    =      -2.8463290118152922 [Eh]
	 SCS Total Energy          =    -759.0766260006035964 [Eh]
	-----------------------------------------------------------

  Dipole Moment: [D]
     X:     0.0792      Y:     0.6631      Z:     1.7860     Total:     1.9068

*** Psi4 exiting successfully. Buy a developer a beer!
