                               Psi4 1.3.2 release

  ==> Input File <==

--------------------------------------------------------------------------
#psi4
#
memory 32 gb

molecule  {
0 1
  O       -0.2992330     0.0680890    -1.4276520
  O        1.1693902     1.6901675     1.3884211
  O        0.9070540     2.3739560    -0.7854760
  O        2.2997900    -2.4217320    -0.0198770
  O       -3.4576290     0.0760600    -0.5562400
  O        2.6367540    -0.2338110    -0.4932570
  O       -2.4353810    -1.6060190     0.5619510
  C       -0.1069590     0.3116290    -0.0442930
  C        0.5596730    -0.9208470     0.5522810
  C       -1.4701600     0.6204770     0.6141540
  C        0.7459700     1.5647750     0.1124900
  C        1.9236380    -1.1208730    -0.0515330
  C       -2.4761190    -0.4337210     0.2256320
  H       -0.0681530    -1.7945710     0.3697710
  H        0.6733550    -0.8157800     1.6370670
  H       -1.8203350     1.5970450     0.2687060
  H       -1.3720190     0.6392280     1.7041070
  H       -0.0402350     0.8946720    -1.8856460
  H        1.6977260     2.5694770     1.3788080
  H        3.2012140    -2.4469230    -0.4041650
  H       -4.0405490    -0.6812350    -0.7753220
units angstrom
no_reorient  #important for SAPT in psi4, default
symmetry c1  #important for SAPT in psi4, default
}

set PROPERTIES_ORIGIN ["COM"]
properties('MP2/aug-cc-pvtz', properties = ['dipole'])
--------------------------------------------------------------------------

    Molecular point group: c1
  Charge       = 0
  Multiplicity = 1
  Basis Set: AUG-CC-PVTZ
    Blend: AUG-CC-PVTZ
  Basis Set: (AUG-CC-PVTZ AUX)
    Blend: AUG-CC-PVTZ-JKFIT

    Orbital Energies [Eh]
    ---------------------

    Doubly Occupied:

       1A    -20.644011     2A    -20.626435     3A    -20.624657
       4A    -20.577014     5A    -20.573510     6A    -20.562101
       7A    -20.560622     8A    -11.411688     9A    -11.405731
      10A    -11.401943    11A    -11.338602    12A    -11.272543
      13A    -11.261137    14A     -1.482411    15A     -1.471901
      16A     -1.469626    17A     -1.397459    18A     -1.372771
      19A     -1.368276    20A     -1.366068    21A     -1.115568
      22A     -1.038287    23A     -0.949827    24A     -0.849187
      25A     -0.829591    26A     -0.791039    27A     -0.757147
      28A     -0.727257    29A     -0.717597    30A     -0.715767
      31A     -0.704459    32A     -0.690626    33A     -0.668463
      34A     -0.653538    35A     -0.644364    36A     -0.637774
      37A     -0.623066    38A     -0.603842    39A     -0.594926
      40A     -0.579931    41A     -0.561304    42A     -0.558101
      43A     -0.545066    44A     -0.507333    45A     -0.494613
      46A     -0.490220    47A     -0.485947    48A     -0.471131
      49A     -0.465097    50A     -0.451752

  @DF-RHF Final Energy:  -756.25226565963669

   => Energetics <=

    Nuclear Repulsion Energy =            875.0672248312763486
    One-Electron Energy =               -2778.4163308758816129
    Two-Electron Energy =                1147.0968403849685728
    Total Energy =                       -756.2522656596368051
  Basis Set: (AUG-CC-PVTZ AUX)
    Blend: AUG-CC-PVTZ-RI
    Molecular point group: c1

    Geometry (in Angstrom), charge = 0, multiplicity = 1:

       Center              X                  Y                   Z               Mass
    ------------   -----------------  -----------------  -----------------  -----------------
         O           -0.306822697949     0.071387838320    -1.416761548998    15.994914619570
         O            1.161800502051     1.693466338320     1.399311551002    15.994914619570
         O            0.899464302051     2.377254838320    -0.774585548998    15.994914619570
         O            2.292200302051    -2.418433161680    -0.008986548998    15.994914619570
         O           -3.465218697949     0.079358838320    -0.545349548998    15.994914619570
         O            2.629164302051    -0.230512161680    -0.482366548998    15.994914619570
         O           -2.442970697949    -1.602720161680     0.572841451002    15.994914619570
         C           -0.114548697949     0.314927838320    -0.033402548998    12.000000000000
         C            0.552083302051    -0.917548161680     0.563171451002    12.000000000000
         C           -1.477749697949     0.623775838320     0.625044451002    12.000000000000
         C            0.738380302051     1.568073838320     0.123380451002    12.000000000000
         C            1.916048302051    -1.117574161680    -0.040642548998    12.000000000000
         C           -2.483708697949    -0.430422161680     0.236522451002    12.000000000000
         H           -0.075742697949    -1.791272161680     0.380661451002     1.007825032230
         H            0.665765302051    -0.812481161680     1.647957451002     1.007825032230
         H           -1.827924697949     1.600343838320     0.279596451002     1.007825032230
         H           -1.379608697949     0.642526838320     1.714997451002     1.007825032230
         H           -0.047824697949     0.897970838320    -1.874755548998     1.007825032230
         H            1.690136302051     2.572775838320     1.389698451002     1.007825032230
         H            3.193624302051    -2.443624161680    -0.393274548998     1.007825032230
         H           -4.048138697949    -0.677936161680    -0.764431548998     1.007825032230

  Basis Set: AUG-CC-PVTZ
    Blend: AUG-CC-PVTZ
  Basis Set: (AUG-CC-PVTZ AUX)
    Blend: AUG-CC-PVTZ-JKFIT
	 Reference Energy          =    -756.2522656596366915 [Eh]
	 Singles Energy            =      -0.0000000000000000 [Eh]
	 Same-Spin Energy          =      -0.7315034838422989 [Eh]
	 Opposite-Spin Energy      =      -2.1636395826390666 [Eh]
	 Correlation Energy        =      -2.8951430664813653 [Eh]
	 Total Energy              =    -759.1474087261181012 [Eh]

	 ================> DF-SCS-MP2 Energies <==================
	-----------------------------------------------------------
	 SCS Same-Spin Scale       =       0.3333333333333333 [-]
	 SCS Opposite-Spin Scale   =       1.2000000000000000 [-]
	 SCS Same-Spin Energy      =      -0.2438344946140996 [Eh]
	 SCS Opposite-Spin Energy  =      -2.5963674991668797 [Eh]
	 SCS Correlation Energy    =      -2.8402019937809793 [Eh]
	 SCS Total Energy          =    -759.0924676534176569 [Eh]
	-----------------------------------------------------------

  Dipole Moment: [D]
     X:    -0.1173      Y:     0.8242      Z:     1.8809     Total:     2.0569

*** Psi4 exiting successfully. Buy a developer a beer!
