                               Psi4 1.4a3.dev225

  ==> Input File <==

--------------------------------------------------------------------------
#psi4
#
memory 32 gb

molecule  {
0 1
  O       -0.2992690     0.0680640    -1.4275900
  O        1.1877140     1.7322170     1.3773330
  O        0.9070830     2.3739170    -0.7855270
  O        2.2997080    -2.4217750    -0.0198700
  O       -3.4574230     0.0760400    -0.5564670
  O        2.6367000    -0.2338780    -0.4933410
  O       -2.4354340    -1.6059620     0.5620860
  C       -0.1069630     0.3116450    -0.0442490
  C        0.5596710    -0.9208170     0.5523550
  C       -1.4701590     0.6204980     0.6142450
  C        0.7459620     1.5647900     0.1124790
  C        1.9119070    -1.1354381    -0.0443076
  C       -2.4760910    -0.4336940     0.2256510
  H       -0.0681940    -1.7945300     0.3699280
  H        0.6734230    -0.8156830     1.6371260
  H       -1.8203340     1.5970830     0.2688470
  H       -1.3719830     0.6391850     1.7041930
  H       -0.0401320     0.8945830    -1.8856220
  H        1.6977060     2.5695530     1.3787680
  H        3.2011100    -2.4470060    -0.4042100
  H       -4.0402960    -0.6812640    -0.7756360
units angstrom
no_reorient  #important for SAPT in psi4, default
symmetry c1  #important for SAPT in psi4, default
}

set PROPERTIES_ORIGIN ["COM"]
properties('MP2/aug-cc-pvtz', properties = ['dipole'])
--------------------------------------------------------------------------

    Molecular point group: c1
  Charge       = 0
  Multiplicity = 1
  Basis Set: AUG-CC-PVTZ
    Blend: AUG-CC-PVTZ
  Basis Set: (AUG-CC-PVTZ AUX)
    Blend: AUG-CC-PVTZ-JKFIT

    Orbital Energies [Eh]
    ---------------------

    Doubly Occupied:

       1A    -20.637617     2A    -20.628473     3A    -20.627150
       4A    -20.578251     5A    -20.570711     6A    -20.562966
       7A    -20.557266     8A    -11.411131     9A    -11.406620
      10A    -11.404097    11A    -11.341358    12A    -11.273680
      13A    -11.262747    14A     -1.485043    15A     -1.472712
      16A     -1.471291    17A     -1.398889    18A     -1.371682
      19A     -1.368717    20A     -1.357256    21A     -1.118003
      22A     -1.041359    23A     -0.954107    24A     -0.855341
      25A     -0.832087    26A     -0.796574    27A     -0.760178
      28A     -0.727838    29A     -0.718597    30A     -0.715343
      31A     -0.704628    32A     -0.691597    33A     -0.669633
      34A     -0.654305    35A     -0.644494    36A     -0.637970
      37A     -0.622777    38A     -0.603088    39A     -0.595729
      40A     -0.578203    41A     -0.563032    42A     -0.559843
      43A     -0.546095    44A     -0.505044    45A     -0.495173
      46A     -0.486318    47A     -0.483877    48A     -0.471441
      49A     -0.465096    50A     -0.452714

  @DF-RHF Final Energy:  -756.25598288697825

   => Energetics <=

    Nuclear Repulsion Energy =            874.5687547272717666
    One-Electron Energy =               -2777.3731914632635380
    Two-Electron Energy =                1146.5484538490134128
    Total Energy =                       -756.2559828869782450
  Basis Set: (AUG-CC-PVTZ AUX)
    Blend: AUG-CC-PVTZ-RI
    Molecular point group: c1

    Geometry (in Angstrom), charge = 0, multiplicity = 1:

       Center              X                  Y                   Z               Mass
    ------------   -----------------  -----------------  -----------------  -----------------
         O           -0.307655220728     0.068775068293    -1.416228245088    15.994914619570
         O            1.179327779272     1.732928068293     1.388694754912    15.994914619570
         O            0.898696779272     2.374628068293    -0.774165245088    15.994914619570
         O            2.291321779272    -2.421063931707    -0.008508245088    15.994914619570
         O           -3.465809220728     0.076751068293    -0.545105245088    15.994914619570
         O            2.628313779272    -0.233166931707    -0.481979245088    15.994914619570
         O           -2.443820220728    -1.605250931707     0.573447754912    15.994914619570
         C           -0.115349220728     0.312356068293    -0.032887245088    12.000000000000
         C            0.551284779272    -0.920105931707     0.563716754912    12.000000000000
         C           -1.478545220728     0.621209068293     0.625606754912    12.000000000000
         C            0.737575779272     1.565501068293     0.123840754912    12.000000000000
         C            1.903520779272    -1.134727031707    -0.032945845088    12.000000000000
         C           -2.484477220728    -0.432982931707     0.237012754912    12.000000000000
         H           -0.076580220728    -1.793818931707     0.381289754912     1.007825032230
         H            0.665036779272    -0.814971931707     1.648487754912     1.007825032230
         H           -1.828720220728     1.597794068293     0.280208754912     1.007825032230
         H           -1.380369220728     0.639896068293     1.715554754912     1.007825032230
         H           -0.048518220728     0.895294068293    -1.874260245088     1.007825032230
         H            1.689319779272     2.570264068293     1.390129754912     1.007825032230
         H            3.192723779272    -2.446294931707    -0.392848245088     1.007825032230
         H           -4.048682220728    -0.680552931707    -0.764274245088     1.007825032230

  Basis Set: AUG-CC-PVTZ
    Blend: AUG-CC-PVTZ
  Basis Set: (AUG-CC-PVTZ AUX)
    Blend: AUG-CC-PVTZ-JKFIT
	 Reference Energy          =    -756.2559828869782450 [Eh]
	 Singles Energy            =      -0.0000000000000000 [Eh]
	 Same-Spin Energy          =      -0.7309249076745634 [Eh]
	 Opposite-Spin Energy      =      -2.1622371331117556 [Eh]
	 Correlation Energy        =      -2.8931620407863190 [Eh]
	 Total Energy              =    -759.1491449277646097 [Eh]

	 ================> DF-SCS-MP2 Energies <==================
	-----------------------------------------------------------
	 SCS Same-Spin Scale       =       0.3333333333333333 [-]
	 SCS Opposite-Spin Scale   =       1.2000000000000000 [-]
	 SCS Same-Spin Energy      =      -0.2436416358915211 [Eh]
	 SCS Opposite-Spin Energy  =      -2.5946845597341066 [Eh]
	 SCS Correlation Energy    =      -2.8383261956256276 [Eh]
	 SCS Total Energy          =    -759.0943090826038997 [Eh]
	-----------------------------------------------------------

  Dipole Moment: [D]
     X:    -0.2155      Y:     0.6214      Z:     1.8958     Total:     2.0067

*** Psi4 exiting successfully. Buy a developer a beer!
