                               Psi4 1.4a3.dev225

  ==> Input File <==

--------------------------------------------------------------------------
#psi4
#
memory 32 gb

molecule  {
0 1
  O       -0.2992690     0.0680640    -1.4275900
  O        1.1877140     1.7322170     1.3773330
  O        0.9070830     2.3739170    -0.7855270
  O        2.2997080    -2.4217750    -0.0198700
  O       -3.4574230     0.0760400    -0.5564670
  O        2.6367000    -0.2338780    -0.4933410
  O       -2.4354340    -1.6059620     0.5620860
  C       -0.1069630     0.3116450    -0.0442490
  C        0.5596710    -0.9208170     0.5523550
  C       -1.4701590     0.6204980     0.6142450
  C        0.7459620     1.5647900     0.1124790
  C        1.9235890    -1.1209070    -0.0515450
  C       -2.4760910    -0.4336940     0.2256510
  H       -0.0681940    -1.7945300     0.3699280
  H        0.6734230    -0.8156830     1.6371260
  H       -1.8203340     1.5970830     0.2688470
  H       -1.3719830     0.6391850     1.7041930
  H       -0.0401320     0.8945830    -1.8856220
  H        1.6977060     2.5695530     1.3787680
  H        3.2195014    -2.4475208    -0.4120517
  H       -4.0402960    -0.6812640    -0.7756360
units angstrom
no_reorient  #important for SAPT in psi4, default
symmetry c1  #important for SAPT in psi4, default
}

set PROPERTIES_ORIGIN ["COM"]
properties('MP2/aug-cc-pvtz', properties = ['dipole'])
--------------------------------------------------------------------------

    Molecular point group: c1
  Charge       = 0
  Multiplicity = 1
  Basis Set: AUG-CC-PVTZ
    Blend: AUG-CC-PVTZ
  Basis Set: (AUG-CC-PVTZ AUX)
    Blend: AUG-CC-PVTZ-JKFIT

    Orbital Energies [Eh]
    ---------------------

    Doubly Occupied:

       1A    -20.638129     2A    -20.626888     3A    -20.626233
       4A    -20.578241     5A    -20.571272     6A    -20.562629
       7A    -20.560656     8A    -11.411413     9A    -11.406297
      10A    -11.402031    11A    -11.340726    12A    -11.273330
      13A    -11.262031    14A     -1.485535    15A     -1.472425
      16A     -1.467517    17A     -1.398975    18A     -1.372075
      19A     -1.368587    20A     -1.364889    21A     -1.116928
      22A     -1.038621    23A     -0.952297    24A     -0.851959
      25A     -0.828968    26A     -0.794763    27A     -0.759844
      28A     -0.727913    29A     -0.718415    30A     -0.714372
      31A     -0.704715    32A     -0.690969    33A     -0.669021
      34A     -0.653430    35A     -0.644359    36A     -0.637705
      37A     -0.622245    38A     -0.604206    39A     -0.595178
      40A     -0.579848    41A     -0.561930    42A     -0.558999
      43A     -0.545820    44A     -0.505784    45A     -0.495044
      46A     -0.490081    47A     -0.485802    48A     -0.471900
      49A     -0.465338    50A     -0.452510

  @DF-RHF Final Energy:  -756.25649168600876

   => Energetics <=

    Nuclear Repulsion Energy =            874.5245241175114188
    One-Electron Energy =               -2777.3043420655435511
    Two-Electron Energy =                1146.5233262620233745
    Total Energy =                       -756.2564916860087578
  Basis Set: (AUG-CC-PVTZ AUX)
    Blend: AUG-CC-PVTZ-RI
    Molecular point group: c1

    Geometry (in Angstrom), charge = 0, multiplicity = 1:

       Center              X                  Y                   Z               Mass
    ------------   -----------------  -----------------  -----------------  -----------------
         O           -0.308481767574     0.067869704103    -1.415734815204    15.994914619570
         O            1.178501232426     1.732022704103     1.389188184796    15.994914619570
         O            0.897870232426     2.373722704103    -0.773671815204    15.994914619570
         O            2.290495232426    -2.421969295897    -0.008014815204    15.994914619570
         O           -3.466635767574     0.075845704103    -0.544611815204    15.994914619570
         O            2.627487232426    -0.234072295897    -0.481485815204    15.994914619570
         O           -2.444646767574    -1.606156295897     0.573941184796    15.994914619570
         C           -0.116175767574     0.311450704103    -0.032393815204    12.000000000000
         C            0.550458232426    -0.921011295897     0.564210184796    12.000000000000
         C           -1.479371767574     0.620303704103     0.626100184796    12.000000000000
         C            0.736749232426     1.564595704103     0.124334184796    12.000000000000
         C            1.914376232426    -1.121101295897    -0.039689815204    12.000000000000
         C           -2.485303767574    -0.433888295897     0.237506184796    12.000000000000
         H           -0.077406767574    -1.794724295897     0.381783184796     1.007825032230
         H            0.664210232426    -0.815877295897     1.648981184796     1.007825032230
         H           -1.829546767574     1.596888704103     0.280702184796     1.007825032230
         H           -1.381195767574     0.638990704103     1.716048184796     1.007825032230
         H           -0.049344767574     0.894388704103    -1.873766815204     1.007825032230
         H            1.688493232426     2.569358704103     1.390623184796     1.007825032230
         H            3.210288632426    -2.447715095897    -0.400196515204     1.007825032230
         H           -4.049508767574    -0.681458295897    -0.763780815204     1.007825032230

  Basis Set: AUG-CC-PVTZ
    Blend: AUG-CC-PVTZ
  Basis Set: (AUG-CC-PVTZ AUX)
    Blend: AUG-CC-PVTZ-JKFIT
	 Reference Energy          =    -756.2564916860087578 [Eh]
	 Singles Energy            =      -0.0000000000000000 [Eh]
	 Same-Spin Energy          =      -0.7308072130615725 [Eh]
	 Opposite-Spin Energy      =      -2.1622034194340269 [Eh]
	 Correlation Energy        =      -2.8930106324955993 [Eh]
	 Total Energy              =    -759.1495023185043465 [Eh]

	 ================> DF-SCS-MP2 Energies <==================
	-----------------------------------------------------------
	 SCS Same-Spin Scale       =       0.3333333333333333 [-]
	 SCS Opposite-Spin Scale   =       1.2000000000000000 [-]
	 SCS Same-Spin Energy      =      -0.2436024043538575 [Eh]
	 SCS Opposite-Spin Energy  =      -2.5946441033208321 [Eh]
	 SCS Correlation Energy    =      -2.8382465076746897 [Eh]
	 SCS Total Energy          =    -759.0947381936834972 [Eh]
	-----------------------------------------------------------

  Dipole Moment: [D]
     X:    -0.1451      Y:     0.7304      Z:     1.8518     Total:     1.9960

*** Psi4 exiting successfully. Buy a developer a beer!
