                               Psi4 1.3.2 release

  ==> Input File <==

--------------------------------------------------------------------------
#psi4
#
memory 32 gb

molecule  {
0 1
  O       -0.2992330     0.0680890    -1.4276520
  O        1.1877390     1.7321380     1.3773370
  O        0.9070540     2.3739560    -0.7854760
  O        2.2997900    -2.4217320    -0.0198770
  O       -3.4576290     0.0760600    -0.5562400
  O        2.6367540    -0.2338110    -0.4932570
  O       -2.4353810    -1.6060190     0.5619510
  C       -0.1069590     0.3116290    -0.0442930
  C        0.5596730    -0.9208470     0.5522810
  C       -1.4701600     0.6204770     0.6141540
  C        0.8579061     1.7292345     0.1330658
  C        1.9236380    -1.1208730    -0.0515330
  C       -2.4761190    -0.4337210     0.2256320
  H       -0.0681530    -1.7945710     0.3697710
  H        0.6733550    -0.8157800     1.6370670
  H       -1.8203350     1.5970450     0.2687060
  H       -1.3720190     0.6392280     1.7041070
  H       -0.0402350     0.8946720    -1.8856460
  H        1.6977260     2.5694770     1.3788080
  H        3.2012140    -2.4469230    -0.4041650
  H       -4.0405490    -0.6812350    -0.7753220
units angstrom
no_reorient  #important for SAPT in psi4, default
symmetry c1  #important for SAPT in psi4, default
}

set PROPERTIES_ORIGIN ["COM"]
properties('MP2/aug-cc-pvtz', properties = ['dipole'])
--------------------------------------------------------------------------

    Molecular point group: c1
  Charge       = 0
  Multiplicity = 1
  Basis Set: AUG-CC-PVTZ
    Blend: AUG-CC-PVTZ
  Basis Set: (AUG-CC-PVTZ AUX)
    Blend: AUG-CC-PVTZ-JKFIT

    Orbital Energies [Eh]
    ---------------------

    Doubly Occupied:

       1A    -20.661195     2A    -20.620114     3A    -20.619608
       4A    -20.586655     5A    -20.567591     6A    -20.555673
       7A    -20.553934     8A    -11.407701     9A    -11.396795
      10A    -11.396007    11A    -11.321391    12A    -11.259994
      13A    -11.249450    14A     -1.537968    15A     -1.465500
      16A     -1.464634    17A     -1.457924    18A     -1.375528
      19A     -1.361654    20A     -1.360427    21A     -1.093202
      22A     -1.026659    23A     -0.918929    24A     -0.853481
      25A     -0.821419    26A     -0.782831    27A     -0.776001
      28A     -0.741941    29A     -0.712354    30A     -0.711499
      31A     -0.705278    32A     -0.691686    33A     -0.679512
      34A     -0.661265    35A     -0.657958    36A     -0.639856
      37A     -0.619644    38A     -0.597550    39A     -0.590908
      40A     -0.576396    41A     -0.557295    42A     -0.552630
      43A     -0.547920    44A     -0.541898    45A     -0.487632
      46A     -0.486142    47A     -0.473227    48A     -0.459715
      49A     -0.456389    50A     -0.411395

  @DF-RHF Final Energy:  -756.22045625937483

   => Energetics <=

    Nuclear Repulsion Energy =            872.9076562472788510
    One-Electron Energy =               -2774.1515246818275955
    Two-Electron Energy =                1145.0234121751741441
    Total Energy =                       -756.2204562593747141
  Basis Set: (AUG-CC-PVTZ AUX)
    Blend: AUG-CC-PVTZ-RI
    Molecular point group: c1

    Geometry (in Angstrom), charge = 0, multiplicity = 1:

       Center              X                  Y                   Z               Mass
    ------------   -----------------  -----------------  -----------------  -----------------
         O           -0.315346086156     0.057614626593    -1.417124104086    15.994914619570
         O            1.171625913844     1.721663626593     1.387864895914    15.994914619570
         O            0.890940913844     2.363481626593    -0.774948104086    15.994914619570
         O            2.283676913844    -2.432206373407    -0.009349104086    15.994914619570
         O           -3.473742086156     0.065585626593    -0.545712104086    15.994914619570
         O            2.620640913844    -0.244285373407    -0.482729104086    15.994914619570
         O           -2.451494086156    -1.616493373407     0.572478895914    15.994914619570
         C           -0.123072086156     0.301154626593    -0.033765104086    12.000000000000
         C            0.543559913844    -0.931321373407     0.562808895914    12.000000000000
         C           -1.486273086156     0.610002626593     0.624681895914    12.000000000000
         C            0.841793013844     1.718760126593     0.143593695914    12.000000000000
         C            1.907524913844    -1.131347373407    -0.041005104086    12.000000000000
         C           -2.492232086156    -0.444195373407     0.236159895914    12.000000000000
         H           -0.084266086156    -1.805045373407     0.380298895914     1.007825032230
         H            0.657241913844    -0.826254373407     1.647594895914     1.007825032230
         H           -1.836448086156     1.586570626593     0.279233895914     1.007825032230
         H           -1.388132086156     0.628753626593     1.714634895914     1.007825032230
         H           -0.056348086156     0.884197626593    -1.875118104086     1.007825032230
         H            1.681612913844     2.559002626593     1.389335895914     1.007825032230
         H            3.185100913844    -2.457397373407    -0.393637104086     1.007825032230
         H           -4.056662086156    -0.691709373407    -0.764794104086     1.007825032230

  Basis Set: AUG-CC-PVTZ
    Blend: AUG-CC-PVTZ
  Basis Set: (AUG-CC-PVTZ AUX)
    Blend: AUG-CC-PVTZ-JKFIT
	 Reference Energy          =    -756.2204562593748278 [Eh]
	 Singles Energy            =      -0.0000000000000000 [Eh]
	 Same-Spin Energy          =      -0.7293880968342136 [Eh]
	 Opposite-Spin Energy      =      -2.1584861162348425 [Eh]
	 Correlation Energy        =      -2.8878742130690562 [Eh]
	 Total Energy              =    -759.1083304724438676 [Eh]

	 ================> DF-SCS-MP2 Energies <==================
	-----------------------------------------------------------
	 SCS Same-Spin Scale       =       0.3333333333333333 [-]
	 SCS Opposite-Spin Scale   =       1.2000000000000000 [-]
	 SCS Same-Spin Energy      =      -0.2431293656114045 [Eh]
	 SCS Opposite-Spin Energy  =      -2.5901833394818108 [Eh]
	 SCS Correlation Energy    =      -2.8333127050932152 [Eh]
	 SCS Total Energy          =    -759.0537689644680768 [Eh]
	-----------------------------------------------------------

  Dipole Moment: [D]
     X:     0.5146      Y:     1.8100      Z:     1.9817     Total:     2.7327

*** Psi4 exiting successfully. Buy a developer a beer!
