                               Psi4 1.3.2 release

  ==> Input File <==

--------------------------------------------------------------------------
#psi4
#
memory 32 gb

molecule  {
0 1
  O       -0.2992330     0.0680890    -1.4276520
  O        1.1877390     1.7321380     1.3773370
  O        0.9070540     2.3739560    -0.7854760
  O        2.2997900    -2.4217320    -0.0198770
  O       -3.4576290     0.0760600    -0.5562400
  O        2.6943665    -0.2936661    -0.5122279
  O       -2.4353810    -1.6060190     0.5619510
  C       -0.1069590     0.3116290    -0.0442930
  C        0.5596730    -0.9208470     0.5522810
  C       -1.4701600     0.6204770     0.6141540
  C        0.7459700     1.5647750     0.1124900
  C        1.9236380    -1.1208730    -0.0515330
  C       -2.4761190    -0.4337210     0.2256320
  H       -0.0681530    -1.7945710     0.3697710
  H        0.6733550    -0.8157800     1.6370670
  H       -1.8203350     1.5970450     0.2687060
  H       -1.3720190     0.6392280     1.7041070
  H       -0.0402350     0.8946720    -1.8856460
  H        1.6977260     2.5694770     1.3788080
  H        3.2012140    -2.4469230    -0.4041650
  H       -4.0405490    -0.6812350    -0.7753220
units angstrom
no_reorient  #important for SAPT in psi4, default
symmetry c1  #important for SAPT in psi4, default
}

set PROPERTIES_ORIGIN ["COM"]
properties('MP2/aug-cc-pvtz', properties = ['dipole'])
--------------------------------------------------------------------------

    Molecular point group: c1
  Charge       = 0
  Multiplicity = 1
  Basis Set: AUG-CC-PVTZ
    Blend: AUG-CC-PVTZ
  Basis Set: (AUG-CC-PVTZ AUX)
    Blend: AUG-CC-PVTZ-JKFIT

    Orbital Energies [Eh]
    ---------------------

    Doubly Occupied:

       1A    -20.640692     2A    -20.628105     3A    -20.617386
       4A    -20.580314     5A    -20.574432     6A    -20.564070
       7A    -20.558836     8A    -11.413731     9A    -11.407752
      10A    -11.401172    11A    -11.343296    12A    -11.275150
      13A    -11.266197    14A     -1.487973    15A     -1.473727
      16A     -1.469633    17A     -1.401191    18A     -1.374224
      19A     -1.369930    20A     -1.359542    21A     -1.119728
      22A     -1.041609    23A     -0.954574    24A     -0.854118
      25A     -0.830093    26A     -0.796531    27A     -0.761942
      28A     -0.729666    29A     -0.719926    30A     -0.713571
      31A     -0.704877    32A     -0.692230    33A     -0.669549
      34A     -0.653666    35A     -0.646072    36A     -0.639268
      37A     -0.624017    38A     -0.605335    39A     -0.596544
      40A     -0.581117    41A     -0.563407    42A     -0.560791
      43A     -0.548044    44A     -0.507519    45A     -0.496409
      46A     -0.488552    47A     -0.486455    48A     -0.473860
      49A     -0.465615    50A     -0.453978

  @DF-RHF Final Energy:  -756.25714305660028

   => Energetics <=

    Nuclear Repulsion Energy =            873.2245955959106141
    One-Electron Energy =               -2774.5906417665978552
    Two-Electron Energy =                1145.1089031140870702
    Total Energy =                       -756.2571430566001709
  Basis Set: (AUG-CC-PVTZ AUX)
    Blend: AUG-CC-PVTZ-RI
    Molecular point group: c1

    Geometry (in Angstrom), charge = 0, multiplicity = 1:

       Center              X                  Y                   Z               Mass
    ------------   -----------------  -----------------  -----------------  -----------------
         O           -0.313149904495     0.072877538446    -1.414258113792    15.994914619570
         O            1.173822095505     1.736926538446     1.390730886208    15.994914619570
         O            0.893137095505     2.378744538446    -0.772082113792    15.994914619570
         O            2.285873095505    -2.416943461554    -0.006483113792    15.994914619570
         O           -3.471545904495     0.080848538446    -0.542846113792    15.994914619570
         O            2.680449595505    -0.288877561554    -0.498834013792    15.994914619570
         O           -2.449297904495    -1.601230461554     0.575344886208    15.994914619570
         C           -0.120875904495     0.316417538446    -0.030899113792    12.000000000000
         C            0.545756095505    -0.916058461554     0.565674886208    12.000000000000
         C           -1.484076904495     0.625265538446     0.627547886208    12.000000000000
         C            0.732053095505     1.569563538446     0.125883886208    12.000000000000
         C            1.909721095505    -1.116084461554    -0.038139113792    12.000000000000
         C           -2.490035904495    -0.428932461554     0.239025886208    12.000000000000
         H           -0.082069904495    -1.789782461554     0.383164886208     1.007825032230
         H            0.659438095505    -0.810991461554     1.650460886208     1.007825032230
         H           -1.834251904495     1.601833538446     0.282099886208     1.007825032230
         H           -1.385935904495     0.644016538446     1.717500886208     1.007825032230
         H           -0.054151904495     0.899460538446    -1.872252113792     1.007825032230
         H            1.683809095505     2.574265538446     1.392201886208     1.007825032230
         H            3.187297095505    -2.442134461554    -0.390771113792     1.007825032230
         H           -4.054465904495    -0.676446461554    -0.761928113792     1.007825032230

  Basis Set: AUG-CC-PVTZ
    Blend: AUG-CC-PVTZ
  Basis Set: (AUG-CC-PVTZ AUX)
    Blend: AUG-CC-PVTZ-JKFIT
	 Reference Energy          =    -756.2571430566002846 [Eh]
	 Singles Energy            =      -0.0000000000000000 [Eh]
	 Same-Spin Energy          =      -0.7303163465549338 [Eh]
	 Opposite-Spin Energy      =      -2.1612375583457579 [Eh]
	 Correlation Energy        =      -2.8915539049006918 [Eh]
	 Total Energy              =    -759.1486969615009457 [Eh]

	 ================> DF-SCS-MP2 Energies <==================
	-----------------------------------------------------------
	 SCS Same-Spin Scale       =       0.3333333333333333 [-]
	 SCS Opposite-Spin Scale   =       1.2000000000000000 [-]
	 SCS Same-Spin Energy      =      -0.2434387821849779 [Eh]
	 SCS Opposite-Spin Energy  =      -2.5934850700149092 [Eh]
	 SCS Correlation Energy    =      -2.8369238521998872 [Eh]
	 SCS Total Energy          =    -759.0940669088001869 [Eh]
	-----------------------------------------------------------

  Dipole Moment: [D]
     X:    -0.4138      Y:     0.9441      Z:     1.9237     Total:     2.1825

*** Psi4 exiting successfully. Buy a developer a beer!
