                               Psi4 1.3.2 release

  ==> Input File <==

--------------------------------------------------------------------------
#psi4
#
memory 32 gb

molecule  {
0 1
  O       -0.2992330     0.0680890    -1.4276520
  O        1.1877390     1.7321380     1.3773370
  O        0.9070540     2.3739560    -0.7854760
  O        2.2997900    -2.4217320    -0.0198770
  O       -3.4576290     0.0760600    -0.5562400
  O        2.6367540    -0.2338110    -0.4932570
  O       -2.4353810    -1.6060190     0.5619510
  C       -0.1069590     0.3116290    -0.0442930
  C        0.5596730    -0.9208470     0.5522810
  C       -1.4701600     0.6204770     0.6141540
  C        0.7459700     1.5647750     0.1124900
  C        1.9236380    -1.1208730    -0.0515330
  C       -2.4761190    -0.4337210     0.2256320
  H       -0.0681530    -1.7945710     0.3697710
  H        0.6733550    -0.8157800     1.6370670
  H       -1.8203350     1.5970450     0.2687060
  H       -1.3720190     0.6392280     1.7041070
  H       -0.0402350     0.8946720    -1.8856460
  H        1.6977260     2.5694770     1.3788080
  H        3.2931732    -2.4494929    -0.4433683
  H       -4.0405490    -0.6812350    -0.7753220
units angstrom
no_reorient  #important for SAPT in psi4, default
symmetry c1  #important for SAPT in psi4, default
}

set PROPERTIES_ORIGIN ["COM"]
properties('MP2/aug-cc-pvtz', properties = ['dipole'])
--------------------------------------------------------------------------

    Molecular point group: c1
  Charge       = 0
  Multiplicity = 1
  Basis Set: AUG-CC-PVTZ
    Blend: AUG-CC-PVTZ
  Basis Set: (AUG-CC-PVTZ AUX)
    Blend: AUG-CC-PVTZ-JKFIT

    Orbital Energies [Eh]
    ---------------------

    Doubly Occupied:

       1A    -20.637775     2A    -20.630114     3A    -20.626650
       4A    -20.577860     5A    -20.570907     6A    -20.562355
       7A    -20.559121     8A    -11.411063     9A    -11.406026
      10A    -11.400486    11A    -11.340373    12A    -11.273035
      13A    -11.261691    14A     -1.485068    15A     -1.472172
      16A     -1.458512    17A     -1.398453    18A     -1.371449
      19A     -1.368179    20A     -1.358083    21A     -1.116292
      22A     -1.037071    23A     -0.950519    24A     -0.848288
      25A     -0.823497    26A     -0.791251    27A     -0.758885
      28A     -0.727301    29A     -0.718096    30A     -0.708135
      31A     -0.701701    32A     -0.690204    33A     -0.667990
      34A     -0.651989    35A     -0.643516    36A     -0.636688
      37A     -0.620023    38A     -0.602499    39A     -0.594457
      40A     -0.577175    41A     -0.560828    42A     -0.556871
      43A     -0.545148    44A     -0.505331    45A     -0.494619
      46A     -0.488210    47A     -0.485297    48A     -0.471282
      49A     -0.464382    50A     -0.451964

  @DF-RHF Final Energy:  -756.24493157201641

   => Energetics <=

    Nuclear Repulsion Energy =            874.0416919380518266
    One-Electron Energy =               -2776.4554888976990696
    Two-Electron Energy =                1146.1688653876308308
    Total Energy =                       -756.2449315720164122
  Basis Set: (AUG-CC-PVTZ AUX)
    Blend: AUG-CC-PVTZ-RI
    Molecular point group: c1

    Geometry (in Angstrom), charge = 0, multiplicity = 1:

       Center              X                  Y                   Z               Mass
    ------------   -----------------  -----------------  -----------------  -----------------
         O           -0.308833697797     0.067905387699    -1.415632544758    15.994914619570
         O            1.178138302203     1.731954387699     1.389356455242    15.994914619570
         O            0.897453302203     2.373772387699    -0.773456544758    15.994914619570
         O            2.290189302203    -2.421915612301    -0.007857544758    15.994914619570
         O           -3.467229697797     0.075876387699    -0.544220544758    15.994914619570
         O            2.627153302203    -0.233994612301    -0.481237544758    15.994914619570
         O           -2.444981697797    -1.606202612301     0.573970455242    15.994914619570
         C           -0.116559697797     0.311445387699    -0.032273544758    12.000000000000
         C            0.550072302203    -0.921030612301     0.564300455242    12.000000000000
         C           -1.479760697797     0.620293387699     0.626173455242    12.000000000000
         C            0.736369302203     1.564591387699     0.124509455242    12.000000000000
         C            1.914037302203    -1.121056612301    -0.039513544758    12.000000000000
         C           -2.485719697797    -0.433904612301     0.237651455242    12.000000000000
         H           -0.077753697797    -1.794754612301     0.381790455242     1.007825032230
         H            0.663754302203    -0.815963612301     1.649086455242     1.007825032230
         H           -1.829935697797     1.596861387699     0.280725455242     1.007825032230
         H           -1.381619697797     0.639044387699     1.716126455242     1.007825032230
         H           -0.049835697797     0.894488387699    -1.873626544758     1.007825032230
         H            1.688125302203     2.569293387699     1.390827455242     1.007825032230
         H            3.283572502203    -2.449676512301    -0.431348844758     1.007825032230
         H           -4.050149697797    -0.681418612301    -0.763302544758     1.007825032230

  Basis Set: AUG-CC-PVTZ
    Blend: AUG-CC-PVTZ
  Basis Set: (AUG-CC-PVTZ AUX)
    Blend: AUG-CC-PVTZ-JKFIT
	 Reference Energy          =    -756.2449315720164122 [Eh]
	 Singles Energy            =      -0.0000000000000000 [Eh]
	 Same-Spin Energy          =      -0.7318291016883487 [Eh]
	 Opposite-Spin Energy      =      -2.1647213170592829 [Eh]
	 Correlation Energy        =      -2.8965504187476316 [Eh]
	 Total Energy              =    -759.1414819907640776 [Eh]

	 ================> DF-SCS-MP2 Energies <==================
	-----------------------------------------------------------
	 SCS Same-Spin Scale       =       0.3333333333333333 [-]
	 SCS Opposite-Spin Scale   =       1.2000000000000000 [-]
	 SCS Same-Spin Energy      =      -0.2439430338961162 [Eh]
	 SCS Opposite-Spin Energy  =      -2.5976655804711393 [Eh]
	 SCS Correlation Energy    =      -2.8416086143672556 [Eh]
	 SCS Total Energy          =    -759.0865401863836723 [Eh]
	-----------------------------------------------------------

  Dipole Moment: [D]
     X:    -0.0569      Y:     0.7023      Z:     1.8177     Total:     1.9494

*** Psi4 exiting successfully. Buy a developer a beer!
