                               Psi4 1.3.2 release

  ==> Input File <==

--------------------------------------------------------------------------
#psi4
#
memory 32 gb

molecule  {
0 1
  O       -0.2992330     0.0680890    -1.4276520
  O        1.1877390     1.7321380     1.3773370
  O        0.9070540     2.3739560    -0.7854760
  O        2.2171501    -2.4411797     0.0217288
  O       -3.4576290     0.0760600    -0.5562400
  O        2.6367540    -0.2338110    -0.4932570
  O       -2.4353810    -1.6060190     0.5619510
  C       -0.1069590     0.3116290    -0.0442930
  C        0.5596730    -0.9208470     0.5522810
  C       -1.4701600     0.6204770     0.6141540
  C        0.7459700     1.5647750     0.1124900
  C        1.9236380    -1.1208730    -0.0515330
  C       -2.4761190    -0.4337210     0.2256320
  H       -0.0681530    -1.7945710     0.3697710
  H        0.6733550    -0.8157800     1.6370670
  H       -1.8203350     1.5970450     0.2687060
  H       -1.3720190     0.6392280     1.7041070
  H       -0.0402350     0.8946720    -1.8856460
  H        1.6977260     2.5694770     1.3788080
  H        3.2012140    -2.4469230    -0.4041650
  H       -4.0405490    -0.6812350    -0.7753220
units angstrom
no_reorient  #important for SAPT in psi4, default
symmetry c1  #important for SAPT in psi4, default
}

set PROPERTIES_ORIGIN ["COM"]
properties('MP2/aug-cc-pvtz', properties = ['dipole'])
--------------------------------------------------------------------------

    Molecular point group: c1
  Charge       = 0
  Multiplicity = 1
  Basis Set: AUG-CC-PVTZ
    Blend: AUG-CC-PVTZ
  Basis Set: (AUG-CC-PVTZ AUX)
    Blend: AUG-CC-PVTZ-JKFIT

    Orbital Energies [Eh]
    ---------------------

    Doubly Occupied:

       1A    -20.637725     2A    -20.636345     3A    -20.626069
       4A    -20.577287     5A    -20.570857     6A    -20.565476
       7A    -20.561648     8A    -11.410690     9A    -11.405303
      10A    -11.402836    11A    -11.338571    12A    -11.271968
      13A    -11.257783    14A     -1.485044    15A     -1.471548
      16A     -1.463311    17A     -1.398081    18A     -1.371581
      19A     -1.368080    20A     -1.366707    21A     -1.114973
      22A     -1.035977    23A     -0.950004    24A     -0.847884
      25A     -0.822421    26A     -0.789735    27A     -0.758064
      28A     -0.728073    29A     -0.717520    30A     -0.711808
      31A     -0.704435    32A     -0.689634    33A     -0.668231
      34A     -0.653692    35A     -0.643447    36A     -0.637112
      37A     -0.619497    38A     -0.605083    39A     -0.594113
      40A     -0.580563    41A     -0.559801    42A     -0.555905
      43A     -0.543865    44A     -0.505779    45A     -0.494786
      46A     -0.493201    47A     -0.485137    48A     -0.471673
      49A     -0.464405    50A     -0.451495

  @DF-RHF Final Energy:  -756.24274206148675

   => Energetics <=

    Nuclear Repulsion Energy =            874.8686006011134850
    One-Electron Energy =               -2778.0522450239132013
    Two-Electron Energy =                1146.9409023613129648
    Total Energy =                       -756.2427420614867515
  Basis Set: (AUG-CC-PVTZ AUX)
    Blend: AUG-CC-PVTZ-RI
    Molecular point group: c1

    Geometry (in Angstrom), charge = 0, multiplicity = 1:

       Center              X                  Y                   Z               Mass
    ------------   -----------------  -----------------  -----------------  -----------------
         O           -0.301467562257     0.069511798710    -1.419303858043    15.994914619570
         O            1.185504437743     1.733560798710     1.385685141957    15.994914619570
         O            0.904819437743     2.375378798710    -0.777127858043    15.994914619570
         O            2.214915537743    -2.439756901290     0.030076941957    15.994914619570
         O           -3.459863562257     0.077482798710    -0.547891858043    15.994914619570
         O            2.634519437743    -0.232388201290    -0.484908858043    15.994914619570
         O           -2.437615562257    -1.604596201290     0.570299141957    15.994914619570
         C           -0.109193562257     0.313051798710    -0.035944858043    12.000000000000
         C            0.557438437743    -0.919424201290     0.560629141957    12.000000000000
         C           -1.472394562257     0.621899798710     0.622502141957    12.000000000000
         C            0.743735437743     1.566197798710     0.120838141957    12.000000000000
         C            1.921403437743    -1.119450201290    -0.043184858043    12.000000000000
         C           -2.478353562257    -0.432298201290     0.233980141957    12.000000000000
         H           -0.070387562257    -1.793148201290     0.378119141957     1.007825032230
         H            0.671120437743    -0.814357201290     1.645415141957     1.007825032230
         H           -1.822569562257     1.598467798710     0.277054141957     1.007825032230
         H           -1.374253562257     0.640650798710     1.712455141957     1.007825032230
         H           -0.042469562257     0.896094798710    -1.877297858043     1.007825032230
         H            1.695491437743     2.570899798710     1.387156141957     1.007825032230
         H            3.198979437743    -2.445500201290    -0.395816858043     1.007825032230
         H           -4.042783562257    -0.679812201290    -0.766973858043     1.007825032230

  Basis Set: AUG-CC-PVTZ
    Blend: AUG-CC-PVTZ
  Basis Set: (AUG-CC-PVTZ AUX)
    Blend: AUG-CC-PVTZ-JKFIT
	 Reference Energy          =    -756.2427420614867515 [Eh]
	 Singles Energy            =      -0.0000000000000000 [Eh]
	 Same-Spin Energy          =      -0.7324411765424288 [Eh]
	 Opposite-Spin Energy      =      -2.1657978507625382 [Eh]
	 Correlation Energy        =      -2.8982390273049670 [Eh]
	 Total Energy              =    -759.1409810887917047 [Eh]

	 ================> DF-SCS-MP2 Energies <==================
	-----------------------------------------------------------
	 SCS Same-Spin Scale       =       0.3333333333333333 [-]
	 SCS Opposite-Spin Scale   =       1.2000000000000000 [-]
	 SCS Same-Spin Energy      =      -0.2441470588474763 [Eh]
	 SCS Opposite-Spin Energy  =      -2.5989574209150459 [Eh]
	 SCS Correlation Energy    =      -2.8431044797625220 [Eh]
	 SCS Total Energy          =    -759.0858465412492251 [Eh]
	-----------------------------------------------------------

  Dipole Moment: [D]
     X:     0.0017      Y:     0.6841      Z:     1.8055     Total:     1.9308

*** Psi4 exiting successfully. Buy a developer a beer!
