                               Psi4 1.3.2 release

  ==> Input File <==

--------------------------------------------------------------------------
#psi4
#
memory 32 gb

molecule  {
0 1
  O       -0.2992330     0.0680890    -1.4276520
  O        1.2309717     1.8106947     1.3483318
  O        0.9070540     2.3739560    -0.7854760
  O        2.2997900    -2.4217320    -0.0198770
  O       -3.4576290     0.0760600    -0.5562400
  O        2.6367540    -0.2338110    -0.4932570
  O       -2.4353810    -1.6060190     0.5619510
  C       -0.1069590     0.3116290    -0.0442930
  C        0.5596730    -0.9208470     0.5522810
  C       -1.4701600     0.6204770     0.6141540
  C        0.7459700     1.5647750     0.1124900
  C        1.9236380    -1.1208730    -0.0515330
  C       -2.4761190    -0.4337210     0.2256320
  H       -0.0681530    -1.7945710     0.3697710
  H        0.6733550    -0.8157800     1.6370670
  H       -1.8203350     1.5970450     0.2687060
  H       -1.3720190     0.6392280     1.7041070
  H       -0.0402350     0.8946720    -1.8856460
  H        1.6977260     2.5694770     1.3788080
  H        3.2012140    -2.4469230    -0.4041650
  H       -4.0405490    -0.6812350    -0.7753220
units angstrom
no_reorient  #important for SAPT in psi4, default
symmetry c1  #important for SAPT in psi4, default
}

set PROPERTIES_ORIGIN ["COM"]
properties('MP2/aug-cc-pvtz', properties = ['dipole'])
--------------------------------------------------------------------------

    Molecular point group: c1
  Charge       = 0
  Multiplicity = 1
  Basis Set: AUG-CC-PVTZ
    Blend: AUG-CC-PVTZ
  Basis Set: (AUG-CC-PVTZ AUX)
    Blend: AUG-CC-PVTZ-JKFIT

    Orbital Energies [Eh]
    ---------------------

    Doubly Occupied:

       1A    -20.628036     2A    -20.625776     3A    -20.624805
       4A    -20.581043     5A    -20.567228     6A    -20.563959
       7A    -20.561814     8A    -11.411874     9A    -11.407704
      10A    -11.403320    11A    -11.345411    12A    -11.275229
      13A    -11.264080    14A     -1.494605    15A     -1.473708
      16A     -1.471231    17A     -1.402801    18A     -1.372197
      19A     -1.369809    20A     -1.367280    21A     -1.120210
      22A     -1.040680    23A     -0.960383    24A     -0.865614
      25A     -0.832071    26A     -0.805629    27A     -0.766782
      28A     -0.726876    29A     -0.719644    30A     -0.716957
      31A     -0.706216    32A     -0.692337    33A     -0.670900
      34A     -0.654130    35A     -0.644191    36A     -0.638258
      37A     -0.621592    38A     -0.606145    39A     -0.596234
      40A     -0.581561    41A     -0.564140    42A     -0.561897
      43A     -0.547194    44A     -0.503232    45A     -0.496226
      46A     -0.491090    47A     -0.485461    48A     -0.473827
      49A     -0.466429    50A     -0.454187

  @DF-RHF Final Energy:  -756.25476094002124

   => Energetics <=

    Nuclear Repulsion Energy =            874.0019397948436790
    One-Electron Energy =               -2776.0693922314885640
    Two-Electron Energy =                1145.8126914966237564
    Total Energy =                       -756.2547609400212423
  Basis Set: (AUG-CC-PVTZ AUX)
    Blend: AUG-CC-PVTZ-RI
    Molecular point group: c1

    Geometry (in Angstrom), charge = 0, multiplicity = 1:

       Center              X                  Y                   Z               Mass
    ------------   -----------------  -----------------  -----------------  -----------------
         O           -0.311952137149     0.061348509229    -1.413422305444    15.994914619570
         O            1.218252562851     1.803954209229     1.362561494556    15.994914619570
         O            0.894334862851     2.367215509229    -0.771246305444    15.994914619570
         O            2.287070862851    -2.428472490771    -0.005647305444    15.994914619570
         O           -3.470348137149     0.069319509229    -0.542010305444    15.994914619570
         O            2.624034862851    -0.240551490771    -0.479027305444    15.994914619570
         O           -2.448100137149    -1.612759490771     0.576180694556    15.994914619570
         C           -0.119678137149     0.304888509229    -0.030063305444    12.000000000000
         C            0.546953862851    -0.927587490771     0.566510694556    12.000000000000
         C           -1.482879137149     0.613736509229     0.628383694556    12.000000000000
         C            0.733250862851     1.558034509229     0.126719694556    12.000000000000
         C            1.910918862851    -1.127613490771    -0.037303305444    12.000000000000
         C           -2.488838137149    -0.440461490771     0.239861694556    12.000000000000
         H           -0.080872137149    -1.801311490771     0.384000694556     1.007825032230
         H            0.660635862851    -0.822520490771     1.651296694556     1.007825032230
         H           -1.833054137149     1.590304509229     0.282935694556     1.007825032230
         H           -1.384738137149     0.632487509229     1.718336694556     1.007825032230
         H           -0.052954137149     0.887931509229    -1.871416305444     1.007825032230
         H            1.685006862851     2.562736509229     1.393037694556     1.007825032230
         H            3.188494862851    -2.453663490771    -0.389935305444     1.007825032230
         H           -4.053268137149    -0.687975490771    -0.761092305444     1.007825032230

  Basis Set: AUG-CC-PVTZ
    Blend: AUG-CC-PVTZ
  Basis Set: (AUG-CC-PVTZ AUX)
    Blend: AUG-CC-PVTZ-JKFIT
	 Reference Energy          =    -756.2547609400212423 [Eh]
	 Singles Energy            =      -0.0000000000000000 [Eh]
	 Same-Spin Energy          =      -0.7288917462069117 [Eh]
	 Opposite-Spin Energy      =      -2.1581767645573282 [Eh]
	 Correlation Energy        =      -2.8870685107642400 [Eh]
	 Total Energy              =    -759.1418294507855080 [Eh]

	 ================> DF-SCS-MP2 Energies <==================
	-----------------------------------------------------------
	 SCS Same-Spin Scale       =       0.3333333333333333 [-]
	 SCS Opposite-Spin Scale   =       1.2000000000000000 [-]
	 SCS Same-Spin Energy      =      -0.2429639154023039 [Eh]
	 SCS Opposite-Spin Energy  =      -2.5898121174687936 [Eh]
	 SCS Correlation Energy    =      -2.8327760328710974 [Eh]
	 SCS Total Energy          =    -759.0875369728923943 [Eh]
	-----------------------------------------------------------

  Dipole Moment: [D]
     X:    -0.2907      Y:     0.5631      Z:     1.8181     Total:     1.9254

*** Psi4 exiting successfully. Buy a developer a beer!
