                               Psi4 1.3.2 release

  ==> Input File <==

--------------------------------------------------------------------------
#psi4
#
memory 32 gb

molecule  {
0 1
  O       -0.2992330     0.0680890    -1.4276520
  O        1.1877390     1.7321380     1.3773370
  O        0.9070540     2.3739560    -0.7854760
  O        2.2997900    -2.4217320    -0.0198770
  O       -3.4576290     0.0760600    -0.5562400
  O        2.6367540    -0.2338110    -0.4932570
  O       -2.4353810    -1.6060190     0.5619510
  C       -0.1069590     0.3116290    -0.0442930
  C        0.5596730    -0.9208470     0.5522810
  C       -1.4701600     0.6204770     0.6141540
  C        0.7459700     1.5647750     0.1124900
  C        1.8015047    -1.1624849     0.0072340
  C       -2.4761190    -0.4337210     0.2256320
  H       -0.0681530    -1.7945710     0.3697710
  H        0.6733550    -0.8157800     1.6370670
  H       -1.8203350     1.5970450     0.2687060
  H       -1.3720190     0.6392280     1.7041070
  H       -0.0402350     0.8946720    -1.8856460
  H        1.6977260     2.5694770     1.3788080
  H        3.2012140    -2.4469230    -0.4041650
  H       -4.0405490    -0.6812350    -0.7753220
units angstrom
no_reorient  #important for SAPT in psi4, default
symmetry c1  #important for SAPT in psi4, default
}

set PROPERTIES_ORIGIN ["COM"]
properties('MP2/aug-cc-pvtz', properties = ['dipole'])
--------------------------------------------------------------------------

    Molecular point group: c1
  Charge       = 0
  Multiplicity = 1
  Basis Set: AUG-CC-PVTZ
    Blend: AUG-CC-PVTZ
  Basis Set: (AUG-CC-PVTZ AUX)
    Blend: AUG-CC-PVTZ-JKFIT

    Orbital Energies [Eh]
    ---------------------

    Doubly Occupied:

       1A    -20.637687     2A    -20.630117     3A    -20.628434
       4A    -20.581498     5A    -20.570618     6A    -20.566691
       7A    -20.542407     8A    -11.414407     9A    -11.412590
      10A    -11.410249    11A    -11.348711    12A    -11.277789
      13A    -11.266957    14A     -1.484993    15A     -1.475914
      16A     -1.455525    17A     -1.401374    18A     -1.373512
      19A     -1.371202    20A     -1.298002    21A     -1.134793
      22A     -1.065914    23A     -0.964448    24A     -0.860989
      25A     -0.836048    26A     -0.800919    27A     -0.764467
      28A     -0.730820    29A     -0.722482    30A     -0.716626
      31A     -0.699091    32A     -0.692110    33A     -0.674913
      34A     -0.656917    35A     -0.646031    36A     -0.638706
      37A     -0.624835    38A     -0.600028    39A     -0.595171
      40A     -0.570457    41A     -0.566233    42A     -0.559300
      43A     -0.547073    44A     -0.504469    45A     -0.498428
      46A     -0.488005    47A     -0.476809    48A     -0.458711
      49A     -0.450762    50A     -0.448978

  @DF-RHF Final Energy:  -756.21500076381085

   => Energetics <=

    Nuclear Repulsion Energy =            874.9605387276868669
    One-Electron Energy =               -2778.0646497837410607
    Two-Electron Energy =                1146.8891102922432310
    Total Energy =                       -756.2150007638108491
  Basis Set: (AUG-CC-PVTZ AUX)
    Blend: AUG-CC-PVTZ-RI
    Molecular point group: c1

    Geometry (in Angstrom), charge = 0, multiplicity = 1:

       Center              X                  Y                   Z               Mass
    ------------   -----------------  -----------------  -----------------  -----------------
         O           -0.300718805815     0.070492277999    -1.419510718436    15.994914619570
         O            1.186253194185     1.734541277999     1.385478281564    15.994914619570
         O            0.905568194185     2.376359277999    -0.777334718436    15.994914619570
         O            2.298304194185    -2.419328722001    -0.011735718436    15.994914619570
         O           -3.459114805815     0.078463277999    -0.548098718436    15.994914619570
         O            2.635268194185    -0.231407722001    -0.485115718436    15.994914619570
         O           -2.436866805815    -1.603615722001     0.570092281564    15.994914619570
         C           -0.108444805815     0.314032277999    -0.036151718436    12.000000000000
         C            0.558187194185    -0.918443722001     0.560422281564    12.000000000000
         C           -1.471645805815     0.622880277999     0.622295281564    12.000000000000
         C            0.744484194185     1.567178277999     0.120631281564    12.000000000000
         C            1.800018894185    -1.160081622001     0.015375281564    12.000000000000
         C           -2.477604805815    -0.431317722001     0.233773281564    12.000000000000
         H           -0.069638805815    -1.792167722001     0.377912281564     1.007825032230
         H            0.671869194185    -0.813376722001     1.645208281564     1.007825032230
         H           -1.821820805815     1.599448277999     0.276847281564     1.007825032230
         H           -1.373504805815     0.641631277999     1.712248281564     1.007825032230
         H           -0.041720805815     0.897075277999    -1.877504718436     1.007825032230
         H            1.696240194185     2.571880277999     1.386949281564     1.007825032230
         H            3.199728194185    -2.444519722001    -0.396023718436     1.007825032230
         H           -4.042034805815    -0.678831722001    -0.767180718436     1.007825032230

  Basis Set: AUG-CC-PVTZ
    Blend: AUG-CC-PVTZ
  Basis Set: (AUG-CC-PVTZ AUX)
    Blend: AUG-CC-PVTZ-JKFIT
	 Reference Energy          =    -756.2150007638108491 [Eh]
	 Singles Energy            =      -0.0000000000000000 [Eh]
	 Same-Spin Energy          =      -0.7345014812230086 [Eh]
	 Opposite-Spin Energy      =      -2.1688256207165120 [Eh]
	 Correlation Energy        =      -2.9033271019395208 [Eh]
	 Total Energy              =    -759.1183278657504161 [Eh]

	 ================> DF-SCS-MP2 Energies <==================
	-----------------------------------------------------------
	 SCS Same-Spin Scale       =       0.3333333333333333 [-]
	 SCS Opposite-Spin Scale   =       1.2000000000000000 [-]
	 SCS Same-Spin Energy      =      -0.2448338270743362 [Eh]
	 SCS Opposite-Spin Energy  =      -2.6025907448598145 [Eh]
	 SCS Correlation Energy    =      -2.8474245719341509 [Eh]
	 SCS Total Energy          =    -759.0624253357450471 [Eh]
	-----------------------------------------------------------

  Dipole Moment: [D]
     X:    -0.7805      Y:     0.5398      Z:     2.1141     Total:     2.3173

*** Psi4 exiting successfully. Buy a developer a beer!
