                               Psi4 1.4a3.dev225

  ==> Input File <==

--------------------------------------------------------------------------
#psi4
#
memory 32 gb

molecule  {
0 1
  O       -0.2992690     0.0680640    -1.4275900
  O        1.1877140     1.7322170     1.3773330
  O        0.9070830     2.3739170    -0.7855270
  O        2.2997080    -2.4217750    -0.0198700
  O       -3.4574230     0.0760400    -0.5564670
  O        2.6367000    -0.2338780    -0.4933410
  O       -2.4354340    -1.6059620     0.5620860
  C       -0.1069630     0.3116450    -0.0442490
  C        0.5596710    -0.9208170     0.5523550
  C       -1.4701590     0.6204980     0.6142450
  C        0.7459620     1.5647900     0.1124790
  C        1.9235890    -1.1209070    -0.0515450
  C       -2.4760910    -0.4336940     0.2256510
  H       -0.0681940    -1.7945300     0.3699280
  H        0.6734230    -0.8156830     1.6371260
  H       -1.8203340     1.5970830     0.2688470
  H       -1.3719830     0.6391850     1.7041930
  H       -0.0533555     0.8524066    -1.8622491
  H        1.6977060     2.5695530     1.3787680
  H        3.2011100    -2.4470060    -0.4042100
  H       -4.0402960    -0.6812640    -0.7756360
units angstrom
no_reorient  #important for SAPT in psi4, default
symmetry c1  #important for SAPT in psi4, default
}

set PROPERTIES_ORIGIN ["COM"]
properties('MP2/aug-cc-pvtz', properties = ['dipole'])
--------------------------------------------------------------------------

    Molecular point group: c1
  Charge       = 0
  Multiplicity = 1
  Basis Set: AUG-CC-PVTZ
    Blend: AUG-CC-PVTZ
  Basis Set: (AUG-CC-PVTZ AUX)
    Blend: AUG-CC-PVTZ-JKFIT

    Orbital Energies [Eh]
    ---------------------

    Doubly Occupied:

       1A    -20.638018     2A    -20.627324     3A    -20.625290
       4A    -20.575730     5A    -20.570689     6A    -20.563107
       7A    -20.561332     8A    -11.411344     9A    -11.406761
      10A    -11.402699    11A    -11.341695    12A    -11.273891
      13A    -11.262541    14A     -1.485676    15A     -1.472887
      16A     -1.470466    17A     -1.407592    18A     -1.374083
      19A     -1.369278    20A     -1.367423    21A     -1.119995
      22A     -1.039536    23A     -0.953446    24A     -0.854991
      25A     -0.830921    26A     -0.799470    27A     -0.763674
      28A     -0.727860    29A     -0.718964    30A     -0.716506
      31A     -0.706127    32A     -0.692002    33A     -0.669935
      34A     -0.654016    35A     -0.647373    36A     -0.638070
      37A     -0.623430    38A     -0.605417    39A     -0.596106
      40A     -0.581007    41A     -0.563414    42A     -0.560794
      43A     -0.549540    44A     -0.505502    45A     -0.495895
      46A     -0.490830    47A     -0.485795    48A     -0.473467
      49A     -0.465851    50A     -0.452839

  @DF-RHF Final Energy:  -756.25888746071530

   => Energetics <=

    Nuclear Repulsion Energy =            874.9792950428252425
    One-Electron Energy =               -2778.0951612914454927
    Two-Electron Energy =                1146.8569787879050637
    Total Energy =                       -756.2588874607151865
  Basis Set: (AUG-CC-PVTZ AUX)
    Blend: AUG-CC-PVTZ-RI
    Molecular point group: c1

    Geometry (in Angstrom), charge = 0, multiplicity = 1:

       Center              X                  Y                   Z               Mass
    ------------   -----------------  -----------------  -----------------  -----------------
         O           -0.308315841495     0.068088358786    -1.415898640368    15.994914619570
         O            1.178667158505     1.732241358786     1.389024359632    15.994914619570
         O            0.898036158505     2.373941358786    -0.773835640368    15.994914619570
         O            2.290661158505    -2.421750641214    -0.008178640368    15.994914619570
         O           -3.466469841495     0.076064358786    -0.544775640368    15.994914619570
         O            2.627653158505    -0.233853641214    -0.481649640368    15.994914619570
         O           -2.444480841495    -1.605937641214     0.573777359632    15.994914619570
         C           -0.116009841495     0.311669358786    -0.032557640368    12.000000000000
         C            0.550624158505    -0.920792641214     0.564046359632    12.000000000000
         C           -1.479205841495     0.620522358786     0.625936359632    12.000000000000
         C            0.736915158505     1.564814358786     0.124170359632    12.000000000000
         C            1.914542158505    -1.120882641214    -0.039853640368    12.000000000000
         C           -2.485137841495    -0.433669641214     0.237342359632    12.000000000000
         H           -0.077240841495    -1.794505641214     0.381619359632     1.007825032230
         H            0.664376158505    -0.815658641214     1.648817359632     1.007825032230
         H           -1.829380841495     1.597107358786     0.280538359632     1.007825032230
         H           -1.381029841495     0.639209358786     1.715884359632     1.007825032230
         H           -0.062402341495     0.852430958786    -1.850557740368     1.007825032230
         H            1.688659158505     2.569577358786     1.390459359632     1.007825032230
         H            3.192063158505    -2.446981641214    -0.392518640368     1.007825032230
         H           -4.049342841495    -0.681239641214    -0.763944640368     1.007825032230

  Basis Set: AUG-CC-PVTZ
    Blend: AUG-CC-PVTZ
  Basis Set: (AUG-CC-PVTZ AUX)
    Blend: AUG-CC-PVTZ-JKFIT
	 Reference Energy          =    -756.2588874607153002 [Eh]
	 Singles Energy            =      -0.0000000000000000 [Eh]
	 Same-Spin Energy          =      -0.7298202779216627 [Eh]
	 Opposite-Spin Energy      =      -2.1600868033789347 [Eh]
	 Correlation Energy        =      -2.8899070813005974 [Eh]
	 Total Energy              =    -759.1487945420159349 [Eh]

	 ================> DF-SCS-MP2 Energies <==================
	-----------------------------------------------------------
	 SCS Same-Spin Scale       =       0.3333333333333333 [-]
	 SCS Opposite-Spin Scale   =       1.2000000000000000 [-]
	 SCS Same-Spin Energy      =      -0.2432734259738876 [Eh]
	 SCS Opposite-Spin Energy  =      -2.5921041640547213 [Eh]
	 SCS Correlation Energy    =      -2.8353775900286089 [Eh]
	 SCS Total Energy          =    -759.0942650507439566 [Eh]
	-----------------------------------------------------------

  Dipole Moment: [D]
     X:    -0.1955      Y:     0.6789      Z:     1.8881     Total:     2.0159

*** Psi4 exiting successfully. Buy a developer a beer!
