                               Psi4 1.3.2 release

  ==> Input File <==

--------------------------------------------------------------------------
#psi4
#
memory 32 gb

molecule  {
0 1
  O       -0.2992330     0.0680890    -1.4276520
  O        1.1877390     1.7321380     1.3773370
  O        0.9070540     2.3739560    -0.7854760
  O        2.2997900    -2.4217320    -0.0198770
  O       -3.4576290     0.0760600    -0.5562400
  O        2.6367540    -0.2338110    -0.4932570
  O       -2.4353810    -1.6060190     0.5619510
  C       -0.1069590     0.3116290    -0.0442930
  C        0.5596730    -0.9208470     0.5522810
  C       -1.4701600     0.6204770     0.6141540
  C        0.7459700     1.5647750     0.1124900
  C        1.8652277    -1.1935309    -0.0153520
  C       -2.4761190    -0.4337210     0.2256320
  H       -0.0681530    -1.7945710     0.3697710
  H        0.6733550    -0.8157800     1.6370670
  H       -1.8203350     1.5970450     0.2687060
  H       -1.3720190     0.6392280     1.7041070
  H       -0.0402350     0.8946720    -1.8856460
  H        1.6977260     2.5694770     1.3788080
  H        3.2012140    -2.4469230    -0.4041650
  H       -4.0405490    -0.6812350    -0.7753220
units angstrom
no_reorient  #important for SAPT in psi4, default
symmetry c1  #important for SAPT in psi4, default
}

set PROPERTIES_ORIGIN ["COM"]
properties('MP2/aug-cc-pvtz', properties = ['dipole'])
--------------------------------------------------------------------------

    Molecular point group: c1
  Charge       = 0
  Multiplicity = 1
  Basis Set: AUG-CC-PVTZ
    Blend: AUG-CC-PVTZ
  Basis Set: (AUG-CC-PVTZ AUX)
    Blend: AUG-CC-PVTZ-JKFIT

    Orbital Energies [Eh]
    ---------------------

    Doubly Occupied:

       1A    -20.641578     2A    -20.635288     3A    -20.627928
       4A    -20.577904     5A    -20.568196     6A    -20.563994
       7A    -20.541589     8A    -11.409925     9A    -11.409693
      10A    -11.407604    11A    -11.343569    12A    -11.274751
      13A    -11.265047    14A     -1.487469    15A     -1.481785
      16A     -1.473548    17A     -1.397986    18A     -1.370934
      19A     -1.368481    20A     -1.311861    21A     -1.121984
      22A     -1.050786    23A     -0.959039    24A     -0.866149
      25A     -0.837145    26A     -0.800663    27A     -0.760693
      28A     -0.728285    29A     -0.719016    30A     -0.714848
      31A     -0.704386    32A     -0.694356    33A     -0.672939
      34A     -0.659434    35A     -0.644313    36A     -0.637602
      37A     -0.622416    38A     -0.599668    39A     -0.597718
      40A     -0.571394    41A     -0.562844    42A     -0.557084
      43A     -0.545420    44A     -0.502179    45A     -0.495620
      46A     -0.485186    47A     -0.473627    48A     -0.457983
      49A     -0.455638    50A     -0.450185

  @DF-RHF Final Energy:  -756.23630908149221

   => Energetics <=

    Nuclear Repulsion Energy =            874.3074796035749614
    One-Electron Energy =               -2776.8721158848575215
    Two-Electron Energy =                1146.3283271997904649
    Total Energy =                       -756.2363090814922089
  Basis Set: (AUG-CC-PVTZ AUX)
    Blend: AUG-CC-PVTZ-RI
    Molecular point group: c1

    Geometry (in Angstrom), charge = 0, multiplicity = 1:

       Center              X                  Y                   Z               Mass
    ------------   -----------------  -----------------  -----------------  -----------------
         O           -0.304700933274     0.072432380146    -1.418099291937    15.994914619570
         O            1.182271066726     1.736481380146     1.386889708063    15.994914619570
         O            0.901586066726     2.378299380146    -0.775923291937    15.994914619570
         O            2.294322066726    -2.417388619854    -0.010324291937    15.994914619570
         O           -3.463096933274     0.080403380146    -0.546687291937    15.994914619570
         O            2.631286066726    -0.229467619854    -0.483704291937    15.994914619570
         O           -2.440848933274    -1.601675619854     0.571503708063    15.994914619570
         C           -0.112426933274     0.315972380146    -0.034740291937    12.000000000000
         C            0.554205066726    -0.916503619854     0.561833708063    12.000000000000
         C           -1.475627933274     0.624820380146     0.623706708063    12.000000000000
         C            0.740502066726     1.569118380146     0.122042708063    12.000000000000
         C            1.859759766726    -1.189187519854    -0.005799291937    12.000000000000
         C           -2.481586933274    -0.429377619854     0.235184708063    12.000000000000
         H           -0.073620933274    -1.790227619854     0.379323708063     1.007825032230
         H            0.667887066726    -0.811436619854     1.646619708063     1.007825032230
         H           -1.825802933274     1.601388380146     0.278258708063     1.007825032230
         H           -1.377486933274     0.643571380146     1.713659708063     1.007825032230
         H           -0.045702933274     0.899015380146    -1.876093291937     1.007825032230
         H            1.692258066726     2.573820380146     1.388360708063     1.007825032230
         H            3.195746066726    -2.442579619854    -0.394612291937     1.007825032230
         H           -4.046016933274    -0.676891619854    -0.765769291937     1.007825032230

  Basis Set: AUG-CC-PVTZ
    Blend: AUG-CC-PVTZ
  Basis Set: (AUG-CC-PVTZ AUX)
    Blend: AUG-CC-PVTZ-JKFIT
	 Reference Energy          =    -756.2363090814922089 [Eh]
	 Singles Energy            =      -0.0000000000000000 [Eh]
	 Same-Spin Energy          =      -0.7325554702074554 [Eh]
	 Opposite-Spin Energy      =      -2.1649917964975098 [Eh]
	 Correlation Energy        =      -2.8975472667049651 [Eh]
	 Total Energy              =    -759.1338563481971278 [Eh]

	 ================> DF-SCS-MP2 Energies <==================
	-----------------------------------------------------------
	 SCS Same-Spin Scale       =       0.3333333333333333 [-]
	 SCS Opposite-Spin Scale   =       1.2000000000000000 [-]
	 SCS Same-Spin Energy      =      -0.2441851567358184 [Eh]
	 SCS Opposite-Spin Energy  =      -2.5979901557970115 [Eh]
	 SCS Correlation Energy    =      -2.8421753125328300 [Eh]
	 SCS Total Energy          =    -759.0784843940250539 [Eh]
	-----------------------------------------------------------

  Dipole Moment: [D]
     X:    -0.3983      Y:     0.1783      Z:     2.0305     Total:     2.0768

*** Psi4 exiting successfully. Buy a developer a beer!
