                               Psi4 1.3.2 release

  ==> Input File <==

--------------------------------------------------------------------------
#psi4
#
memory 32 gb

molecule  {
0 1
  O       -0.2992330     0.0680890    -1.4276520
  O        1.1877390     1.7321380     1.3773370
  O        0.9070540     2.3739560    -0.7854760
  O        2.2997900    -2.4217320    -0.0198770
  O       -3.4576290     0.0760600    -0.5562400
  O        2.6367540    -0.2338110    -0.4932570
  O       -2.4353810    -1.6060190     0.5619510
  C       -0.1069590     0.3116290    -0.0442930
  C        0.5596730    -0.9208470     0.5522810
  C       -1.4701600     0.6204770     0.6141540
  C        0.7459700     1.5647750     0.1124900
  C        1.9029595    -1.1268290    -0.0417452
  C       -2.4761190    -0.4337210     0.2256320
  H       -0.0681530    -1.7945710     0.3697710
  H        0.6733550    -0.8157800     1.6370670
  H       -1.8203350     1.5970450     0.2687060
  H       -1.3720190     0.6392280     1.7041070
  H       -0.0402350     0.8946720    -1.8856460
  H        1.6977260     2.5694770     1.3788080
  H        3.2012140    -2.4469230    -0.4041650
  H       -4.0405490    -0.6812350    -0.7753220
units angstrom
no_reorient  #important for SAPT in psi4, default
symmetry c1  #important for SAPT in psi4, default
}

set PROPERTIES_ORIGIN ["COM"]
properties('MP2/aug-cc-pvtz', properties = ['dipole'])
--------------------------------------------------------------------------

    Molecular point group: c1
  Charge       = 0
  Multiplicity = 1
  Basis Set: AUG-CC-PVTZ
    Blend: AUG-CC-PVTZ
  Basis Set: (AUG-CC-PVTZ AUX)
    Blend: AUG-CC-PVTZ-JKFIT

    Orbital Energies [Eh]
    ---------------------

    Doubly Occupied:

       1A    -20.638159     2A    -20.627492     3A    -20.625463
       4A    -20.578903     5A    -20.571263     6A    -20.563381
       7A    -20.558206     8A    -11.411709     9A    -11.407031
      10A    -11.404522    11A    -11.342102    12A    -11.274151
      13A    -11.263277    14A     -1.485517    15A     -1.473077
      16A     -1.466466    17A     -1.399489    18A     -1.372190
      19A     -1.369127    20A     -1.356025    21A     -1.119463
      22A     -1.043533    23A     -0.954972    24A     -0.854692
      25A     -0.831387    26A     -0.796371    27A     -0.760738
      28A     -0.728047    29A     -0.719060    30A     -0.714911
      31A     -0.704261    32A     -0.691620    33A     -0.669478
      34A     -0.653562    35A     -0.644710    36A     -0.637995
      37A     -0.623146    38A     -0.603114    39A     -0.595655
      40A     -0.578781    41A     -0.563213    42A     -0.560601
      43A     -0.546679    44A     -0.505596    45A     -0.495597
      46A     -0.486777    47A     -0.483926    48A     -0.472021
      49A     -0.465549    50A     -0.453523

  @DF-RHF Final Energy:  -756.25516598519744

   => Energetics <=

    Nuclear Repulsion Energy =            874.6934767218185698
    One-Electron Energy =               -2777.6042265913888514
    Two-Electron Energy =                1146.6555838843728452
    Total Energy =                       -756.2551659851974364
  Basis Set: (AUG-CC-PVTZ AUX)
    Blend: AUG-CC-PVTZ-RI
    Molecular point group: c1

    Geometry (in Angstrom), charge = 0, multiplicity = 1:

       Center              X                  Y                   Z               Mass
    ------------   -----------------  -----------------  -----------------  -----------------
         O           -0.307058839162     0.068264097617    -1.416449948898    15.994914619570
         O            1.179913160838     1.732313097617     1.388539051102    15.994914619570
         O            0.899228160838     2.374131097617    -0.774273948898    15.994914619570
         O            2.291964160838    -2.421556902383    -0.008674948898    15.994914619570
         O           -3.465454839162     0.076235097617    -0.545037948898    15.994914619570
         O            2.628928160838    -0.233635902383    -0.482054948898    15.994914619570
         O           -2.443206839162    -1.605843902383     0.573153051102    15.994914619570
         C           -0.114784839162     0.311804097617    -0.033090948898    12.000000000000
         C            0.551847160838    -0.920671902383     0.563483051102    12.000000000000
         C           -1.477985839162     0.620652097617     0.625356051102    12.000000000000
         C            0.738144160838     1.564950097617     0.123692051102    12.000000000000
         C            1.895133660838    -1.126653902383    -0.030543148898    12.000000000000
         C           -2.483944839162    -0.433545902383     0.236834051102    12.000000000000
         H           -0.075978839162    -1.794395902383     0.380973051102     1.007825032230
         H            0.665529160838    -0.815604902383     1.648269051102     1.007825032230
         H           -1.828160839162     1.597220097617     0.279908051102     1.007825032230
         H           -1.379844839162     0.639403097617     1.715309051102     1.007825032230
         H           -0.048060839162     0.894847097617    -1.874443948898     1.007825032230
         H            1.689900160838     2.569652097617     1.390010051102     1.007825032230
         H            3.193388160838    -2.446747902383    -0.392962948898     1.007825032230
         H           -4.048374839162    -0.681059902383    -0.764119948898     1.007825032230

  Basis Set: AUG-CC-PVTZ
    Blend: AUG-CC-PVTZ
  Basis Set: (AUG-CC-PVTZ AUX)
    Blend: AUG-CC-PVTZ-JKFIT
	 Reference Energy          =    -756.2551659851974364 [Eh]
	 Singles Energy            =      -0.0000000000000000 [Eh]
	 Same-Spin Energy          =      -0.7310908017791542 [Eh]
	 Opposite-Spin Energy      =      -2.1626064045660920 [Eh]
	 Correlation Energy        =      -2.8936972063452462 [Eh]
	 Total Energy              =    -759.1488631915426595 [Eh]

	 ================> DF-SCS-MP2 Energies <==================
	-----------------------------------------------------------
	 SCS Same-Spin Scale       =       0.3333333333333333 [-]
	 SCS Opposite-Spin Scale   =       1.2000000000000000 [-]
	 SCS Same-Spin Energy      =      -0.2436969339263847 [Eh]
	 SCS Opposite-Spin Energy  =      -2.5951276854793104 [Eh]
	 SCS Correlation Energy    =      -2.8388246194056950 [Eh]
	 SCS Total Energy          =    -759.0939906046031638 [Eh]
	-----------------------------------------------------------

  Dipole Moment: [D]
     X:    -0.2770      Y:     0.7059      Z:     1.9054     Total:     2.0507

*** Psi4 exiting successfully. Buy a developer a beer!
