                               Psi4 1.3.2 release

  ==> Input File <==

--------------------------------------------------------------------------
#psi4
#
memory 32 gb

molecule  {
0 1
  O       -0.2992330     0.0680890    -1.4276520
  O        1.1877390     1.7321380     1.3773370
  O        0.9070540     2.3739560    -0.7854760
  O        2.2997900    -2.4217320    -0.0198770
  O       -3.4576290     0.0760600    -0.5562400
  O        2.6367540    -0.2338110    -0.4932570
  O       -2.4353810    -1.6060190     0.5619510
  C       -0.1069590     0.3116290    -0.0442930
  C        0.5596730    -0.9208470     0.5522810
  C       -1.4701600     0.6204770     0.6141540
  C        0.7459700     1.5647750     0.1124900
  C        1.8824018    -1.1331794    -0.0319508
  C       -2.4761190    -0.4337210     0.2256320
  H       -0.0681530    -1.7945710     0.3697710
  H        0.6733550    -0.8157800     1.6370670
  H       -1.8203350     1.5970450     0.2687060
  H       -1.3720190     0.6392280     1.7041070
  H       -0.0402350     0.8946720    -1.8856460
  H        1.6977260     2.5694770     1.3788080
  H        3.2012140    -2.4469230    -0.4041650
  H       -4.0405490    -0.6812350    -0.7753220
units angstrom
no_reorient  #important for SAPT in psi4, default
symmetry c1  #important for SAPT in psi4, default
}

set PROPERTIES_ORIGIN ["COM"]
properties('MP2/aug-cc-pvtz', properties = ['dipole'])
--------------------------------------------------------------------------

    Molecular point group: c1
  Charge       = 0
  Multiplicity = 1
  Basis Set: AUG-CC-PVTZ
    Blend: AUG-CC-PVTZ
  Basis Set: (AUG-CC-PVTZ AUX)
    Blend: AUG-CC-PVTZ-JKFIT

    Orbital Energies [Eh]
    ---------------------

    Doubly Occupied:

       1A    -20.638085     2A    -20.628023     3A    -20.625960
       4A    -20.579447     5A    -20.571152     6A    -20.564050
       7A    -20.555285     8A    -11.411904     9A    -11.407681
      10A    -11.406628    11A    -11.343394    12A    -11.274883
      13A    -11.264261    14A     -1.485395    15A     -1.473652
      16A     -1.463384    17A     -1.399868    18A     -1.372338
      19A     -1.369640    20A     -1.344650    21A     -1.122024
      22A     -1.048072    23A     -0.957038    24A     -0.856020
      25A     -0.832366    26A     -0.797207    27A     -0.761424
      28A     -0.728228    29A     -0.719625    30A     -0.714356
      31A     -0.703021    32A     -0.692160    33A     -0.670045
      34A     -0.653720    35A     -0.644862    36A     -0.638066
      37A     -0.623469    38A     -0.601671    39A     -0.595862
      40A     -0.576510    41A     -0.564206    42A     -0.561865
      43A     -0.547314    44A     -0.505350    45A     -0.496117
      46A     -0.486837    47A     -0.478549    48A     -0.471484
      49A     -0.464563    50A     -0.454181

  @DF-RHF Final Energy:  -756.25046413244024

   => Energetics <=

    Nuclear Repulsion Energy =            874.7404851976818918
    One-Electron Energy =               -2777.6901192503569291
    Two-Electron Energy =                1146.6991699202349082
    Total Energy =                       -756.2504641324401291
  Basis Set: (AUG-CC-PVTZ AUX)
    Blend: AUG-CC-PVTZ-RI
    Molecular point group: c1

    Geometry (in Angstrom), charge = 0, multiplicity = 1:

       Center              X                  Y                   Z               Mass
    ------------   -----------------  -----------------  -----------------  -----------------
         O           -0.305774163587     0.068660941806    -1.417062012819    15.994914619570
         O            1.181197836413     1.732709941806     1.387926987181    15.994914619570
         O            0.900512836413     2.374527941806    -0.774886012819    15.994914619570
         O            2.293248836413    -2.421160058194    -0.009287012819    15.994914619570
         O           -3.464170163587     0.076631941806    -0.545650012819    15.994914619570
         O            2.630212836413    -0.233239058194    -0.482667012819    15.994914619570
         O           -2.441922163587    -1.605447058194     0.572540987181    15.994914619570
         C           -0.113500163587     0.312200941806    -0.033703012819    12.000000000000
         C            0.553131836413    -0.920275058194     0.562870987181    12.000000000000
         C           -1.476701163587     0.621048941806     0.624743987181    12.000000000000
         C            0.739428836413     1.565346941806     0.123079987181    12.000000000000
         C            1.875860636413    -1.132607458194    -0.021360812819    12.000000000000
         C           -2.482660163587    -0.433149058194     0.236221987181    12.000000000000
         H           -0.074694163587    -1.793999058194     0.380360987181     1.007825032230
         H            0.666813836413    -0.815208058194     1.647656987181     1.007825032230
         H           -1.826876163587     1.597616941806     0.279295987181     1.007825032230
         H           -1.378560163587     0.639799941806     1.714696987181     1.007825032230
         H           -0.046776163587     0.895243941806    -1.875056012819     1.007825032230
         H            1.691184836413     2.570048941806     1.389397987181     1.007825032230
         H            3.194672836413    -2.446351058194    -0.393575012819     1.007825032230
         H           -4.047090163587    -0.680663058194    -0.764732012819     1.007825032230

  Basis Set: AUG-CC-PVTZ
    Blend: AUG-CC-PVTZ
  Basis Set: (AUG-CC-PVTZ AUX)
    Blend: AUG-CC-PVTZ-JKFIT
	 Reference Energy          =    -756.2504641324402428 [Eh]
	 Singles Energy            =      -0.0000000000000000 [Eh]
	 Same-Spin Energy          =      -0.7316849804776527 [Eh]
	 Opposite-Spin Energy      =      -2.1637041976807798 [Eh]
	 Correlation Energy        =      -2.8953891781584327 [Eh]
	 Total Energy              =    -759.1458533105986817 [Eh]

	 ================> DF-SCS-MP2 Energies <==================
	-----------------------------------------------------------
	 SCS Same-Spin Scale       =       0.3333333333333333 [-]
	 SCS Opposite-Spin Scale   =       1.2000000000000000 [-]
	 SCS Same-Spin Energy      =      -0.2438949934925509 [Eh]
	 SCS Opposite-Spin Energy  =      -2.5964450372169359 [Eh]
	 SCS Correlation Energy    =      -2.8403400307094868 [Eh]
	 SCS Total Energy          =    -759.0908041631497554 [Eh]
	-----------------------------------------------------------

  Dipole Moment: [D]
     X:    -0.3823      Y:     0.6729      Z:     1.9487     Total:     2.0968

*** Psi4 exiting successfully. Buy a developer a beer!
