                               Psi4 1.3.2 release

  ==> Input File <==

--------------------------------------------------------------------------
#psi4
#
memory 32 gb

molecule  {
0 1
  O       -0.2992330     0.0680890    -1.4276520
  O        1.1877390     1.7321380     1.3773370
  O        0.9070540     2.3739560    -0.7854760
  O        2.2997900    -2.4217320    -0.0198770
  O       -3.4576290     0.0760600    -0.5562400
  O        2.6367540    -0.2338110    -0.4932570
  O       -2.4353810    -1.6060190     0.5619510
  C       -0.2313530     0.2797552     0.0501575
  C        0.5596730    -0.9208470     0.5522810
  C       -1.4701600     0.6204770     0.6141540
  C        0.7459700     1.5647750     0.1124900
  C        1.9236380    -1.1208730    -0.0515330
  C       -2.4761190    -0.4337210     0.2256320
  H       -0.0681530    -1.7945710     0.3697710
  H        0.6733550    -0.8157800     1.6370670
  H       -1.8203350     1.5970450     0.2687060
  H       -1.3720190     0.6392280     1.7041070
  H       -0.0402350     0.8946720    -1.8856460
  H        1.6977260     2.5694770     1.3788080
  H        3.2012140    -2.4469230    -0.4041650
  H       -4.0405490    -0.6812350    -0.7753220
units angstrom
no_reorient  #important for SAPT in psi4, default
symmetry c1  #important for SAPT in psi4, default
}

set PROPERTIES_ORIGIN ["COM"]
properties('MP2/aug-cc-pvtz', properties = ['dipole'])
--------------------------------------------------------------------------

    Molecular point group: c1
  Charge       = 0
  Multiplicity = 1
  Basis Set: AUG-CC-PVTZ
    Blend: AUG-CC-PVTZ
  Basis Set: (AUG-CC-PVTZ AUX)
    Blend: AUG-CC-PVTZ-JKFIT

    Orbital Energies [Eh]
    ---------------------

    Doubly Occupied:

       1A    -20.635878     2A    -20.629602     3A    -20.626260
       4A    -20.571038     5A    -20.566553     6A    -20.566360
       7A    -20.560560     8A    -11.411970     9A    -11.410342
      10A    -11.404894    11A    -11.344018    12A    -11.272895
      13A    -11.264117    14A     -1.481857    15A     -1.475707
      16A     -1.470497    17A     -1.383395    18A     -1.372793
      19A     -1.367749    20A     -1.352254    21A     -1.139142
      22A     -1.047896    23A     -0.938996    24A     -0.855905
      25A     -0.838198    26A     -0.788613    27A     -0.751209
      28A     -0.729068    29A     -0.719033    30A     -0.715959
      31A     -0.703954    32A     -0.691609    33A     -0.675502
      34A     -0.653823    35A     -0.645167    36A     -0.638340
      37A     -0.625926    38A     -0.608605    39A     -0.597066
      40A     -0.584107    41A     -0.569079    42A     -0.543144
      43A     -0.527096    44A     -0.504848    45A     -0.495394
      46A     -0.491048    47A     -0.486759    48A     -0.478598
      49A     -0.465070    50A     -0.443472

  @DF-RHF Final Energy:  -756.22888874052319

   => Energetics <=

    Nuclear Repulsion Energy =            874.0606338145422569
    One-Electron Energy =               -2776.3363146299438995
    Two-Electron Energy =                1146.0467920748785673
    Total Energy =                       -756.2288887405231890
  Basis Set: (AUG-CC-PVTZ AUX)
    Blend: AUG-CC-PVTZ-RI
    Molecular point group: c1

    Geometry (in Angstrom), charge = 0, multiplicity = 1:

       Center              X                  Y                   Z               Mass
    ------------   -----------------  -----------------  -----------------  -----------------
         O           -0.300577531933     0.069883732334    -1.421740623576    15.994914619570
         O            1.186394468067     1.733932732334     1.383248376424    15.994914619570
         O            0.905709468067     2.375750732334    -0.779564623576    15.994914619570
         O            2.298445468067    -2.419937267666    -0.013965623576    15.994914619570
         O           -3.458973531933     0.077854732334    -0.550328623576    15.994914619570
         O            2.635409468067    -0.232016267666    -0.487345623576    15.994914619570
         O           -2.436725531933    -1.604224267666     0.567862376424    15.994914619570
         C           -0.232697531933     0.281549932334     0.056068876424    12.000000000000
         C            0.558328468067    -0.919052267666     0.558192376424    12.000000000000
         C           -1.471504531933     0.622271732334     0.620065376424    12.000000000000
         C            0.744625468067     1.566569732334     0.118401376424    12.000000000000
         C            1.922293468067    -1.119078267666    -0.045621623576    12.000000000000
         C           -2.477463531933    -0.431926267666     0.231543376424    12.000000000000
         H           -0.069497531933    -1.792776267666     0.375682376424     1.007825032230
         H            0.672010468067    -0.813985267666     1.642978376424     1.007825032230
         H           -1.821679531933     1.598839732334     0.274617376424     1.007825032230
         H           -1.373363531933     0.641022732334     1.710018376424     1.007825032230
         H           -0.041579531933     0.896466732334    -1.879734623576     1.007825032230
         H            1.696381468067     2.571271732334     1.384719376424     1.007825032230
         H            3.199869468067    -2.445128267666    -0.398253623576     1.007825032230
         H           -4.041893531933    -0.679440267666    -0.769410623576     1.007825032230

  Basis Set: AUG-CC-PVTZ
    Blend: AUG-CC-PVTZ
  Basis Set: (AUG-CC-PVTZ AUX)
    Blend: AUG-CC-PVTZ-JKFIT
	 Reference Energy          =    -756.2288887405231890 [Eh]
	 Singles Energy            =      -0.0000000000000000 [Eh]
	 Same-Spin Energy          =      -0.7321967893504355 [Eh]
	 Opposite-Spin Energy      =      -2.1654249019509688 [Eh]
	 Correlation Energy        =      -2.8976216913014046 [Eh]
	 Total Energy              =    -759.1265104318246131 [Eh]

	 ================> DF-SCS-MP2 Energies <==================
	-----------------------------------------------------------
	 SCS Same-Spin Scale       =       0.3333333333333333 [-]
	 SCS Opposite-Spin Scale   =       1.2000000000000000 [-]
	 SCS Same-Spin Energy      =      -0.2440655964501452 [Eh]
	 SCS Opposite-Spin Energy  =      -2.5985098823411623 [Eh]
	 SCS Correlation Energy    =      -2.8425754787913076 [Eh]
	 SCS Total Energy          =    -759.0714642193145210 [Eh]
	-----------------------------------------------------------

  Dipole Moment: [D]
     X:    -0.3781      Y:     0.8038      Z:     2.1311     Total:     2.3089

*** Psi4 exiting successfully. Buy a developer a beer!
