                               Psi4 1.3.2 release

  ==> Input File <==

--------------------------------------------------------------------------
#psi4
#
memory 32 gb

molecule  {
0 1
  O       -0.2992330     0.0680890    -1.4276520
  O        1.1877390     1.7321380     1.3773370
  O        0.9070540     2.3739560    -0.7854760
  O        2.2997900    -2.4217320    -0.0198770
  O       -3.4576290     0.0760600    -0.5562400
  O        2.6367540    -0.2338110    -0.4932570
  O       -2.4353810    -1.6060190     0.5619510
  C       -0.1069590     0.3116290    -0.0442930
  C        0.5596730    -0.9208470     0.5522810
  C       -1.4701600     0.6204770     0.6141540
  C        0.7459700     1.5647750     0.1124900
  C        1.9791782    -1.3129496    -0.0468589
  C       -2.4761190    -0.4337210     0.2256320
  H       -0.0681530    -1.7945710     0.3697710
  H        0.6733550    -0.8157800     1.6370670
  H       -1.8203350     1.5970450     0.2687060
  H       -1.3720190     0.6392280     1.7041070
  H       -0.0402350     0.8946720    -1.8856460
  H        1.6977260     2.5694770     1.3788080
  H        3.2012140    -2.4469230    -0.4041650
  H       -4.0405490    -0.6812350    -0.7753220
units angstrom
no_reorient  #important for SAPT in psi4, default
symmetry c1  #important for SAPT in psi4, default
}

set PROPERTIES_ORIGIN ["COM"]
properties('MP2/aug-cc-pvtz', properties = ['dipole'])
--------------------------------------------------------------------------

    Molecular point group: c1
  Charge       = 0
  Multiplicity = 1
  Basis Set: AUG-CC-PVTZ
    Blend: AUG-CC-PVTZ
  Basis Set: (AUG-CC-PVTZ AUX)
    Blend: AUG-CC-PVTZ-JKFIT

    Orbital Energies [Eh]
    ---------------------

    Doubly Occupied:

       1A    -20.683118     2A    -20.628058     3A    -20.623659
       4A    -20.569550     5A    -20.560907     6A    -20.558823
       7A    -20.525991     8A    -11.405455     9A    -11.402492
      10A    -11.402113    11A    -11.334306    12A    -11.268773
      13A    -11.259410    14A     -1.596492    15A     -1.474890
      16A     -1.468916    17A     -1.389581    18A     -1.365671
      19A     -1.361167    20A     -1.297602    21A     -1.105720
      22A     -1.026548    23A     -0.957842    24A     -0.901472
      25A     -0.834533    26A     -0.798562    27A     -0.769629
      28A     -0.751117    29A     -0.719919    30A     -0.716618
      31A     -0.712230    32A     -0.691211    33A     -0.685527
      34A     -0.665634    35A     -0.637147    36A     -0.632347
      37A     -0.615008    38A     -0.598356    39A     -0.593707
      40A     -0.566565    41A     -0.556554    42A     -0.538667
      43A     -0.525295    44A     -0.494732    45A     -0.489566
      46A     -0.478402    47A     -0.466071    48A     -0.450485
      49A     -0.446618    50A     -0.427688

  @DF-RHF Final Energy:  -756.19535410638787

   => Energetics <=

    Nuclear Repulsion Energy =            872.9904103566037747
    One-Electron Energy =               -2774.3100367616607400
    Two-Electron Energy =                1145.1242722986692115
    Total Energy =                       -756.1953541063878674
  Basis Set: (AUG-CC-PVTZ AUX)
    Blend: AUG-CC-PVTZ-RI
    Molecular point group: c1

    Geometry (in Angstrom), charge = 0, multiplicity = 1:

       Center              X                  Y                   Z               Mass
    ------------   -----------------  -----------------  -----------------  -----------------
         O           -0.311821838051     0.079894999364    -1.416130387591    15.994914619570
         O            1.175150161949     1.743943999364     1.388858612409    15.994914619570
         O            0.894465161949     2.385761999364    -0.773954387591    15.994914619570
         O            2.287201161949    -2.409926000636    -0.008355387591    15.994914619570
         O           -3.470217838051     0.087865999364    -0.544718387591    15.994914619570
         O            2.624165161949    -0.222005000636    -0.481735387591    15.994914619570
         O           -2.447969838051    -1.594213000636     0.573472612409    15.994914619570
         C           -0.119547838051     0.323434999364    -0.032771387591    12.000000000000
         C            0.547084161949    -0.909041000636     0.563802612409    12.000000000000
         C           -1.482748838051     0.632282999364     0.625675612409    12.000000000000
         C            0.733381161949     1.576580999364     0.124011612409    12.000000000000
         C            1.966589361949    -1.301143600636    -0.035337287591    12.000000000000
         C           -2.488707838051    -0.421915000636     0.237153612409    12.000000000000
         H           -0.080741838051    -1.782765000636     0.381292612409     1.007825032230
         H            0.660766161949    -0.803974000636     1.648588612409     1.007825032230
         H           -1.832923838051     1.608850999364     0.280227612409     1.007825032230
         H           -1.384607838051     0.651033999364     1.715628612409     1.007825032230
         H           -0.052823838051     0.906477999364    -1.874124387591     1.007825032230
         H            1.685137161949     2.581282999364     1.390329612409     1.007825032230
         H            3.188625161949    -2.435117000636    -0.392643387591     1.007825032230
         H           -4.053137838051    -0.669429000636    -0.763800387591     1.007825032230

  Basis Set: AUG-CC-PVTZ
    Blend: AUG-CC-PVTZ
  Basis Set: (AUG-CC-PVTZ AUX)
    Blend: AUG-CC-PVTZ-JKFIT
	 Reference Energy          =    -756.1953541063878674 [Eh]
	 Singles Energy            =      -0.0000000000000000 [Eh]
	 Same-Spin Energy          =      -0.7312509119099029 [Eh]
	 Opposite-Spin Energy      =      -2.1618686737968558 [Eh]
	 Correlation Energy        =      -2.8931195857067586 [Eh]
	 Total Energy              =    -759.0884736920946807 [Eh]

	 ================> DF-SCS-MP2 Energies <==================
	-----------------------------------------------------------
	 SCS Same-Spin Scale       =       0.3333333333333333 [-]
	 SCS Opposite-Spin Scale   =       1.2000000000000000 [-]
	 SCS Same-Spin Energy      =      -0.2437503039699676 [Eh]
	 SCS Opposite-Spin Energy  =      -2.5942424085562270 [Eh]
	 SCS Correlation Energy    =      -2.8379927125261948 [Eh]
	 SCS Total Energy          =    -759.0333468189140831 [Eh]
	-----------------------------------------------------------

  Dipole Moment: [D]
     X:     0.2708      Y:    -1.0001      Z:     1.9647     Total:     2.2212

*** Psi4 exiting successfully. Buy a developer a beer!
