                               Psi4 1.3.2 release

  ==> Input File <==

--------------------------------------------------------------------------
#psi4
#
memory 32 gb

molecule  {
0 1
  O       -0.2992330     0.0680890    -1.4276520
  O        1.1786305     1.7111751     1.3830726
  O        0.9070540     2.3739560    -0.7854760
  O        2.2997900    -2.4217320    -0.0198770
  O       -3.4576290     0.0760600    -0.5562400
  O        2.6367540    -0.2338110    -0.4932570
  O       -2.4353810    -1.6060190     0.5619510
  C       -0.1069590     0.3116290    -0.0442930
  C        0.5596730    -0.9208470     0.5522810
  C       -1.4701600     0.6204770     0.6141540
  C        0.7459700     1.5647750     0.1124900
  C        1.9236380    -1.1208730    -0.0515330
  C       -2.4761190    -0.4337210     0.2256320
  H       -0.0681530    -1.7945710     0.3697710
  H        0.6733550    -0.8157800     1.6370670
  H       -1.8203350     1.5970450     0.2687060
  H       -1.3720190     0.6392280     1.7041070
  H       -0.0402350     0.8946720    -1.8856460
  H        1.6977260     2.5694770     1.3788080
  H        3.2012140    -2.4469230    -0.4041650
  H       -4.0405490    -0.6812350    -0.7753220
units angstrom
no_reorient  #important for SAPT in psi4, default
symmetry c1  #important for SAPT in psi4, default
}

set PROPERTIES_ORIGIN ["COM"]
properties('MP2/aug-cc-pvtz', properties = ['dipole'])
--------------------------------------------------------------------------

    Molecular point group: c1
  Charge       = 0
  Multiplicity = 1
  Basis Set: AUG-CC-PVTZ
    Blend: AUG-CC-PVTZ
  Basis Set: (AUG-CC-PVTZ AUX)
    Blend: AUG-CC-PVTZ-JKFIT

    Orbital Energies [Eh]
    ---------------------

    Doubly Occupied:

       1A    -20.641190     2A    -20.626693     3A    -20.624852
       4A    -20.577675     5A    -20.572431     6A    -20.562400
       7A    -20.560836     8A    -11.411566     9A    -11.406050
      10A    -11.402182    11A    -11.339703    12A    -11.272974
      13A    -11.261631    14A     -1.483956    15A     -1.472196
      16A     -1.469931    17A     -1.398270    18A     -1.372535
      19A     -1.368536    20A     -1.366267    21A     -1.116333
      22A     -1.038673    23A     -0.951269    24A     -0.851118
      25A     -0.829977    26A     -0.793221    27A     -0.758517
      28A     -0.727807    29A     -0.718085    30A     -0.715979
      31A     -0.704810    32A     -0.690887    33A     -0.668871
      34A     -0.653674    35A     -0.644512    36A     -0.637890
      37A     -0.622946    38A     -0.604236    39A     -0.595140
      40A     -0.580201    41A     -0.561781    42A     -0.558746
      43A     -0.545538    44A     -0.506612    45A     -0.494887
      46A     -0.490391    47A     -0.485953    48A     -0.471597
      49A     -0.465342    50A     -0.452209

  @DF-RHF Final Energy:  -756.25568691211311

   => Energetics <=

    Nuclear Repulsion Energy =            874.8521949343564756
    One-Electron Energy =               -2777.9576100045896965
    Two-Electron Energy =                1146.8497281581201150
    Total Energy =                       -756.2556869121131058
  Basis Set: (AUG-CC-PVTZ AUX)
    Blend: AUG-CC-PVTZ-RI
    Molecular point group: c1

    Geometry (in Angstrom), charge = 0, multiplicity = 1:

       Center              X                  Y                   Z               Mass
    ------------   -----------------  -----------------  -----------------  -----------------
         O           -0.307592369961     0.069638007495    -1.416316044982    15.994914619570
         O            1.170271130039     1.712724107495     1.394408555018    15.994914619570
         O            0.898694630039     2.375505007495    -0.774140044982    15.994914619570
         O            2.291430630039    -2.420182992505    -0.008541044982    15.994914619570
         O           -3.465988369961     0.077609007495    -0.544904044982    15.994914619570
         O            2.628394630039    -0.232261992505    -0.481921044982    15.994914619570
         O           -2.443740369961    -1.604469992505     0.573286955018    15.994914619570
         C           -0.115318369961     0.313178007495    -0.032957044982    12.000000000000
         C            0.551313630039    -0.919297992505     0.563616955018    12.000000000000
         C           -1.478519369961     0.622026007495     0.625489955018    12.000000000000
         C            0.737610630039     1.566324007495     0.123825955018    12.000000000000
         C            1.915278630039    -1.119323992505    -0.040197044982    12.000000000000
         C           -2.484478369961    -0.432171992505     0.236967955018    12.000000000000
         H           -0.076512369961    -1.793021992505     0.381106955018     1.007825032230
         H            0.664995630039    -0.814230992505     1.648402955018     1.007825032230
         H           -1.828694369961     1.598594007495     0.280041955018     1.007825032230
         H           -1.380378369961     0.640777007495     1.715442955018     1.007825032230
         H           -0.048594369961     0.896221007495    -1.874310044982     1.007825032230
         H            1.689366630039     2.571026007495     1.390143955018     1.007825032230
         H            3.192854630039    -2.445373992505    -0.392829044982     1.007825032230
         H           -4.048908369961    -0.679685992505    -0.763986044982     1.007825032230

  Basis Set: AUG-CC-PVTZ
    Blend: AUG-CC-PVTZ
  Basis Set: (AUG-CC-PVTZ AUX)
    Blend: AUG-CC-PVTZ-JKFIT
	 Reference Energy          =    -756.2556869121131058 [Eh]
	 Singles Energy            =      -0.0000000000000000 [Eh]
	 Same-Spin Energy          =      -0.7310173646347748 [Eh]
	 Opposite-Spin Energy      =      -2.1625951689010230 [Eh]
	 Correlation Energy        =      -2.8936125335357978 [Eh]
	 Total Energy              =    -759.1492994456489214 [Eh]

	 ================> DF-SCS-MP2 Energies <==================
	-----------------------------------------------------------
	 SCS Same-Spin Scale       =       0.3333333333333333 [-]
	 SCS Opposite-Spin Scale   =       1.2000000000000000 [-]
	 SCS Same-Spin Energy      =      -0.2436724548782583 [Eh]
	 SCS Opposite-Spin Energy  =      -2.5951142026812275 [Eh]
	 SCS Correlation Energy    =      -2.8387866575594858 [Eh]
	 SCS Total Energy          =    -759.0944735696725729 [Eh]
	-----------------------------------------------------------

  Dipole Moment: [D]
     X:    -0.1424      Y:     0.7820      Z:     1.8711     Total:     2.0330

*** Psi4 exiting successfully. Buy a developer a beer!
