                               Psi4 1.3.2 release

  ==> Input File <==

--------------------------------------------------------------------------
#psi4
#
memory 32 gb

molecule  {
0 1
  O       -0.2992330     0.0680890    -1.4276520
  O        1.1877390     1.7321380     1.3773370
  O        0.9070540     2.3739560    -0.7854760
  O        2.2997900    -2.4217320    -0.0198770
  O       -3.4576290     0.0760600    -0.5562400
  O        2.5756673    -0.1782776    -0.4721340
  O       -2.4353810    -1.6060190     0.5619510
  C       -0.1069590     0.3116290    -0.0442930
  C        0.5596730    -0.9208470     0.5522810
  C       -1.4701600     0.6204770     0.6141540
  C        0.7459700     1.5647750     0.1124900
  C        1.9236380    -1.1208730    -0.0515330
  C       -2.4761190    -0.4337210     0.2256320
  H       -0.0681530    -1.7945710     0.3697710
  H        0.6733550    -0.8157800     1.6370670
  H       -1.8203350     1.5970450     0.2687060
  H       -1.3720190     0.6392280     1.7041070
  H       -0.0402350     0.8946720    -1.8856460
  H        1.6977260     2.5694770     1.3788080
  H        3.2012140    -2.4469230    -0.4041650
  H       -4.0405490    -0.6812350    -0.7753220
units angstrom
no_reorient  #important for SAPT in psi4, default
symmetry c1  #important for SAPT in psi4, default
}

set PROPERTIES_ORIGIN ["COM"]
properties('MP2/aug-cc-pvtz', properties = ['dipole'])
--------------------------------------------------------------------------

    Molecular point group: c1
  Charge       = 0
  Multiplicity = 1
  Basis Set: AUG-CC-PVTZ
    Blend: AUG-CC-PVTZ
  Basis Set: (AUG-CC-PVTZ AUX)
    Blend: AUG-CC-PVTZ-JKFIT

    Orbital Energies [Eh]
    ---------------------

    Doubly Occupied:

       1A    -20.635687     2A    -20.632453     3A    -20.625749
       4A    -20.576346     5A    -20.568169     6A    -20.563109
       7A    -20.561269     8A    -11.409269     9A    -11.404923
      10A    -11.403878    11A    -11.338222    12A    -11.271581
      13A    -11.258033    14A     -1.483533    15A     -1.471312
      16A     -1.471188    17A     -1.397181    18A     -1.375168
      19A     -1.369019    20A     -1.366668    21A     -1.114389
      22A     -1.036409    23A     -0.951147    24A     -0.852778
      25A     -0.830599    26A     -0.794471    27A     -0.758172
      28A     -0.726899    29A     -0.719248    30A     -0.717037
      31A     -0.704724    32A     -0.690070    33A     -0.669111
      34A     -0.654460    35A     -0.642836    36A     -0.636873
      37A     -0.621559    38A     -0.603863    39A     -0.594130
      40A     -0.579775    41A     -0.561092    42A     -0.557784
      43A     -0.543828    44A     -0.504629    45A     -0.494851
      46A     -0.492219    47A     -0.483877    48A     -0.469835
      49A     -0.464849    50A     -0.450957

  @DF-RHF Final Energy:  -756.25605934608643

   => Energetics <=

    Nuclear Repulsion Energy =            876.2215876559631624
    One-Electron Energy =               -2780.7448408190844020
    Two-Electron Energy =                1148.2671938170349222
    Total Energy =                       -756.2560593460864311
  Basis Set: (AUG-CC-PVTZ AUX)
    Blend: AUG-CC-PVTZ-RI
    Molecular point group: c1

    Geometry (in Angstrom), charge = 0, multiplicity = 1:

       Center              X                  Y                   Z               Mass
    ------------   -----------------  -----------------  -----------------  -----------------
         O           -0.303262838907     0.063266238053    -1.417597740503    15.994914619570
         O            1.183709161093     1.727315238053     1.387391259497    15.994914619570
         O            0.903024161093     2.369133238053    -0.775421740503    15.994914619570
         O            2.295760161093    -2.426554761947    -0.009822740503    15.994914619570
         O           -3.461658838907     0.071237238053    -0.546185740503    15.994914619570
         O            2.571637461093    -0.183100361947    -0.462079740503    15.994914619570
         O           -2.439410838907    -1.610841761947     0.572005259497    15.994914619570
         C           -0.110988838907     0.306806238053    -0.034238740503    12.000000000000
         C            0.555643161093    -0.925669761947     0.562335259497    12.000000000000
         C           -1.474189838907     0.615654238053     0.624208259497    12.000000000000
         C            0.741940161093     1.559952238053     0.122544259497    12.000000000000
         C            1.919608161093    -1.125695761947    -0.041478740503    12.000000000000
         C           -2.480148838907    -0.438543761947     0.235686259497    12.000000000000
         H           -0.072182838907    -1.799393761947     0.379825259497     1.007825032230
         H            0.669325161093    -0.820602761947     1.647121259497     1.007825032230
         H           -1.824364838907     1.592222238053     0.278760259497     1.007825032230
         H           -1.376048838907     0.634405238053     1.714161259497     1.007825032230
         H           -0.044264838907     0.889849238053    -1.875591740503     1.007825032230
         H            1.693696161093     2.564654238053     1.388862259497     1.007825032230
         H            3.197184161093    -2.451745761947    -0.394110740503     1.007825032230
         H           -4.044578838907    -0.686057761947    -0.765267740503     1.007825032230

  Basis Set: AUG-CC-PVTZ
    Blend: AUG-CC-PVTZ
  Basis Set: (AUG-CC-PVTZ AUX)
    Blend: AUG-CC-PVTZ-JKFIT
	 Reference Energy          =    -756.2560593460864311 [Eh]
	 Singles Energy            =      -0.0000000000000000 [Eh]
	 Same-Spin Energy          =      -0.7309042501522082 [Eh]
	 Opposite-Spin Energy      =      -2.1622049601328772 [Eh]
	 Correlation Energy        =      -2.8931092102850853 [Eh]
	 Total Energy              =    -759.1491685563714782 [Eh]

	 ================> DF-SCS-MP2 Energies <==================
	-----------------------------------------------------------
	 SCS Same-Spin Scale       =       0.3333333333333333 [-]
	 SCS Opposite-Spin Scale   =       1.2000000000000000 [-]
	 SCS Same-Spin Energy      =      -0.2436347500507360 [Eh]
	 SCS Opposite-Spin Energy  =      -2.5946459521594525 [Eh]
	 SCS Correlation Energy    =      -2.8382807022101884 [Eh]
	 SCS Total Energy          =    -759.0943400482966581 [Eh]
	-----------------------------------------------------------

  Dipole Moment: [D]
     X:     0.0885      Y:     0.5379      Z:     1.7937     Total:     1.8747

*** Psi4 exiting successfully. Buy a developer a beer!
