                               Psi4 1.3.2 release

  ==> Input File <==

--------------------------------------------------------------------------
#psi4
#
memory 32 gb

molecule  {
0 1
  O       -0.2992330     0.0680890    -1.4276520
  O        1.1877390     1.7321380     1.3773370
  O        0.9070540     2.3739560    -0.7854760
  O        2.2997900    -2.4217320    -0.0198770
  O       -3.4576290     0.0760600    -0.5562400
  O        2.6367540    -0.2338110    -0.4932570
  O       -2.4353810    -1.6060190     0.5619510
  C       -0.1069590     0.3116290    -0.0442930
  C        0.5596730    -0.9208470     0.5522810
  C       -1.4701600     0.6204770     0.6141540
  C        0.7459700     1.5647750     0.1124900
  C        1.9653324    -1.1101515    -0.0710767
  C       -2.4761190    -0.4337210     0.2256320
  H       -0.0681530    -1.7945710     0.3697710
  H        0.6733550    -0.8157800     1.6370670
  H       -1.8203350     1.5970450     0.2687060
  H       -1.3720190     0.6392280     1.7041070
  H       -0.0402350     0.8946720    -1.8856460
  H        1.6977260     2.5694770     1.3788080
  H        3.2012140    -2.4469230    -0.4041650
  H       -4.0405490    -0.6812350    -0.7753220
units angstrom
no_reorient  #important for SAPT in psi4, default
symmetry c1  #important for SAPT in psi4, default
}

set PROPERTIES_ORIGIN ["COM"]
properties('MP2/aug-cc-pvtz', properties = ['dipole'])
--------------------------------------------------------------------------

    Molecular point group: c1
  Charge       = 0
  Multiplicity = 1
  Basis Set: AUG-CC-PVTZ
    Blend: AUG-CC-PVTZ
  Basis Set: (AUG-CC-PVTZ AUX)
    Blend: AUG-CC-PVTZ-JKFIT

    Orbital Energies [Eh]
    ---------------------

    Doubly Occupied:

       1A    -20.638289     2A    -20.625832     3A    -20.624553
       4A    -20.577145     5A    -20.571516     6A    -20.566651
       7A    -20.561293     8A    -11.411031     9A    -11.405001
      10A    -11.398439    11A    -11.338245    12A    -11.271870
      13A    -11.259228    14A     -1.486890    15A     -1.479766
      16A     -1.471273    17A     -1.398497    18A     -1.387516
      19A     -1.371177    20A     -1.367229    21A     -1.112849
      22A     -1.030482    23A     -0.948268    24A     -0.850588
      25A     -0.828232    26A     -0.793992    27A     -0.758844
      28A     -0.729192    29A     -0.720043    30A     -0.717393
      31A     -0.706314    32A     -0.690687    33A     -0.669961
      34A     -0.655827    35A     -0.644238    36A     -0.637982
      37A     -0.621787    38A     -0.607195    39A     -0.594593
      40A     -0.582851    41A     -0.560308    42A     -0.557425
      43A     -0.544423    44A     -0.507990    45A     -0.501339
      46A     -0.493853    47A     -0.485319    48A     -0.471864
      49A     -0.463269    50A     -0.450017

  @DF-RHF Final Energy:  -756.25831108058742

   => Energetics <=

    Nuclear Repulsion Energy =            874.5709227612251198
    One-Electron Energy =               -2777.3613414600445140
    Two-Electron Energy =                1146.5321076182319757
    Total Energy =                       -756.2583110805874185
  Basis Set: (AUG-CC-PVTZ AUX)
    Blend: AUG-CC-PVTZ-RI
    Molecular point group: c1

    Geometry (in Angstrom), charge = 0, multiplicity = 1:

       Center              X                  Y                   Z               Mass
    ------------   -----------------  -----------------  -----------------  -----------------
         O           -0.310956597237     0.067221900440    -1.414616987933    15.994914619570
         O            1.176015402763     1.731270900440     1.390372012067    15.994914619570
         O            0.895330402763     2.373088900440    -0.772440987933    15.994914619570
         O            2.288066402763    -2.422599099560    -0.006841987933    15.994914619570
         O           -3.469352597237     0.075192900440    -0.543204987933    15.994914619570
         O            2.625030402763    -0.234678099560    -0.480221987933    15.994914619570
         O           -2.447104597237    -1.606886099560     0.574986012067    15.994914619570
         C           -0.118682597237     0.310761900440    -0.031257987933    12.000000000000
         C            0.547949402763    -0.921714099560     0.565316012067    12.000000000000
         C           -1.481883597237     0.619609900440     0.627189012067    12.000000000000
         C            0.734246402763     1.563907900440     0.125525012067    12.000000000000
         C            1.953608802763    -1.111018599560    -0.058041687933    12.000000000000
         C           -2.487842597237    -0.434588099560     0.238667012067    12.000000000000
         H           -0.079876597237    -1.795438099560     0.382806012067     1.007825032230
         H            0.661631402763    -0.816647099560     1.650102012067     1.007825032230
         H           -1.832058597237     1.596177900440     0.281741012067     1.007825032230
         H           -1.383742597237     0.638360900440     1.717142012067     1.007825032230
         H           -0.051958597237     0.893804900440    -1.872610987933     1.007825032230
         H            1.686002402763     2.568609900440     1.391843012067     1.007825032230
         H            3.189490402763    -2.447790099560    -0.391129987933     1.007825032230
         H           -4.052272597237    -0.682102099560    -0.762286987933     1.007825032230

  Basis Set: AUG-CC-PVTZ
    Blend: AUG-CC-PVTZ
  Basis Set: (AUG-CC-PVTZ AUX)
    Blend: AUG-CC-PVTZ-JKFIT
	 Reference Energy          =    -756.2583110805874185 [Eh]
	 Singles Energy            =      -0.0000000000000000 [Eh]
	 Same-Spin Energy          =      -0.7296417961407247 [Eh]
	 Opposite-Spin Energy      =      -2.1599008264694479 [Eh]
	 Correlation Energy        =      -2.8895426226101728 [Eh]
	 Total Energy              =    -759.1478537031975975 [Eh]

	 ================> DF-SCS-MP2 Energies <==================
	-----------------------------------------------------------
	 SCS Same-Spin Scale       =       0.3333333333333333 [-]
	 SCS Opposite-Spin Scale   =       1.2000000000000000 [-]
	 SCS Same-Spin Energy      =      -0.2432139320469082 [Eh]
	 SCS Opposite-Spin Energy  =      -2.5918809917633374 [Eh]
	 SCS Correlation Energy    =      -2.8350949238102459 [Eh]
	 SCS Total Energy          =    -759.0934060043977070 [Eh]
	-----------------------------------------------------------

  Dipole Moment: [D]
     X:     0.0633      Y:     0.8017      Z:     1.7670     Total:     1.9414

*** Psi4 exiting successfully. Buy a developer a beer!
