                               Psi4 1.3.2 release

  ==> Input File <==

--------------------------------------------------------------------------
#psi4
#
memory 32 gb

molecule  {
0 1
  O       -0.2992330     0.0680890    -1.4276520
  O        1.1877390     1.7321380     1.3773370
  O        0.9070540     2.3739560    -0.7854760
  O        2.2997900    -2.4217320    -0.0198770
  O       -3.4576290     0.0760600    -0.5562400
  O        2.6367540    -0.2338110    -0.4932570
  O       -2.4353810    -1.6060190     0.5619510
  C       -0.1069590     0.3116290    -0.0442930
  C        0.5596730    -0.9208470     0.5522810
  C       -1.4701600     0.6204770     0.6141540
  C        0.7459700     1.5647750     0.1124900
  C        2.0404586    -0.9755571    -0.1238949
  C       -2.4761190    -0.4337210     0.2256320
  H       -0.0681530    -1.7945710     0.3697710
  H        0.6733550    -0.8157800     1.6370670
  H       -1.8203350     1.5970450     0.2687060
  H       -1.3720190     0.6392280     1.7041070
  H       -0.0402350     0.8946720    -1.8856460
  H        1.6977260     2.5694770     1.3788080
  H        3.2012140    -2.4469230    -0.4041650
  H       -4.0405490    -0.6812350    -0.7753220
units angstrom
no_reorient  #important for SAPT in psi4, default
symmetry c1  #important for SAPT in psi4, default
}

set PROPERTIES_ORIGIN ["COM"]
properties('MP2/aug-cc-pvtz', properties = ['dipole'])
--------------------------------------------------------------------------

    Molecular point group: c1
  Charge       = 0
  Multiplicity = 1
  Basis Set: AUG-CC-PVTZ
    Blend: AUG-CC-PVTZ
  Basis Set: (AUG-CC-PVTZ AUX)
    Blend: AUG-CC-PVTZ-JKFIT

    Orbital Energies [Eh]
    ---------------------

    Doubly Occupied:

       1A    -20.644882     2A    -20.624867     3A    -20.598153
       4A    -20.585823     5A    -20.579353     6A    -20.578787
       7A    -20.559902     8A    -11.415687     9A    -11.403736
      10A    -11.382885    11A    -11.336041    12A    -11.270680
      13A    -11.254661    14A     -1.587180    15A     -1.491584
      16A     -1.470175    17A     -1.402037    18A     -1.376141
      19A     -1.366137    20A     -1.361561    21A     -1.109992
      22A     -1.019739    23A     -0.939694    24A     -0.844528
      25A     -0.811697    26A     -0.789537    27A     -0.765086
      28A     -0.742785    29A     -0.741229    30A     -0.719904
      31A     -0.716352    32A     -0.699662    33A     -0.691727
      34A     -0.668105    35A     -0.648176    36A     -0.641241
      37A     -0.616842    38A     -0.613950    39A     -0.596178
      40A     -0.591028    41A     -0.560796    42A     -0.558432
      43A     -0.545074    44A     -0.515097    45A     -0.509513
      46A     -0.493373    47A     -0.487767    48A     -0.473730
      49A     -0.456681    50A     -0.431394

  @DF-RHF Final Energy:  -756.17668083152000

   => Energetics <=

    Nuclear Repulsion Energy =            876.1367579380819279
    One-Electron Energy =               -2780.0477127335598198
    Two-Electron Energy =                1147.7342739639577758
    Total Energy =                       -756.1766808315201160
  Basis Set: (AUG-CC-PVTZ AUX)
    Blend: AUG-CC-PVTZ-RI
    Molecular point group: c1

    Geometry (in Angstrom), charge = 0, multiplicity = 1:

       Center              X                  Y                   Z               Mass
    ------------   -----------------  -----------------  -----------------  -----------------
         O           -0.315651324478     0.058810933346    -1.411316314635    15.994914619570
         O            1.171320675522     1.722859933346     1.393672685365    15.994914619570
         O            0.890635675522     2.364677933346    -0.769140314635    15.994914619570
         O            2.283371675522    -2.431010066654    -0.003541314635    15.994914619570
         O           -3.474047324478     0.066781933346    -0.539904314635    15.994914619570
         O            2.620335675522    -0.243089066654    -0.476921314635    15.994914619570
         O           -2.451799324478    -1.615297066654     0.578286685365    15.994914619570
         C           -0.123377324478     0.302350933346    -0.027957314635    12.000000000000
         C            0.543254675522    -0.930125066654     0.568616685365    12.000000000000
         C           -1.486578324478     0.611198933346     0.630489685365    12.000000000000
         C            0.729551675522     1.555496933346     0.128825685365    12.000000000000
         C            2.024040275522    -0.984835166654    -0.107559214635    12.000000000000
         C           -2.492537324478    -0.442999066654     0.241967685365    12.000000000000
         H           -0.084571324478    -1.803849066654     0.386106685365     1.007825032230
         H            0.656936675522    -0.825058066654     1.653402685365     1.007825032230
         H           -1.836753324478     1.587766933346     0.285041685365     1.007825032230
         H           -1.388437324478     0.629949933346     1.720442685365     1.007825032230
         H           -0.056653324478     0.885393933346    -1.869310314635     1.007825032230
         H            1.681307675522     2.560198933346     1.395143685365     1.007825032230
         H            3.184795675522    -2.456201066654    -0.387829314635     1.007825032230
         H           -4.056967324478    -0.690513066654    -0.758986314635     1.007825032230

  Basis Set: AUG-CC-PVTZ
    Blend: AUG-CC-PVTZ
  Basis Set: (AUG-CC-PVTZ AUX)
    Blend: AUG-CC-PVTZ-JKFIT
	 Reference Energy          =    -756.1766808315200024 [Eh]
	 Singles Energy            =      -0.0000000000000000 [Eh]
	 Same-Spin Energy          =      -0.7278857233110546 [Eh]
	 Opposite-Spin Energy      =      -2.1571118786809542 [Eh]
	 Correlation Energy        =      -2.8849976019920089 [Eh]
	 Total Energy              =    -759.0616784335120428 [Eh]

	 ================> DF-SCS-MP2 Energies <==================
	-----------------------------------------------------------
	 SCS Same-Spin Scale       =       0.3333333333333333 [-]
	 SCS Opposite-Spin Scale   =       1.2000000000000000 [-]
	 SCS Same-Spin Energy      =      -0.2426285744370182 [Eh]
	 SCS Opposite-Spin Energy  =      -2.5885342544171448 [Eh]
	 SCS Correlation Energy    =      -2.8311628288541630 [Eh]
	 SCS Total Energy          =    -759.0078436603741920 [Eh]
	-----------------------------------------------------------

  Dipole Moment: [D]
     X:     0.3796      Y:     2.0843      Z:     1.4533     Total:     2.5691

*** Psi4 exiting successfully. Buy a developer a beer!
