                               Psi4 1.3.2 release

  ==> Input File <==

--------------------------------------------------------------------------
#psi4
#
memory 32 gb

molecule  {
0 1
  O       -0.2992330     0.0680890    -1.4276520
  O        1.2517147     1.8495474     1.3315614
  O        0.9070540     2.3739560    -0.7854760
  O        2.2997900    -2.4217320    -0.0198770
  O       -3.4576290     0.0760600    -0.5562400
  O        2.6367540    -0.2338110    -0.4932570
  O       -2.4353810    -1.6060190     0.5619510
  C       -0.1069590     0.3116290    -0.0442930
  C        0.5596730    -0.9208470     0.5522810
  C       -1.4701600     0.6204770     0.6141540
  C        0.7459700     1.5647750     0.1124900
  C        1.9236380    -1.1208730    -0.0515330
  C       -2.4761190    -0.4337210     0.2256320
  H       -0.0681530    -1.7945710     0.3697710
  H        0.6733550    -0.8157800     1.6370670
  H       -1.8203350     1.5970450     0.2687060
  H       -1.3720190     0.6392280     1.7041070
  H       -0.0402350     0.8946720    -1.8856460
  H        1.6977260     2.5694770     1.3788080
  H        3.2012140    -2.4469230    -0.4041650
  H       -4.0405490    -0.6812350    -0.7753220
units angstrom
no_reorient  #important for SAPT in psi4, default
symmetry c1  #important for SAPT in psi4, default
}

set PROPERTIES_ORIGIN ["COM"]
properties('MP2/aug-cc-pvtz', properties = ['dipole'])
--------------------------------------------------------------------------

    Molecular point group: c1
  Charge       = 0
  Multiplicity = 1
  Basis Set: AUG-CC-PVTZ
    Blend: AUG-CC-PVTZ
  Basis Set: (AUG-CC-PVTZ AUX)
    Blend: AUG-CC-PVTZ-JKFIT

    Orbital Energies [Eh]
    ---------------------

    Doubly Occupied:

       1A    -20.628590     2A    -20.626155     3A    -20.617247
       4A    -20.582412     5A    -20.565214     6A    -20.564604
       7A    -20.562217     8A    -11.412482     9A    -11.408384
      10A    -11.403787    11A    -11.347778    12A    -11.276161
      13A    -11.265067    14A     -1.500339    15A     -1.474320
      16A     -1.471706    17A     -1.404772    18A     -1.372471
      19A     -1.370317    20A     -1.367751    21A     -1.121777
      22A     -1.041520    23A     -0.965196    24A     -0.873737
      25A     -0.832958    26A     -0.810323    27A     -0.769767
      28A     -0.725709    29A     -0.719765    30A     -0.717321
      31A     -0.706533    32A     -0.692972    33A     -0.671706
      34A     -0.654297    35A     -0.643933    36A     -0.638279
      37A     -0.620691    38A     -0.606862    39A     -0.596666
      40A     -0.582125    41A     -0.565094    42A     -0.563079
      43A     -0.547519    44A     -0.502052    45A     -0.496679
      46A     -0.491330    47A     -0.485040    48A     -0.474637
      49A     -0.466792    50A     -0.454843

  @DF-RHF Final Energy:  -756.24318345017377

   => Energetics <=

    Nuclear Repulsion Energy =            873.7547822303778275
    One-Electron Energy =               -2775.4739700157492734
    Two-Electron Energy =                1145.4760043351977856
    Total Energy =                       -756.2431834501737740
  Basis Set: (AUG-CC-PVTZ AUX)
    Blend: AUG-CC-PVTZ-RI
    Molecular point group: c1

    Geometry (in Angstrom), charge = 0, multiplicity = 1:

       Center              X                  Y                   Z               Mass
    ------------   -----------------  -----------------  -----------------  -----------------
         O           -0.313679928082     0.058112268436    -1.412025412754    15.994914619570
         O            1.237267771918     1.839570668436     1.347187987246    15.994914619570
         O            0.892607071918     2.363979268436    -0.769849412754    15.994914619570
         O            2.285343071918    -2.431708731564    -0.004250412754    15.994914619570
         O           -3.472075928082     0.066083268436    -0.540613412754    15.994914619570
         O            2.622307071918    -0.243787731564    -0.477630412754    15.994914619570
         O           -2.449827928082    -1.615995731564     0.577577587246    15.994914619570
         C           -0.121405928082     0.301652268436    -0.028666412754    12.000000000000
         C            0.545226071918    -0.930823731564     0.567907587246    12.000000000000
         C           -1.484606928082     0.610500268436     0.629780587246    12.000000000000
         C            0.731523071918     1.554798268436     0.128116587246    12.000000000000
         C            1.909191071918    -1.130849731564    -0.035906412754    12.000000000000
         C           -2.490565928082    -0.443697731564     0.241258587246    12.000000000000
         H           -0.082599928082    -1.804547731564     0.385397587246     1.007825032230
         H            0.658908071918    -0.825756731564     1.652693587246     1.007825032230
         H           -1.834781928082     1.587068268436     0.284332587246     1.007825032230
         H           -1.386465928082     0.629251268436     1.719733587246     1.007825032230
         H           -0.054681928082     0.884695268436    -1.870019412754     1.007825032230
         H            1.683279071918     2.559500268436     1.394434587246     1.007825032230
         H            3.186767071918    -2.456899731564    -0.388538412754     1.007825032230
         H           -4.054995928082    -0.691211731564    -0.759695412754     1.007825032230

  Basis Set: AUG-CC-PVTZ
    Blend: AUG-CC-PVTZ
  Basis Set: (AUG-CC-PVTZ AUX)
    Blend: AUG-CC-PVTZ-JKFIT
	 Reference Energy          =    -756.2431834501737740 [Eh]
	 Singles Energy            =      -0.0000000000000000 [Eh]
	 Same-Spin Energy          =      -0.7282063368009699 [Eh]
	 Opposite-Spin Energy      =      -2.1568130176519862 [Eh]
	 Correlation Energy        =      -2.8850193544529561 [Eh]
	 Total Energy              =    -759.1282028046267669 [Eh]

	 ================> DF-SCS-MP2 Energies <==================
	-----------------------------------------------------------
	 SCS Same-Spin Scale       =       0.3333333333333333 [-]
	 SCS Opposite-Spin Scale   =       1.2000000000000000 [-]
	 SCS Same-Spin Energy      =      -0.2427354456003233 [Eh]
	 SCS Opposite-Spin Energy  =      -2.5881756211823834 [Eh]
	 SCS Correlation Energy    =      -2.8309110667827069 [Eh]
	 SCS Total Energy          =    -759.0740945169565066 [Eh]
	-----------------------------------------------------------

  Dipole Moment: [D]
     X:    -0.3563      Y:     0.4692      Z:     1.7947     Total:     1.8889

*** Psi4 exiting successfully. Buy a developer a beer!
