                               Psi4 1.3.2 release

  ==> Input File <==

--------------------------------------------------------------------------
#psi4
#
memory 32 gb

molecule  {
0 1
  O       -0.2992330     0.0680890    -1.4276520
  O        1.1877390     1.7321380     1.3773370
  O        0.9070540     2.3739560    -0.7854760
  O        2.2997900    -2.4217320    -0.0198770
  O       -3.4576290     0.0760600    -0.5562400
  O        2.5439134    -0.1522169    -0.4607973
  O       -2.4353810    -1.6060190     0.5619510
  C       -0.1069590     0.3116290    -0.0442930
  C        0.5596730    -0.9208470     0.5522810
  C       -1.4701600     0.6204770     0.6141540
  C        0.7459700     1.5647750     0.1124900
  C        1.9236380    -1.1208730    -0.0515330
  C       -2.4761190    -0.4337210     0.2256320
  H       -0.0681530    -1.7945710     0.3697710
  H        0.6733550    -0.8157800     1.6370670
  H       -1.8203350     1.5970450     0.2687060
  H       -1.3720190     0.6392280     1.7041070
  H       -0.0402350     0.8946720    -1.8856460
  H        1.6977260     2.5694770     1.3788080
  H        3.2012140    -2.4469230    -0.4041650
  H       -4.0405490    -0.6812350    -0.7753220
units angstrom
no_reorient  #important for SAPT in psi4, default
symmetry c1  #important for SAPT in psi4, default
}

set PROPERTIES_ORIGIN ["COM"]
properties('MP2/aug-cc-pvtz', properties = ['dipole'])
--------------------------------------------------------------------------

    Molecular point group: c1
  Charge       = 0
  Multiplicity = 1
  Basis Set: AUG-CC-PVTZ
    Blend: AUG-CC-PVTZ
  Basis Set: (AUG-CC-PVTZ AUX)
    Blend: AUG-CC-PVTZ-JKFIT

    Orbital Energies [Eh]
    ---------------------

    Doubly Occupied:

       1A    -20.636071     2A    -20.634403     3A    -20.625127
       4A    -20.575346     5A    -20.566529     6A    -20.564085
       7A    -20.560527     8A    -11.408159     9A    -11.404683
      10A    -11.404174    11A    -11.336880    12A    -11.270632
      13A    -11.255985    14A     -1.482572    15A     -1.471940
      16A     -1.470533    17A     -1.396348    18A     -1.378201
      19A     -1.368164    20A     -1.365822    21A     -1.113002
      22A     -1.035039    23A     -0.950358    24A     -0.852592
      25A     -0.830667    26A     -0.793884    27A     -0.757209
      28A     -0.726800    29A     -0.720514    30A     -0.716286
      31A     -0.704392    32A     -0.689530    33A     -0.669101
      34A     -0.654941    35A     -0.641908    36A     -0.636451
      37A     -0.620919    38A     -0.603440    39A     -0.593508
      40A     -0.579372    41A     -0.560493    42A     -0.556911
      43A     -0.542743    44A     -0.504288    45A     -0.495415
      46A     -0.491861    47A     -0.482781    48A     -0.468624
      49A     -0.464186    50A     -0.450025

  @DF-RHF Final Energy:  -756.25392854819415

   => Energetics <=

    Nuclear Repulsion Energy =            877.0619033774660238
    One-Electron Energy =               -2782.4648249109795870
    Two-Electron Energy =                1149.1489929853194099
    Total Energy =                       -756.2539285481941533
  Basis Set: (AUG-CC-PVTZ AUX)
    Blend: AUG-CC-PVTZ-RI
    Molecular point group: c1

    Geometry (in Angstrom), charge = 0, multiplicity = 1:

       Center              X                  Y                   Z               Mass
    ------------   -----------------  -----------------  -----------------  -----------------
         O           -0.300617893600     0.061095508594    -1.418542032432    15.994914619570
         O            1.186354106400     1.725144508594     1.386446967568    15.994914619570
         O            0.905669106400     2.366962508594    -0.776366032432    15.994914619570
         O            2.298405106400    -2.428725491406    -0.010767032432    15.994914619570
         O           -3.459013893600     0.069066508594    -0.547130032432    15.994914619570
         O            2.542528506400    -0.159210391406    -0.451687332432    15.994914619570
         O           -2.436765893600    -1.613012491406     0.571060967568    15.994914619570
         C           -0.108343893600     0.304635508594    -0.035183032432    12.000000000000
         C            0.558288106400    -0.927840491406     0.561390967568    12.000000000000
         C           -1.471544893600     0.613483508594     0.623263967568    12.000000000000
         C            0.744585106400     1.557781508594     0.121599967568    12.000000000000
         C            1.922253106400    -1.127866491406    -0.042423032432    12.000000000000
         C           -2.477503893600    -0.440714491406     0.234741967568    12.000000000000
         H           -0.069537893600    -1.801564491406     0.378880967568     1.007825032230
         H            0.671970106400    -0.822773491406     1.646176967568     1.007825032230
         H           -1.821719893600     1.590051508594     0.277815967568     1.007825032230
         H           -1.373403893600     0.632234508594     1.713216967568     1.007825032230
         H           -0.041619893600     0.887678508594    -1.876536032432     1.007825032230
         H            1.696341106400     2.562483508594     1.387917967568     1.007825032230
         H            3.199829106400    -2.453916491406    -0.395055032432     1.007825032230
         H           -4.041933893600    -0.688228491406    -0.766212032432     1.007825032230

  Basis Set: AUG-CC-PVTZ
    Blend: AUG-CC-PVTZ
  Basis Set: (AUG-CC-PVTZ AUX)
    Blend: AUG-CC-PVTZ-JKFIT
	 Reference Energy          =    -756.2539285481941533 [Eh]
	 Singles Energy            =      -0.0000000000000000 [Eh]
	 Same-Spin Energy          =      -0.7311275245929418 [Eh]
	 Opposite-Spin Energy      =      -2.1625961743765498 [Eh]
	 Correlation Energy        =      -2.8937236989694917 [Eh]
	 Total Energy              =    -759.1476522471635917 [Eh]

	 ================> DF-SCS-MP2 Energies <==================
	-----------------------------------------------------------
	 SCS Same-Spin Scale       =       0.3333333333333333 [-]
	 SCS Opposite-Spin Scale   =       1.2000000000000000 [-]
	 SCS Same-Spin Energy      =      -0.2437091748643139 [Eh]
	 SCS Opposite-Spin Energy  =      -2.5951154092518598 [Eh]
	 SCS Correlation Energy    =      -2.8388245841161739 [Eh]
	 SCS Total Energy          =    -759.0927531323103494 [Eh]
	-----------------------------------------------------------

  Dipole Moment: [D]
     X:     0.2207      Y:     0.4393      Z:     1.7587     Total:     1.8261

*** Psi4 exiting successfully. Buy a developer a beer!
