                               Psi4 1.3.2 release

  ==> Input File <==

--------------------------------------------------------------------------
#psi4
#
memory 32 gb

molecule  {
0 1
  O       -0.2992330     0.0680890    -1.4276520
  O        1.1877390     1.7321380     1.3773370
  O        0.9070540     2.3739560    -0.7854760
  O        2.2997900    -2.4217320    -0.0198770
  O       -3.4576290     0.0760600    -0.5562400
  O        2.6367540    -0.2338110    -0.4932570
  O       -2.4353810    -1.6060190     0.5619510
  C       -0.1069590     0.3116290    -0.0442930
  C        0.5596730    -0.9208470     0.5522810
  C       -1.4701600     0.6204770     0.6141540
  C        0.7891405     1.6455376     0.0902365
  C        1.9236380    -1.1208730    -0.0515330
  C       -2.4761190    -0.4337210     0.2256320
  H       -0.0681530    -1.7945710     0.3697710
  H        0.6733550    -0.8157800     1.6370670
  H       -1.8203350     1.5970450     0.2687060
  H       -1.3720190     0.6392280     1.7041070
  H       -0.0402350     0.8946720    -1.8856460
  H        1.6977260     2.5694770     1.3788080
  H        3.2012140    -2.4469230    -0.4041650
  H       -4.0405490    -0.6812350    -0.7753220
units angstrom
no_reorient  #important for SAPT in psi4, default
symmetry c1  #important for SAPT in psi4, default
}

set PROPERTIES_ORIGIN ["COM"]
properties('MP2/aug-cc-pvtz', properties = ['dipole'])
--------------------------------------------------------------------------

    Molecular point group: c1
  Charge       = 0
  Multiplicity = 1
  Basis Set: AUG-CC-PVTZ
    Blend: AUG-CC-PVTZ
  Basis Set: (AUG-CC-PVTZ AUX)
    Blend: AUG-CC-PVTZ-JKFIT

    Orbital Energies [Eh]
    ---------------------

    Doubly Occupied:

       1A    -20.638160     2A    -20.623998     3A    -20.622805
       4A    -20.582736     5A    -20.574248     6A    -20.559074
       7A    -20.558545     8A    -11.404220     9A    -11.402402
      10A    -11.399535    11A    -11.334577    12A    -11.267453
      13A    -11.256589    14A     -1.508758    15A     -1.469402
      16A     -1.468148    17A     -1.419962    18A     -1.383722
      19A     -1.365635    20A     -1.364407    21A     -1.105015
      22A     -1.033534    23A     -0.932245    24A     -0.847894
      25A     -0.826194    26A     -0.787992    27A     -0.761731
      28A     -0.736491    29A     -0.716389    30A     -0.713901
      31A     -0.703556    32A     -0.690555    33A     -0.666105
      34A     -0.660436    35A     -0.652223    36A     -0.641776
      37A     -0.623598    38A     -0.601514    39A     -0.593717
      40A     -0.578673    41A     -0.558361    42A     -0.555327
      43A     -0.551998    44A     -0.528437    45A     -0.492199
      46A     -0.488835    47A     -0.482364    48A     -0.466508
      49A     -0.462004    50A     -0.440737

  @DF-RHF Final Energy:  -756.25152589396612

   => Energetics <=

    Nuclear Repulsion Energy =            873.9374472020867870
    One-Electron Energy =               -2776.1685809978744146
    Two-Electron Energy =                1145.9796079018215096
    Total Energy =                       -756.2515258939661180
  Basis Set: (AUG-CC-PVTZ AUX)
    Blend: AUG-CC-PVTZ-RI
    Molecular point group: c1

    Geometry (in Angstrom), charge = 0, multiplicity = 1:

       Center              X                  Y                   Z               Mass
    ------------   -----------------  -----------------  -----------------  -----------------
         O           -0.311048840514     0.062844947258    -1.414447649249    15.994914619570
         O            1.175923159486     1.726893947258     1.390541350751    15.994914619570
         O            0.895238159486     2.368711947258    -0.772271649249    15.994914619570
         O            2.287974159486    -2.426976052742    -0.006672649249    15.994914619570
         O           -3.469444840514     0.070815947258    -0.543035649249    15.994914619570
         O            2.624938159486    -0.239055052742    -0.480052649249    15.994914619570
         O           -2.447196840514    -1.611263052742     0.575155350751    15.994914619570
         C           -0.118774840514     0.306384947258    -0.031088649249    12.000000000000
         C            0.547857159486    -0.926091052742     0.565485350751    12.000000000000
         C           -1.481975840514     0.615232947258     0.627358350751    12.000000000000
         C            0.777324659486     1.640293547258     0.103440850751    12.000000000000
         C            1.911822159486    -1.126117052742    -0.038328649249    12.000000000000
         C           -2.487934840514    -0.438965052742     0.238836350751    12.000000000000
         H           -0.079968840514    -1.799815052742     0.382975350751     1.007825032230
         H            0.661539159486    -0.821024052742     1.650271350751     1.007825032230
         H           -1.832150840514     1.591800947258     0.281910350751     1.007825032230
         H           -1.383834840514     0.633983947258     1.717311350751     1.007825032230
         H           -0.052050840514     0.889427947258    -1.872441649249     1.007825032230
         H            1.685910159486     2.564232947258     1.392012350751     1.007825032230
         H            3.189398159486    -2.452167052742    -0.390960649249     1.007825032230
         H           -4.052364840514    -0.686479052742    -0.762117649249     1.007825032230

  Basis Set: AUG-CC-PVTZ
    Blend: AUG-CC-PVTZ
  Basis Set: (AUG-CC-PVTZ AUX)
    Blend: AUG-CC-PVTZ-JKFIT
	 Reference Energy          =    -756.2515258939661180 [Eh]
	 Singles Energy            =      -0.0000000000000000 [Eh]
	 Same-Spin Energy          =      -0.7289096087132885 [Eh]
	 Opposite-Spin Energy      =      -2.1583935782788579 [Eh]
	 Correlation Energy        =      -2.8873031869921464 [Eh]
	 Total Energy              =    -759.1388290809583168 [Eh]

	 ================> DF-SCS-MP2 Energies <==================
	-----------------------------------------------------------
	 SCS Same-Spin Scale       =       0.3333333333333333 [-]
	 SCS Opposite-Spin Scale   =       1.2000000000000000 [-]
	 SCS Same-Spin Energy      =      -0.2429698695710961 [Eh]
	 SCS Opposite-Spin Energy  =      -2.5900722939346292 [Eh]
	 SCS Correlation Energy    =      -2.8330421635057252 [Eh]
	 SCS Total Energy          =    -759.0845680574718699 [Eh]
	-----------------------------------------------------------

  Dipole Moment: [D]
     X:     0.0640      Y:     1.2201      Z:     1.6817     Total:     2.0787

*** Psi4 exiting successfully. Buy a developer a beer!
