                               Psi4 1.3.2 release

  ==> Input File <==

--------------------------------------------------------------------------
#psi4
#
memory 32 gb

molecule  {
0 1
  O       -0.2992330     0.0680890    -1.4276520
  O        1.1877390     1.7321380     1.3773370
  O        0.9070540     2.3739560    -0.7854760
  O        2.2997900    -2.4217320    -0.0198770
  O       -3.4576290     0.0760600    -0.5562400
  O        2.6367540    -0.2338110    -0.4932570
  O       -2.4353810    -1.6060190     0.5619510
  C       -0.1069590     0.3116290    -0.0442930
  C        0.5596730    -0.9208470     0.5522810
  C       -1.4701600     0.6204770     0.6141540
  C        0.7459700     1.5647750     0.1124900
  C        1.9236380    -1.1208730    -0.0515330
  C       -2.4761190    -0.4337210     0.2256320
  H       -0.0681530    -1.7945710     0.3697710
  H        0.6733550    -0.8157800     1.6370670
  H       -1.8203350     1.5970450     0.2687060
  H       -1.3720190     0.6392280     1.7041070
  H       -0.0402350     0.8946720    -1.8856460
  H        1.5936917     2.3986649     1.3785079
  H        3.2012140    -2.4469230    -0.4041650
  H       -4.0405490    -0.6812350    -0.7753220
units angstrom
no_reorient  #important for SAPT in psi4, default
symmetry c1  #important for SAPT in psi4, default
}

set PROPERTIES_ORIGIN ["COM"]
properties('MP2/aug-cc-pvtz', properties = ['dipole'])
--------------------------------------------------------------------------

    Molecular point group: c1
  Charge       = 0
  Multiplicity = 1
  Basis Set: AUG-CC-PVTZ
    Blend: AUG-CC-PVTZ
  Basis Set: (AUG-CC-PVTZ AUX)
    Blend: AUG-CC-PVTZ-JKFIT

    Orbital Energies [Eh]
    ---------------------

    Doubly Occupied:

       1A    -20.627862     2A    -20.626054     3A    -20.622254
       4A    -20.579753     5A    -20.575653     6A    -20.563708
       7A    -20.562367     8A    -11.415801     9A    -11.407469
      10A    -11.403664    11A    -11.342136    12A    -11.274819
      13A    -11.263492    14A     -1.529818    15A     -1.473583
      16A     -1.471778    17A     -1.412593    18A     -1.379712
      19A     -1.369859    20A     -1.368137    21A     -1.121604
      22A     -1.040455    23A     -0.972818    24A     -0.874753
      25A     -0.832300    26A     -0.808570    27A     -0.766519
      28A     -0.741541    29A     -0.720734    30A     -0.717444
      31A     -0.708095    32A     -0.692775    33A     -0.670861
      34A     -0.659229    35A     -0.651688    36A     -0.642852
      37A     -0.625110    38A     -0.606719    39A     -0.597215
      40A     -0.581956    41A     -0.563785    42A     -0.561543
      43A     -0.551054    44A     -0.511713    45A     -0.496317
      46A     -0.492228    47A     -0.488452    48A     -0.473532
      49A     -0.467058    50A     -0.454415

  @DF-RHF Final Energy:  -756.21449574091071

   => Energetics <=

    Nuclear Repulsion Energy =            876.2935860089472726
    One-Electron Energy =               -2780.2884696696442006
    Two-Electron Energy =                1147.7803879197861079
    Total Energy =                       -756.2144957409107064
  Basis Set: (AUG-CC-PVTZ AUX)
    Blend: AUG-CC-PVTZ-RI
    Molecular point group: c1

    Geometry (in Angstrom), charge = 0, multiplicity = 1:

       Center              X                  Y                   Z               Mass
    ------------   -----------------  -----------------  -----------------  -----------------
         O           -0.307805055196     0.068788381748    -1.415836722390    15.994914619570
         O            1.179166944804     1.732837381748     1.389152277610    15.994914619570
         O            0.898481944804     2.374655381748    -0.773660722390    15.994914619570
         O            2.291217944804    -2.421032618252    -0.008061722390    15.994914619570
         O           -3.466201055196     0.076759381748    -0.544424722390    15.994914619570
         O            2.628181944804    -0.233111618252    -0.481441722390    15.994914619570
         O           -2.443953055196    -1.605319618252     0.573766277610    15.994914619570
         C           -0.115531055196     0.312328381748    -0.032477722390    12.000000000000
         C            0.551100944804    -0.920147618252     0.564096277610    12.000000000000
         C           -1.478732055196     0.621176381748     0.625969277610    12.000000000000
         C            0.737397944804     1.565474381748     0.124305277610    12.000000000000
         C            1.915065944804    -1.120173618252    -0.039717722390    12.000000000000
         C           -2.484691055196    -0.433021618252     0.237447277610    12.000000000000
         H           -0.076725055196    -1.793871618252     0.381586277610     1.007825032230
         H            0.664782944804    -0.815080618252     1.648882277610     1.007825032230
         H           -1.828907055196     1.597744381748     0.280521277610     1.007825032230
         H           -1.380591055196     0.639927381748     1.715922277610     1.007825032230
         H           -0.048807055196     0.895371381748    -1.873830722390     1.007825032230
         H            1.585119644804     2.399364281748     1.390323177610     1.007825032230
         H            3.192641944804    -2.446223618252    -0.392349722390     1.007825032230
         H           -4.049121055196    -0.680535618252    -0.763506722390     1.007825032230

  Basis Set: AUG-CC-PVTZ
    Blend: AUG-CC-PVTZ
  Basis Set: (AUG-CC-PVTZ AUX)
    Blend: AUG-CC-PVTZ-JKFIT
	 Reference Energy          =    -756.2144957409107064 [Eh]
	 Singles Energy            =      -0.0000000000000000 [Eh]
	 Same-Spin Energy          =      -0.7280790173397904 [Eh]
	 Opposite-Spin Energy      =      -2.1563161374124071 [Eh]
	 Correlation Energy        =      -2.8843951547521973 [Eh]
	 Total Energy              =    -759.0988908956628620 [Eh]

	 ================> DF-SCS-MP2 Energies <==================
	-----------------------------------------------------------
	 SCS Same-Spin Scale       =       0.3333333333333333 [-]
	 SCS Opposite-Spin Scale   =       1.2000000000000000 [-]
	 SCS Same-Spin Energy      =      -0.2426930057799301 [Eh]
	 SCS Opposite-Spin Energy  =      -2.5875793648948884 [Eh]
	 SCS Correlation Energy    =      -2.8302723706748187 [Eh]
	 SCS Total Energy          =    -759.0447681115855403 [Eh]
	-----------------------------------------------------------

  Dipole Moment: [D]
     X:    -0.3335      Y:     0.5095      Z:     1.7657     Total:     1.8677

*** Psi4 exiting successfully. Buy a developer a beer!
