                               Psi4 1.3.2 release

  ==> Input File <==

--------------------------------------------------------------------------
#psi4
#
memory 32 gb

molecule  {
0 1
  O       -0.2448849     0.1487538    -1.4458676
  O        1.1877390     1.7321380     1.3773370
  O        0.9070540     2.3739560    -0.7854760
  O        2.2997900    -2.4217320    -0.0198770
  O       -3.4576290     0.0760600    -0.5562400
  O        2.6367540    -0.2338110    -0.4932570
  O       -2.4353810    -1.6060190     0.5619510
  C       -0.1069590     0.3116290    -0.0442930
  C        0.5596730    -0.9208470     0.5522810
  C       -1.4701600     0.6204770     0.6141540
  C        0.7459700     1.5647750     0.1124900
  C        1.9236380    -1.1208730    -0.0515330
  C       -2.4761190    -0.4337210     0.2256320
  H       -0.0681530    -1.7945710     0.3697710
  H        0.6733550    -0.8157800     1.6370670
  H       -1.8203350     1.5970450     0.2687060
  H       -1.3720190     0.6392280     1.7041070
  H       -0.0402350     0.8946720    -1.8856460
  H        1.6977260     2.5694770     1.3788080
  H        3.2012140    -2.4469230    -0.4041650
  H       -4.0405490    -0.6812350    -0.7753220
units angstrom
no_reorient  #important for SAPT in psi4, default
symmetry c1  #important for SAPT in psi4, default
}

set PROPERTIES_ORIGIN ["COM"]
properties('MP2/aug-cc-pvtz', properties = ['dipole'])
--------------------------------------------------------------------------

    Molecular point group: c1
  Charge       = 0
  Multiplicity = 1
  Basis Set: AUG-CC-PVTZ
    Blend: AUG-CC-PVTZ
  Basis Set: (AUG-CC-PVTZ AUX)
    Blend: AUG-CC-PVTZ-JKFIT

    Orbital Energies [Eh]
    ---------------------

    Doubly Occupied:

       1A    -20.635709     2A    -20.628311     3A    -20.625323
       4A    -20.567777     5A    -20.567159     6A    -20.564308
       7A    -20.560956     8A    -11.408076     9A    -11.407727
      10A    -11.402687    11A    -11.343306    12A    -11.275100
      13A    -11.264381    14A     -1.484122    15A     -1.473863
      16A     -1.470282    17A     -1.411221    18A     -1.371696
      19A     -1.370143    20A     -1.367061    21A     -1.123372
      22A     -1.040262    23A     -0.953460    24A     -0.855681
      25A     -0.831812    26A     -0.806977    27A     -0.762629
      28A     -0.726970    29A     -0.719325    30A     -0.716520
      31A     -0.707410    32A     -0.693127    33A     -0.669461
      34A     -0.654678    35A     -0.650132    36A     -0.637306
      37A     -0.622312    38A     -0.605427    39A     -0.596068
      40A     -0.581154    41A     -0.568367    42A     -0.560023
      43A     -0.541434    44A     -0.503848    45A     -0.496355
      46A     -0.490571    47A     -0.485332    48A     -0.473999
      49A     -0.465370    50A     -0.452227

  @DF-RHF Final Energy:  -756.25401399356508

   => Energetics <=

    Nuclear Repulsion Energy =            875.0335667595874156
    One-Electron Energy =               -2778.1935282073181952
    Two-Electron Energy =                1146.9059474541656982
    Total Energy =                       -756.2540139935651951
  Basis Set: (AUG-CC-PVTZ AUX)
    Blend: AUG-CC-PVTZ-RI
    Molecular point group: c1

    Geometry (in Angstrom), charge = 0, multiplicity = 1:

       Center              X                  Y                   Z               Mass
    ------------   -----------------  -----------------  -----------------  -----------------
         O           -0.258529895865     0.141837714761    -1.432536626605    15.994914619570
         O            1.174094004135     1.725221914761     1.390667973395    15.994914619570
         O            0.893409004135     2.367039914761    -0.772145026605    15.994914619570
         O            2.286145004135    -2.428648085239    -0.006546026605    15.994914619570
         O           -3.471273995865     0.069143914761    -0.542909026605    15.994914619570
         O            2.623109004135    -0.240727085239    -0.479926026605    15.994914619570
         O           -2.449025995865    -1.612935085239     0.575281973395    15.994914619570
         C           -0.120603995865     0.304712914761    -0.030962026605    12.000000000000
         C            0.546028004135    -0.927763085239     0.565611973395    12.000000000000
         C           -1.483804995865     0.613560914761     0.627484973395    12.000000000000
         C            0.732325004135     1.557858914761     0.125820973395    12.000000000000
         C            1.909993004135    -1.127789085239    -0.038202026605    12.000000000000
         C           -2.489763995865    -0.440637085239     0.238962973395    12.000000000000
         H           -0.081797995865    -1.801487085239     0.383101973395     1.007825032230
         H            0.659710004135    -0.822696085239     1.650397973395     1.007825032230
         H           -1.833979995865     1.590128914761     0.282036973395     1.007825032230
         H           -1.385663995865     0.632311914761     1.717437973395     1.007825032230
         H           -0.053879995865     0.887755914761    -1.872315026605     1.007825032230
         H            1.684081004135     2.562560914761     1.392138973395     1.007825032230
         H            3.187569004135    -2.453839085239    -0.390834026605     1.007825032230
         H           -4.054193995865    -0.688151085239    -0.761991026605     1.007825032230

  Basis Set: AUG-CC-PVTZ
    Blend: AUG-CC-PVTZ
  Basis Set: (AUG-CC-PVTZ AUX)
    Blend: AUG-CC-PVTZ-JKFIT
	 Reference Energy          =    -756.2540139935650814 [Eh]
	 Singles Energy            =      -0.0000000000000000 [Eh]
	 Same-Spin Energy          =      -0.7291497872436932 [Eh]
	 Opposite-Spin Energy      =      -2.1584963005779230 [Eh]
	 Correlation Energy        =      -2.8876460878216159 [Eh]
	 Total Energy              =    -759.1416600813867035 [Eh]

	 ================> DF-SCS-MP2 Energies <==================
	-----------------------------------------------------------
	 SCS Same-Spin Scale       =       0.3333333333333333 [-]
	 SCS Opposite-Spin Scale   =       1.2000000000000000 [-]
	 SCS Same-Spin Energy      =      -0.2430499290812310 [Eh]
	 SCS Opposite-Spin Energy  =      -2.5901955606935076 [Eh]
	 SCS Correlation Energy    =      -2.8332454897747388 [Eh]
	 SCS Total Energy          =    -759.0872594833398352 [Eh]
	-----------------------------------------------------------

  Dipole Moment: [D]
     X:    -0.2954      Y:     0.5875      Z:     1.9259     Total:     2.0351

*** Psi4 exiting successfully. Buy a developer a beer!
