                               Psi4 1.4a3.dev225

  ==> Input File <==

--------------------------------------------------------------------------
#psi4
#
memory 32 gb

molecule  {
0 1
  O       -0.2992690     0.0680640    -1.4275900
  O        1.1877140     1.7322170     1.3773330
  O        0.9070830     2.3739170    -0.7855270
  O        2.2997080    -2.4217750    -0.0198700
  O       -3.4574230     0.0760400    -0.5564670
  O        2.6367000    -0.2338780    -0.4933410
  O       -2.4354340    -1.6059620     0.5620860
  C       -0.1069630     0.3116450    -0.0442490
  C        0.5596710    -0.9208170     0.5523550
  C       -1.4701590     0.6204980     0.6142450
  C        0.7623208     1.5709901     0.1593186
  C        1.9235890    -1.1209070    -0.0515450
  C       -2.4760910    -0.4336940     0.2256510
  H       -0.0681940    -1.7945300     0.3699280
  H        0.6734230    -0.8156830     1.6371260
  H       -1.8203340     1.5970830     0.2688470
  H       -1.3719830     0.6391850     1.7041930
  H       -0.0401320     0.8945830    -1.8856220
  H        1.6977060     2.5695530     1.3787680
  H        3.2011100    -2.4470060    -0.4042100
  H       -4.0402960    -0.6812640    -0.7756360
units angstrom
no_reorient  #important for SAPT in psi4, default
symmetry c1  #important for SAPT in psi4, default
}

set PROPERTIES_ORIGIN ["COM"]
properties('MP2/aug-cc-pvtz', properties = ['dipole'])
--------------------------------------------------------------------------

    Molecular point group: c1
  Charge       = 0
  Multiplicity = 1
  Basis Set: AUG-CC-PVTZ
    Blend: AUG-CC-PVTZ
  Basis Set: (AUG-CC-PVTZ AUX)
    Blend: AUG-CC-PVTZ-JKFIT

    Orbital Energies [Eh]
    ---------------------

    Doubly Occupied:

       1A    -20.652485     2A    -20.626116     3A    -20.624824
       4A    -20.576801     5A    -20.562753     6A    -20.561854
       7A    -20.560838     8A    -11.412738     9A    -11.405442
      10A    -11.402101    11A    -11.340198    12A    -11.272217
      13A    -11.261154    14A     -1.505784    15A     -1.471763
      16A     -1.470330    17A     -1.396586    18A     -1.368244
      19A     -1.367101    20A     -1.358554    21A     -1.115622
      22A     -1.038249    23A     -0.952652    24A     -0.860750
      25A     -0.830032    26A     -0.798529    27A     -0.763829
      28A     -0.731589    29A     -0.718298    30A     -0.715864
      31A     -0.705987    32A     -0.689799    33A     -0.668342
      34A     -0.660383    35A     -0.644577    36A     -0.640142
      37A     -0.621361    38A     -0.604590    39A     -0.595373
      40A     -0.579780    41A     -0.561792    42A     -0.558528
      43A     -0.539530    44A     -0.498700    45A     -0.493674
      46A     -0.489505    47A     -0.482298    48A     -0.470486
      49A     -0.463496    50A     -0.449603

  @DF-RHF Final Energy:  -756.25390715076696

   => Energetics <=

    Nuclear Repulsion Energy =            874.4532687940695723
    One-Electron Energy =               -2777.1318632092056760
    Two-Electron Energy =                1146.4246872643691404
    Total Energy =                       -756.2539071507669632
  Basis Set: (AUG-CC-PVTZ AUX)
    Blend: AUG-CC-PVTZ-RI
    Molecular point group: c1

    Geometry (in Angstrom), charge = 0, multiplicity = 1:

       Center              X                  Y                   Z               Mass
    ------------   -----------------  -----------------  -----------------  -----------------
         O           -0.309407524287     0.067479550493    -1.418703034537    15.994914619570
         O            1.177575475713     1.731632550493     1.386219965463    15.994914619570
         O            0.896944475713     2.373332550493    -0.776640034537    15.994914619570
         O            2.289569475713    -2.422359449507    -0.010983034537    15.994914619570
         O           -3.467561524287     0.075455550493    -0.547580034537    15.994914619570
         O            2.626561475713    -0.234462449507    -0.484454034537    15.994914619570
         O           -2.445572524287    -1.606546449507     0.570972965463    15.994914619570
         C           -0.117101524287     0.311060550493    -0.035362034537    12.000000000000
         C            0.549532475713    -0.921401449507     0.561241965463    12.000000000000
         C           -1.480297524287     0.619913550493     0.623131965463    12.000000000000
         C            0.752182275713     1.570405650493     0.168205565463    12.000000000000
         C            1.913450475713    -1.121491449507    -0.042658034537    12.000000000000
         C           -2.486229524287    -0.434278449507     0.234537965463    12.000000000000
         H           -0.078332524287    -1.795114449507     0.378814965463     1.007825032230
         H            0.663284475713    -0.816267449507     1.646012965463     1.007825032230
         H           -1.830472524287     1.596498550493     0.277733965463     1.007825032230
         H           -1.382121524287     0.638600550493     1.713079965463     1.007825032230
         H           -0.050270524287     0.893998550493    -1.876735034537     1.007825032230
         H            1.687567475713     2.568968550493     1.387654965463     1.007825032230
         H            3.190971475713    -2.447590449507    -0.395323034537     1.007825032230
         H           -4.050434524287    -0.681848449507    -0.766749034537     1.007825032230

  Basis Set: AUG-CC-PVTZ
    Blend: AUG-CC-PVTZ
  Basis Set: (AUG-CC-PVTZ AUX)
    Blend: AUG-CC-PVTZ-JKFIT
	 Reference Energy          =    -756.2539071507669632 [Eh]
	 Singles Energy            =      -0.0000000000000000 [Eh]
	 Same-Spin Energy          =      -0.7308884266962001 [Eh]
	 Opposite-Spin Energy      =      -2.1617584714203608 [Eh]
	 Correlation Energy        =      -2.8926468981165607 [Eh]
	 Total Energy              =    -759.1465540488835586 [Eh]

	 ================> DF-SCS-MP2 Energies <==================
	-----------------------------------------------------------
	 SCS Same-Spin Scale       =       0.3333333333333333 [-]
	 SCS Opposite-Spin Scale   =       1.2000000000000000 [-]
	 SCS Same-Spin Energy      =      -0.2436294755654000 [Eh]
	 SCS Opposite-Spin Energy  =      -2.5941101657044330 [Eh]
	 SCS Correlation Energy    =      -2.8377396412698328 [Eh]
	 SCS Total Energy          =    -759.0916467920368405 [Eh]
	-----------------------------------------------------------

  Dipole Moment: [D]
     X:    -0.0372      Y:     0.7795      Z:     2.2025     Total:     2.3366

*** Psi4 exiting successfully. Buy a developer a beer!
