                               Psi4 1.3.2 release

  ==> Input File <==

--------------------------------------------------------------------------
#psi4
#
memory 32 gb

molecule  {
0 1
  O       -0.2992330     0.0680890    -1.4276520
  O        1.1877390     1.7321380     1.3773370
  O        0.9070540     2.3739560    -0.7854760
  O        2.2997900    -2.4217320    -0.0198770
  O       -3.4576290     0.0760600    -0.5562400
  O        2.6066267    -0.2054867    -0.4829583
  O       -2.4353810    -1.6060190     0.5619510
  C       -0.1069590     0.3116290    -0.0442930
  C        0.5596730    -0.9208470     0.5522810
  C       -1.4701600     0.6204770     0.6141540
  C        0.7459700     1.5647750     0.1124900
  C        1.9236380    -1.1208730    -0.0515330
  C       -2.4761190    -0.4337210     0.2256320
  H       -0.0681530    -1.7945710     0.3697710
  H        0.6733550    -0.8157800     1.6370670
  H       -1.8203350     1.5970450     0.2687060
  H       -1.3720190     0.6392280     1.7041070
  H       -0.0402350     0.8946720    -1.8856460
  H        1.6977260     2.5694770     1.3788080
  H        3.2012140    -2.4469230    -0.4041650
  H       -4.0405490    -0.6812350    -0.7753220
units angstrom
no_reorient  #important for SAPT in psi4, default
symmetry c1  #important for SAPT in psi4, default
}

set PROPERTIES_ORIGIN ["COM"]
properties('MP2/aug-cc-pvtz', properties = ['dipole'])
--------------------------------------------------------------------------

    Molecular point group: c1
  Charge       = 0
  Multiplicity = 1
  Basis Set: AUG-CC-PVTZ
    Blend: AUG-CC-PVTZ
  Basis Set: (AUG-CC-PVTZ AUX)
    Blend: AUG-CC-PVTZ-JKFIT

    Orbital Energies [Eh]
    ---------------------

    Doubly Occupied:

       1A    -20.636960     2A    -20.628781     3A    -20.626357
       4A    -20.577345     5A    -20.569780     6A    -20.562100
       7A    -20.561994     8A    -11.410384     9A    -11.405655
      10A    -11.403126    11A    -11.339535    12A    -11.272506
      13A    -11.260081    14A     -1.484583    15A     -1.471855
      16A     -1.470715    17A     -1.398119    18A     -1.372667
      19A     -1.369333    20A     -1.367323    21A     -1.115756
      22A     -1.037751    23A     -0.951970    24A     -0.853029
      25A     -0.830499    26A     -0.795030    27A     -0.759130
      28A     -0.727393    29A     -0.717819    30A     -0.717691
      31A     -0.704982    32A     -0.690616    33A     -0.669176
      34A     -0.654079    35A     -0.643728    36A     -0.637385
      37A     -0.622174    38A     -0.604254    39A     -0.594746
      40A     -0.580138    41A     -0.561678    42A     -0.558611
      43A     -0.544903    44A     -0.505197    45A     -0.494736
      46A     -0.491776    47A     -0.484930    48A     -0.470993
      49A     -0.465305    50A     -0.451835

  @DF-RHF Final Energy:  -756.25744086541943

   => Energetics <=

    Nuclear Repulsion Energy =            875.4174047517439021
    One-Electron Energy =               -2779.0966752064728098
    Two-Electron Energy =                1147.4218295893092545
    Total Energy =                       -756.2574408654195395
  Basis Set: (AUG-CC-PVTZ AUX)
    Blend: AUG-CC-PVTZ-RI
    Molecular point group: c1

    Geometry (in Angstrom), charge = 0, multiplicity = 1:

       Center              X                  Y                   Z               Mass
    ------------   -----------------  -----------------  -----------------  -----------------
         O           -0.305841606231     0.065532623642    -1.416696129001    15.994914619570
         O            1.181130393769     1.729581623642     1.388292870999    15.994914619570
         O            0.900445393769     2.371399623642    -0.774520129001    15.994914619570
         O            2.293181393769    -2.424288376358    -0.008921129001    15.994914619570
         O           -3.464237606231     0.073503623642    -0.545284129001    15.994914619570
         O            2.600018093769    -0.208043076358    -0.472002429001    15.994914619570
         O           -2.441989606231    -1.608575376358     0.572906870999    15.994914619570
         C           -0.113567606231     0.309072623642    -0.033337129001    12.000000000000
         C            0.553064393769    -0.923403376358     0.563236870999    12.000000000000
         C           -1.476768606231     0.617920623642     0.625109870999    12.000000000000
         C            0.739361393769     1.562218623642     0.123445870999    12.000000000000
         C            1.917029393769    -1.123429376358    -0.040577129001    12.000000000000
         C           -2.482727606231    -0.436277376358     0.236587870999    12.000000000000
         H           -0.074761606231    -1.797127376358     0.380726870999     1.007825032230
         H            0.666746393769    -0.818336376358     1.648022870999     1.007825032230
         H           -1.826943606231     1.594488623642     0.279661870999     1.007825032230
         H           -1.378627606231     0.636671623642     1.715062870999     1.007825032230
         H           -0.046843606231     0.892115623642    -1.874690129001     1.007825032230
         H            1.691117393769     2.566920623642     1.389763870999     1.007825032230
         H            3.194605393769    -2.449479376358    -0.393209129001     1.007825032230
         H           -4.047157606231    -0.683791376358    -0.764366129001     1.007825032230

  Basis Set: AUG-CC-PVTZ
    Blend: AUG-CC-PVTZ
  Basis Set: (AUG-CC-PVTZ AUX)
    Blend: AUG-CC-PVTZ-JKFIT
	 Reference Energy          =    -756.2574408654194258 [Eh]
	 Singles Energy            =      -0.0000000000000000 [Eh]
	 Same-Spin Energy          =      -0.7307119581163166 [Eh]
	 Opposite-Spin Energy      =      -2.1618734383795144 [Eh]
	 Correlation Energy        =      -2.8925853964958312 [Eh]
	 Total Energy              =    -759.1500262619152863 [Eh]

	 ================> DF-SCS-MP2 Energies <==================
	-----------------------------------------------------------
	 SCS Same-Spin Scale       =       0.3333333333333333 [-]
	 SCS Opposite-Spin Scale   =       1.2000000000000000 [-]
	 SCS Same-Spin Energy      =      -0.2435706527054389 [Eh]
	 SCS Opposite-Spin Energy  =      -2.5942481260554171 [Eh]
	 SCS Correlation Energy    =      -2.8378187787608562 [Eh]
	 SCS Total Energy          =    -759.0952596441802598 [Eh]
	-----------------------------------------------------------

  Dipole Moment: [D]
     X:    -0.0411      Y:     0.6377      Z:     1.8277     Total:     1.9362

*** Psi4 exiting successfully. Buy a developer a beer!
