                               Psi4 1.3.2 release

  ==> Input File <==

--------------------------------------------------------------------------
#psi4
#
memory 32 gb

molecule  {
0 1
  O       -0.2992330     0.0680890    -1.4276520
  O        1.1877390     1.7321380     1.3773370
  O        0.8320722     2.2994344    -0.8570082
  O        2.2997900    -2.4217320    -0.0198770
  O       -3.4576290     0.0760600    -0.5562400
  O        2.6367540    -0.2338110    -0.4932570
  O       -2.4353810    -1.6060190     0.5619510
  C       -0.1069590     0.3116290    -0.0442930
  C        0.5596730    -0.9208470     0.5522810
  C       -1.4701600     0.6204770     0.6141540
  C        0.7459700     1.5647750     0.1124900
  C        1.9236380    -1.1208730    -0.0515330
  C       -2.4761190    -0.4337210     0.2256320
  H       -0.0681530    -1.7945710     0.3697710
  H        0.6733550    -0.8157800     1.6370670
  H       -1.8203350     1.5970450     0.2687060
  H       -1.3720190     0.6392280     1.7041070
  H       -0.0402350     0.8946720    -1.8856460
  H        1.6977260     2.5694770     1.3788080
  H        3.2012140    -2.4469230    -0.4041650
  H       -4.0405490    -0.6812350    -0.7753220
units angstrom
no_reorient  #important for SAPT in psi4, default
symmetry c1  #important for SAPT in psi4, default
}

set PROPERTIES_ORIGIN ["COM"]
properties('MP2/aug-cc-pvtz', properties = ['dipole'])
--------------------------------------------------------------------------

    Molecular point group: c1
  Charge       = 0
  Multiplicity = 1
  Basis Set: AUG-CC-PVTZ
    Blend: AUG-CC-PVTZ
  Basis Set: (AUG-CC-PVTZ AUX)
    Blend: AUG-CC-PVTZ-JKFIT

    Orbital Energies [Eh]
    ---------------------

    Doubly Occupied:

       1A    -20.648752     2A    -20.624960     3A    -20.624001
       4A    -20.574158     5A    -20.571294     6A    -20.560470
       7A    -20.560089     8A    -11.413957     9A    -11.404099
      10A    -11.401180    11A    -11.334388    12A    -11.270648
      13A    -11.259163    14A     -1.488027    15A     -1.470437
      16A     -1.469255    17A     -1.404266    18A     -1.371663
      19A     -1.366866    20A     -1.364836    21A     -1.113672
      22A     -1.036541    23A     -0.950852    24A     -0.853224
      25A     -0.828629    26A     -0.794858    27A     -0.761374
      28A     -0.731516    29A     -0.717087    30A     -0.715061
      31A     -0.703983    32A     -0.689729    33A     -0.667113
      34A     -0.654780    35A     -0.646359    36A     -0.638687
      37A     -0.622157    38A     -0.602709    39A     -0.594206
      40A     -0.578983    41A     -0.559490    42A     -0.556181
      43A     -0.541856    44A     -0.510948    45A     -0.492745
      46A     -0.489834    47A     -0.485050    48A     -0.468573
      49A     -0.463733    50A     -0.449817

  @DF-RHF Final Energy:  -756.25388683630251

   => Energetics <=

    Nuclear Repulsion Energy =            876.0251629302323408
    One-Electron Energy =               -2780.3535971831565803
    Two-Electron Energy =                1148.0745474166217264
    Total Energy =                       -756.2538868363023994
  Basis Set: (AUG-CC-PVTZ AUX)
    Blend: AUG-CC-PVTZ-RI
    Molecular point group: c1

    Geometry (in Angstrom), charge = 0, multiplicity = 1:

       Center              X                  Y                   Z               Mass
    ------------   -----------------  -----------------  -----------------  -----------------
         O           -0.302105444711     0.074099186507    -1.409880013345    15.994914619570
         O            1.184866555289     1.738148186507     1.395108986655    15.994914619570
         O            0.829199755289     2.305444586507    -0.839236213345    15.994914619570
         O            2.296917555289    -2.415721813493    -0.002105013345    15.994914619570
         O           -3.460501444711     0.082070186507    -0.538468013345    15.994914619570
         O            2.633881555289    -0.227800813493    -0.475485013345    15.994914619570
         O           -2.438253444711    -1.600008813493     0.579722986655    15.994914619570
         C           -0.109831444711     0.317639186507    -0.026521013345    12.000000000000
         C            0.556800555289    -0.914836813493     0.570052986655    12.000000000000
         C           -1.473032444711     0.626487186507     0.631925986655    12.000000000000
         C            0.743097555289     1.570785186507     0.130261986655    12.000000000000
         C            1.920765555289    -1.114862813493    -0.033761013345    12.000000000000
         C           -2.478991444711    -0.427710813493     0.243403986655    12.000000000000
         H           -0.071025444711    -1.788560813493     0.387542986655     1.007825032230
         H            0.670482555289    -0.809769813493     1.654838986655     1.007825032230
         H           -1.823207444711     1.603055186507     0.286477986655     1.007825032230
         H           -1.374891444711     0.645238186507     1.721878986655     1.007825032230
         H           -0.043107444711     0.900682186507    -1.867874013345     1.007825032230
         H            1.694853555289     2.575487186507     1.396579986655     1.007825032230
         H            3.198341555289    -2.440912813493    -0.386393013345     1.007825032230
         H           -4.043421444711    -0.675224813493    -0.757550013345     1.007825032230

  Basis Set: AUG-CC-PVTZ
    Blend: AUG-CC-PVTZ
  Basis Set: (AUG-CC-PVTZ AUX)
    Blend: AUG-CC-PVTZ-JKFIT
	 Reference Energy          =    -756.2538868363025131 [Eh]
	 Singles Energy            =      -0.0000000000000000 [Eh]
	 Same-Spin Energy          =      -0.7311299271540295 [Eh]
	 Opposite-Spin Energy      =      -2.1623553911335129 [Eh]
	 Correlation Energy        =      -2.8934853182875422 [Eh]
	 Total Energy              =    -759.1473721545900162 [Eh]

	 ================> DF-SCS-MP2 Energies <==================
	-----------------------------------------------------------
	 SCS Same-Spin Scale       =       0.3333333333333333 [-]
	 SCS Opposite-Spin Scale   =       1.2000000000000000 [-]
	 SCS Same-Spin Energy      =      -0.2437099757180098 [Eh]
	 SCS Opposite-Spin Energy  =      -2.5948264693602154 [Eh]
	 SCS Correlation Energy    =      -2.8385364450782253 [Eh]
	 SCS Total Energy          =    -759.0924232813807748 [Eh]
	-----------------------------------------------------------

  Dipole Moment: [D]
     X:     0.0710      Y:     1.0451      Z:     2.0351     Total:     2.2889

*** Psi4 exiting successfully. Buy a developer a beer!
