                               Psi4 1.3.2 release

  ==> Input File <==

--------------------------------------------------------------------------
#psi4
#
memory 32 gb

molecule  {
0 1
  O       -0.2992330     0.0680890    -1.4276520
  O        1.1877390     1.7321380     1.3773370
  O        0.9070540     2.3739560    -0.7854760
  O        2.2997900    -2.4217320    -0.0198770
  O       -3.4576290     0.0760600    -0.5562400
  O        2.6367540    -0.2338110    -0.4932570
  O       -2.4353810    -1.6060190     0.5619510
  C       -0.1069590     0.3116290    -0.0442930
  C        0.5596730    -0.9208470     0.5522810
  C       -1.4701600     0.6204770     0.6141540
  C        0.6853126     1.4452818     0.1573823
  C        1.9236380    -1.1208730    -0.0515330
  C       -2.4761190    -0.4337210     0.2256320
  H       -0.0681530    -1.7945710     0.3697710
  H        0.6733550    -0.8157800     1.6370670
  H       -1.8203350     1.5970450     0.2687060
  H       -1.3720190     0.6392280     1.7041070
  H       -0.0402350     0.8946720    -1.8856460
  H        1.6977260     2.5694770     1.3788080
  H        3.2012140    -2.4469230    -0.4041650
  H       -4.0405490    -0.6812350    -0.7753220
units angstrom
no_reorient  #important for SAPT in psi4, default
symmetry c1  #important for SAPT in psi4, default
}

set PROPERTIES_ORIGIN ["COM"]
properties('MP2/aug-cc-pvtz', properties = ['dipole'])
--------------------------------------------------------------------------

    Molecular point group: c1
  Charge       = 0
  Multiplicity = 1
  Basis Set: AUG-CC-PVTZ
    Blend: AUG-CC-PVTZ
  Basis Set: (AUG-CC-PVTZ AUX)
    Blend: AUG-CC-PVTZ-JKFIT

    Orbital Energies [Eh]
    ---------------------

    Doubly Occupied:

       1A    -20.641521     2A    -20.631111     3A    -20.628068
       4A    -20.584194     5A    -20.567819     6A    -20.564314
       7A    -20.553308     8A    -11.423701     9A    -11.411977
      10A    -11.406289    11A    -11.343670    12A    -11.282896
      13A    -11.270345    14A     -1.477825    15A     -1.475677
      16A     -1.469613    17A     -1.402594    18A     -1.373646
      19A     -1.370317    20A     -1.304887    21A     -1.140572
      22A     -1.047321    23A     -0.984739    24A     -0.859787
      25A     -0.836662    26A     -0.810464    27A     -0.767754
      28A     -0.726420    29A     -0.720318    30A     -0.718527
      31A     -0.702180    32A     -0.695719    33A     -0.675229
      34A     -0.654820    35A     -0.641654    36A     -0.633973
      37A     -0.610449    38A     -0.605807    39A     -0.593514
      40A     -0.582970    41A     -0.569412    42A     -0.565573
      43A     -0.544200    44A     -0.500331    45A     -0.494287
      46A     -0.483627    47A     -0.477309    48A     -0.473725
      49A     -0.461576    50A     -0.449339

  @DF-RHF Final Energy:  -756.21492069356054

   => Energetics <=

    Nuclear Repulsion Energy =            875.9129273743963040
    One-Electron Energy =               -2779.8316390637110089
    Two-Electron Energy =                1147.7037909957541615
    Total Energy =                       -756.2149206935605434
  Basis Set: (AUG-CC-PVTZ AUX)
    Blend: AUG-CC-PVTZ-RI
    Molecular point group: c1

    Geometry (in Angstrom), charge = 0, multiplicity = 1:

       Center              X                  Y                   Z               Mass
    ------------   -----------------  -----------------  -----------------  -----------------
         O           -0.304560509273     0.075359174776    -1.418643671627    15.994914619570
         O            1.182411490727     1.739408174776     1.386345328373    15.994914619570
         O            0.901726490727     2.381226174776    -0.776467671627    15.994914619570
         O            2.294462490727    -2.414461825224    -0.010868671627    15.994914619570
         O           -3.462956509273     0.083330174776    -0.547231671627    15.994914619570
         O            2.631426490727    -0.226540825224    -0.484248671627    15.994914619570
         O           -2.440708509273    -1.598748825224     0.570959328373    15.994914619570
         C           -0.112286509273     0.318899174776    -0.035284671627    12.000000000000
         C            0.554345490727    -0.913576825224     0.561289328373    12.000000000000
         C           -1.475487509273     0.627747174776     0.623162328373    12.000000000000
         C            0.679985090727     1.452551974776     0.166390628373    12.000000000000
         C            1.918310490727    -1.113602825224    -0.042524671627    12.000000000000
         C           -2.481446509273    -0.426450825224     0.234640328373    12.000000000000
         H           -0.073480509273    -1.787300825224     0.378779328373     1.007825032230
         H            0.668027490727    -0.808509825224     1.646075328373     1.007825032230
         H           -1.825662509273     1.604315174776     0.277714328373     1.007825032230
         H           -1.377346509273     0.646498174776     1.713115328373     1.007825032230
         H           -0.045562509273     0.901942174776    -1.876637671627     1.007825032230
         H            1.692398490727     2.576747174776     1.387816328373     1.007825032230
         H            3.195886490727    -2.439652825224    -0.395156671627     1.007825032230
         H           -4.045876509273    -0.673964825224    -0.766313671627     1.007825032230

  Basis Set: AUG-CC-PVTZ
    Blend: AUG-CC-PVTZ
  Basis Set: (AUG-CC-PVTZ AUX)
    Blend: AUG-CC-PVTZ-JKFIT
	 Reference Energy          =    -756.2149206935605434 [Eh]
	 Singles Energy            =      -0.0000000000000000 [Eh]
	 Same-Spin Energy          =      -0.7348511065747825 [Eh]
	 Opposite-Spin Energy      =      -2.1695499787528489 [Eh]
	 Correlation Energy        =      -2.9044010853276312 [Eh]
	 Total Energy              =    -759.1193217788882066 [Eh]

	 ================> DF-SCS-MP2 Energies <==================
	-----------------------------------------------------------
	 SCS Same-Spin Scale       =       0.3333333333333333 [-]
	 SCS Opposite-Spin Scale   =       1.2000000000000000 [-]
	 SCS Same-Spin Energy      =      -0.2449503688582608 [Eh]
	 SCS Opposite-Spin Energy  =      -2.6034599745034188 [Eh]
	 SCS Correlation Energy    =      -2.8484103433616799 [Eh]
	 SCS Total Energy          =    -759.0633310369222500 [Eh]
	-----------------------------------------------------------

  Dipole Moment: [D]
     X:    -0.4579      Y:     0.1342      Z:     2.1268     Total:     2.1797

*** Psi4 exiting successfully. Buy a developer a beer!
