                               Psi4 1.3.2 release

  ==> Input File <==

--------------------------------------------------------------------------
#psi4
#
memory 32 gb

molecule  {
0 1
  O       -0.2992330     0.0680890    -1.4276520
  O        1.2055495     1.7739046     1.3647119
  O        0.9070540     2.3739560    -0.7854760
  O        2.2997900    -2.4217320    -0.0198770
  O       -3.4576290     0.0760600    -0.5562400
  O        2.6367540    -0.2338110    -0.4932570
  O       -2.4353810    -1.6060190     0.5619510
  C       -0.1069590     0.3116290    -0.0442930
  C        0.5596730    -0.9208470     0.5522810
  C       -1.4701600     0.6204770     0.6141540
  C        0.7459700     1.5647750     0.1124900
  C        1.9236380    -1.1208730    -0.0515330
  C       -2.4761190    -0.4337210     0.2256320
  H       -0.0681530    -1.7945710     0.3697710
  H        0.6733550    -0.8157800     1.6370670
  H       -1.8203350     1.5970450     0.2687060
  H       -1.3720190     0.6392280     1.7041070
  H       -0.0402350     0.8946720    -1.8856460
  H        1.6977260     2.5694770     1.3788080
  H        3.2012140    -2.4469230    -0.4041650
  H       -4.0405490    -0.6812350    -0.7753220
units angstrom
no_reorient  #important for SAPT in psi4, default
symmetry c1  #important for SAPT in psi4, default
}

set PROPERTIES_ORIGIN ["COM"]
properties('MP2/aug-cc-pvtz', properties = ['dipole'])
--------------------------------------------------------------------------

    Molecular point group: c1
  Charge       = 0
  Multiplicity = 1
  Basis Set: AUG-CC-PVTZ
    Blend: AUG-CC-PVTZ
  Basis Set: (AUG-CC-PVTZ AUX)
    Blend: AUG-CC-PVTZ-JKFIT

    Orbital Energies [Eh]
    ---------------------

    Doubly Occupied:

       1A    -20.631824     2A    -20.627478     3A    -20.625455
       4A    -20.579679     5A    -20.569256     6A    -20.563315
       7A    -20.561503     8A    -11.411553     9A    -11.407019
      10A    -11.402924    11A    -11.343087    12A    -11.274288
      13A    -11.263121    14A     -1.489730    15A     -1.473089
      16A     -1.470796    17A     -1.400897    18A     -1.372143
      19A     -1.369304    20A     -1.366905    21A     -1.118648
      22A     -1.039866    23A     -0.956300    24A     -0.858764
      25A     -0.831197    26A     -0.800557    27A     -0.763469
      28A     -0.727842    29A     -0.719196    30A     -0.716629
      31A     -0.705690    32A     -0.691741    33A     -0.670101
      34A     -0.654085    35A     -0.644515    36A     -0.638030
      37A     -0.622312    38A     -0.605380    39A     -0.595787
      40A     -0.581030    41A     -0.563205    42A     -0.560652
      43A     -0.546699    44A     -0.504514    45A     -0.495695
      46A     -0.490901    47A     -0.485755    48A     -0.472967
      49A     -0.466042    50A     -0.453466

  @DF-RHF Final Energy:  -756.25929657377208

   => Energetics <=

    Nuclear Repulsion Energy =            874.2824827032945905
    One-Electron Energy =               -2776.7147497445225781
    Two-Electron Energy =                1146.1729704674557979
    Total Energy =                       -756.2592965737721897
  Basis Set: (AUG-CC-PVTZ AUX)
    Blend: AUG-CC-PVTZ-RI
    Molecular point group: c1

    Geometry (in Angstrom), charge = 0, multiplicity = 1:

       Center              X                  Y                   Z               Mass
    ------------   -----------------  -----------------  -----------------  -----------------
         O           -0.309834591632     0.064412945483    -1.414786688043    15.994914619570
         O            1.194947908368     1.770228545483     1.377577211957    15.994914619570
         O            0.896452408368     2.370279945483    -0.772610688043    15.994914619570
         O            2.289188408368    -2.425408054517    -0.007011688043    15.994914619570
         O           -3.468230591632     0.072383945483    -0.543374688043    15.994914619570
         O            2.626152408368    -0.237487054517    -0.480391688043    15.994914619570
         O           -2.445982591632    -1.609695054517     0.574816311957    15.994914619570
         C           -0.117560591632     0.307952945483    -0.031427688043    12.000000000000
         C            0.549071408368    -0.924523054517     0.565146311957    12.000000000000
         C           -1.480761591632     0.616800945483     0.627019311957    12.000000000000
         C            0.735368408368     1.561098945483     0.125355311957    12.000000000000
         C            1.913036408368    -1.124549054517    -0.038667688043    12.000000000000
         C           -2.486720591632    -0.437397054517     0.238497311957    12.000000000000
         H           -0.078754591632    -1.798247054517     0.382636311957     1.007825032230
         H            0.662753408368    -0.819456054517     1.649932311957     1.007825032230
         H           -1.830936591632     1.593368945483     0.281571311957     1.007825032230
         H           -1.382620591632     0.635551945483     1.716972311957     1.007825032230
         H           -0.050836591632     0.890995945483    -1.872780688043     1.007825032230
         H            1.687124408368     2.565800945483     1.391673311957     1.007825032230
         H            3.190612408368    -2.450599054517    -0.391299688043     1.007825032230
         H           -4.051150591632    -0.684911054517    -0.762456688043     1.007825032230

  Basis Set: AUG-CC-PVTZ
    Blend: AUG-CC-PVTZ
  Basis Set: (AUG-CC-PVTZ AUX)
    Blend: AUG-CC-PVTZ-JKFIT
	 Reference Energy          =    -756.2592965737720760 [Eh]
	 Singles Energy            =      -0.0000000000000000 [Eh]
	 Same-Spin Energy          =      -0.7296755281895310 [Eh]
	 Opposite-Spin Energy      =      -2.1597750763091756 [Eh]
	 Correlation Energy        =      -2.8894506044987067 [Eh]
	 Total Energy              =    -759.1487471782708099 [Eh]

	 ================> DF-SCS-MP2 Energies <==================
	-----------------------------------------------------------
	 SCS Same-Spin Scale       =       0.3333333333333333 [-]
	 SCS Opposite-Spin Scale   =       1.2000000000000000 [-]
	 SCS Same-Spin Energy      =      -0.2432251760631770 [Eh]
	 SCS Opposite-Spin Energy  =      -2.5917300915710109 [Eh]
	 SCS Correlation Energy    =      -2.8349552676341880 [Eh]
	 SCS Total Energy          =    -759.0942518414062761 [Eh]
	-----------------------------------------------------------

  Dipole Moment: [D]
     X:    -0.2216      Y:     0.6483      Z:     1.8383     Total:     1.9618

*** Psi4 exiting successfully. Buy a developer a beer!
