                               Psi4 1.3.2 release

  ==> Input File <==

--------------------------------------------------------------------------
#psi4
#
memory 32 gb

molecule  {
0 1
  O       -0.2992330     0.0680890    -1.4276520
  O        1.1877390     1.7321380     1.3773370
  O        0.9070540     2.3739560    -0.7854760
  O        2.2997900    -2.4217320    -0.0198770
  O       -3.4576290     0.0760600    -0.5562400
  O        2.6367540    -0.2338110    -0.4932570
  O       -2.4353810    -1.6060190     0.5619510
  C       -0.1069590     0.3116290    -0.0442930
  C        0.5596730    -0.9208470     0.5522810
  C       -1.4701600     0.6204770     0.6141540
  C        0.7786891     1.5771705     0.2061693
  C        1.9236380    -1.1208730    -0.0515330
  C       -2.4761190    -0.4337210     0.2256320
  H       -0.0681530    -1.7945710     0.3697710
  H        0.6733550    -0.8157800     1.6370670
  H       -1.8203350     1.5970450     0.2687060
  H       -1.3720190     0.6392280     1.7041070
  H       -0.0402350     0.8946720    -1.8856460
  H        1.6977260     2.5694770     1.3788080
  H        3.2012140    -2.4469230    -0.4041650
  H       -4.0405490    -0.6812350    -0.7753220
units angstrom
no_reorient  #important for SAPT in psi4, default
symmetry c1  #important for SAPT in psi4, default
}

set PROPERTIES_ORIGIN ["COM"]
properties('MP2/aug-cc-pvtz', properties = ['dipole'])
--------------------------------------------------------------------------

    Molecular point group: c1
  Charge       = 0
  Multiplicity = 1
  Basis Set: AUG-CC-PVTZ
    Blend: AUG-CC-PVTZ
  Basis Set: (AUG-CC-PVTZ AUX)
    Blend: AUG-CC-PVTZ-JKFIT

    Orbital Energies [Eh]
    ---------------------

    Doubly Occupied:

       1A    -20.666663     2A    -20.625310     3A    -20.624604
       4A    -20.575345     5A    -20.561043     6A    -20.560619
       7A    -20.553728     8A    -11.413760     9A    -11.404547
      10A    -11.401779    11A    -11.339825    12A    -11.271076
      13A    -11.260253    14A     -1.535383    15A     -1.471027
      16A     -1.470155    17A     -1.392466    18A     -1.367424
      19A     -1.366532    20A     -1.341774    21A     -1.114189
      22A     -1.037470    23A     -0.955020    24A     -0.870553
      25A     -0.829638    26A     -0.799888    27A     -0.769226
      28A     -0.737104    29A     -0.718041    30A     -0.715443
      31A     -0.708280    32A     -0.689143    33A     -0.671806
      34A     -0.667024    35A     -0.644847    36A     -0.638287
      37A     -0.619467    38A     -0.604014    39A     -0.594960
      40A     -0.579007    41A     -0.561413    42A     -0.557696
      43A     -0.531235    44A     -0.494803    45A     -0.491830
      46A     -0.484769    47A     -0.478554    48A     -0.468750
      49A     -0.460221    50A     -0.444960

  @DF-RHF Final Energy:  -756.24229914433488

   => Energetics <=

    Nuclear Repulsion Energy =            874.2971601474267800
    One-Electron Energy =               -2776.7970139743370055
    Two-Electron Energy =                1146.2575546825751189
    Total Energy =                       -756.2422991443349929
  Basis Set: (AUG-CC-PVTZ AUX)
    Blend: AUG-CC-PVTZ-RI
    Molecular point group: c1

    Geometry (in Angstrom), charge = 0, multiplicity = 1:

       Center              X                  Y                   Z               Mass
    ------------   -----------------  -----------------  -----------------  -----------------
         O           -0.310395719868     0.067117290152    -1.421692430354    15.994914619570
         O            1.176576280132     1.731166290152     1.383296569646    15.994914619570
         O            0.895891280132     2.372984290152    -0.779516430354    15.994914619570
         O            2.288627280132    -2.422703709848    -0.013917430354    15.994914619570
         O           -3.468791719868     0.075088290152    -0.550280430354    15.994914619570
         O            2.625591280132    -0.234782709848    -0.487297430354    15.994914619570
         O           -2.446543719868    -1.606990709848     0.567910569646    15.994914619570
         C           -0.118121719868     0.310657290152    -0.038333430354    12.000000000000
         C            0.548510280132    -0.921818709848     0.558240569646    12.000000000000
         C           -1.481322719868     0.619505290152     0.620113569646    12.000000000000
         C            0.767526380132     1.576198790152     0.212128869646    12.000000000000
         C            1.912475280132    -1.121844709848    -0.045573430354    12.000000000000
         C           -2.487281719868    -0.434692709848     0.231591569646    12.000000000000
         H           -0.079315719868    -1.795542709848     0.375730569646     1.007825032230
         H            0.662192280132    -0.816751709848     1.643026569646     1.007825032230
         H           -1.831497719868     1.596073290152     0.274665569646     1.007825032230
         H           -1.383181719868     0.638256290152     1.710066569646     1.007825032230
         H           -0.051397719868     0.893700290152    -1.879686430354     1.007825032230
         H            1.686563280132     2.568505290152     1.384767569646     1.007825032230
         H            3.190051280132    -2.447894709848    -0.398205430354     1.007825032230
         H           -4.051711719868    -0.682206709848    -0.769362430354     1.007825032230

  Basis Set: AUG-CC-PVTZ
    Blend: AUG-CC-PVTZ
  Basis Set: (AUG-CC-PVTZ AUX)
    Blend: AUG-CC-PVTZ-JKFIT
	 Reference Energy          =    -756.2422991443348792 [Eh]
	 Singles Energy            =      -0.0000000000000000 [Eh]
	 Same-Spin Energy          =      -0.7312934341533502 [Eh]
	 Opposite-Spin Energy      =      -2.1620616252876226 [Eh]
	 Correlation Energy        =      -2.8933550594409727 [Eh]
	 Total Energy              =    -759.1356542037758572 [Eh]

	 ================> DF-SCS-MP2 Energies <==================
	-----------------------------------------------------------
	 SCS Same-Spin Scale       =       0.3333333333333333 [-]
	 SCS Opposite-Spin Scale   =       1.2000000000000000 [-]
	 SCS Same-Spin Energy      =      -0.2437644780511167 [Eh]
	 SCS Opposite-Spin Energy  =      -2.5944739503451468 [Eh]
	 SCS Correlation Energy    =      -2.8382384283962634 [Eh]
	 SCS Total Energy          =    -759.0805375727311457 [Eh]
	-----------------------------------------------------------

  Dipole Moment: [D]
     X:     0.0862      Y:     0.8072      Z:     2.5425     Total:     2.6689

*** Psi4 exiting successfully. Buy a developer a beer!
