                               Psi4 1.3.2 release

  ==> Input File <==

--------------------------------------------------------------------------
#psi4
#
memory 32 gb

molecule  {
0 1
  O       -0.2992330     0.0680890    -1.4276520
  O        1.1311681     1.6058196     1.4059141
  O        0.9070540     2.3739560    -0.7854760
  O        2.2997900    -2.4217320    -0.0198770
  O       -3.4576290     0.0760600    -0.5562400
  O        2.6367540    -0.2338110    -0.4932570
  O       -2.4353810    -1.6060190     0.5619510
  C       -0.1069590     0.3116290    -0.0442930
  C        0.5596730    -0.9208470     0.5522810
  C       -1.4701600     0.6204770     0.6141540
  C        0.7459700     1.5647750     0.1124900
  C        1.9236380    -1.1208730    -0.0515330
  C       -2.4761190    -0.4337210     0.2256320
  H       -0.0681530    -1.7945710     0.3697710
  H        0.6733550    -0.8157800     1.6370670
  H       -1.8203350     1.5970450     0.2687060
  H       -1.3720190     0.6392280     1.7041070
  H       -0.0402350     0.8946720    -1.8856460
  H        1.6977260     2.5694770     1.3788080
  H        3.2012140    -2.4469230    -0.4041650
  H       -4.0405490    -0.6812350    -0.7753220
units angstrom
no_reorient  #important for SAPT in psi4, default
symmetry c1  #important for SAPT in psi4, default
}

set PROPERTIES_ORIGIN ["COM"]
properties('MP2/aug-cc-pvtz', properties = ['dipole'])
--------------------------------------------------------------------------

    Molecular point group: c1
  Charge       = 0
  Multiplicity = 1
  Basis Set: AUG-CC-PVTZ
    Blend: AUG-CC-PVTZ
  Basis Set: (AUG-CC-PVTZ AUX)
    Blend: AUG-CC-PVTZ-JKFIT

    Orbital Energies [Eh]
    ---------------------

    Doubly Occupied:

       1A    -20.653824     2A    -20.625427     3A    -20.623910
       4A    -20.577931     5A    -20.574395     6A    -20.560932
       7A    -20.559811     8A    -11.412687     9A    -11.404480
      10A    -11.401025    11A    -11.334340    12A    -11.270858
      13A    -11.259182    14A     -1.477893    15A     -1.470749
      16A     -1.468316    17A     -1.394661    18A     -1.374094
      19A     -1.367238    20A     -1.365317    21A     -1.112537
      22A     -1.036806    23A     -0.944951    24A     -0.843729
      25A     -0.828174    26A     -0.784004    27A     -0.754401
      28A     -0.723200    29A     -0.715051    30A     -0.714603
      31A     -0.702737    32A     -0.689743    33A     -0.666873
      34A     -0.653151    35A     -0.642481    36A     -0.636764
      37A     -0.623116    38A     -0.602206    39A     -0.594097
      40A     -0.578885    41A     -0.559389    42A     -0.555529
      43A     -0.542682    44A     -0.510267    45A     -0.493524
      46A     -0.489541    47A     -0.485547    48A     -0.469241
      49A     -0.464066    50A     -0.449706

  @DF-RHF Final Energy:  -756.23035071221841

   => Energetics <=

    Nuclear Repulsion Energy =            876.0504716784226957
    One-Electron Energy =               -2780.4735104170154045
    Two-Electron Energy =                1148.1926880263745261
    Total Energy =                       -756.2303507122182964
  Basis Set: (AUG-CC-PVTZ AUX)
    Blend: AUG-CC-PVTZ-RI
    Molecular point group: c1

    Geometry (in Angstrom), charge = 0, multiplicity = 1:

       Center              X                  Y                   Z               Mass
    ------------   -----------------  -----------------  -----------------  -----------------
         O           -0.303638983066     0.078413607824    -1.418218630750    15.994914619570
         O            1.126762116934     1.616144207824     1.415347469250    15.994914619570
         O            0.902648016934     2.384280607824    -0.776042630750    15.994914619570
         O            2.295384016934    -2.411407392176    -0.010443630750    15.994914619570
         O           -3.462034983066     0.086384607824    -0.546806630750    15.994914619570
         O            2.632348016934    -0.223486392176    -0.483823630750    15.994914619570
         O           -2.439786983066    -1.595694392176     0.571384369250    15.994914619570
         C           -0.111364983066     0.321953607824    -0.034859630750    12.000000000000
         C            0.555267016934    -0.910522392176     0.561714369250    12.000000000000
         C           -1.474565983066     0.630801607824     0.623587369250    12.000000000000
         C            0.741564016934     1.575099607824     0.121923369250    12.000000000000
         C            1.919232016934    -1.110548392176    -0.042099630750    12.000000000000
         C           -2.480524983066    -0.423396392176     0.235065369250    12.000000000000
         H           -0.072558983066    -1.784246392176     0.379204369250     1.007825032230
         H            0.668949016934    -0.805455392176     1.646500369250     1.007825032230
         H           -1.824740983066     1.607369607824     0.278139369250     1.007825032230
         H           -1.376424983066     0.649552607824     1.713540369250     1.007825032230
         H           -0.044640983066     0.904996607824    -1.876212630750     1.007825032230
         H            1.693320016934     2.579801607824     1.388241369250     1.007825032230
         H            3.196808016934    -2.436598392176    -0.394731630750     1.007825032230
         H           -4.044954983066    -0.670910392176    -0.765888630750     1.007825032230

  Basis Set: AUG-CC-PVTZ
    Blend: AUG-CC-PVTZ
  Basis Set: (AUG-CC-PVTZ AUX)
    Blend: AUG-CC-PVTZ-JKFIT
	 Reference Energy          =    -756.2303507122184101 [Eh]
	 Singles Energy            =      -0.0000000000000000 [Eh]
	 Same-Spin Energy          =      -0.7336278071770641 [Eh]
	 Opposite-Spin Energy      =      -2.1683005805237929 [Eh]
	 Correlation Energy        =      -2.9019283877008570 [Eh]
	 Total Energy              =    -759.1322790999192875 [Eh]

	 ================> DF-SCS-MP2 Energies <==================
	-----------------------------------------------------------
	 SCS Same-Spin Scale       =       0.3333333333333333 [-]
	 SCS Opposite-Spin Scale   =       1.2000000000000000 [-]
	 SCS Same-Spin Energy      =      -0.2445426023923547 [Eh]
	 SCS Opposite-Spin Energy  =      -2.6019606966285513 [Eh]
	 SCS Correlation Energy    =      -2.8465032990209060 [Eh]
	 SCS Total Energy          =    -759.0768540112393339 [Eh]
	-----------------------------------------------------------

  Dipole Moment: [D]
     X:    -0.0252      Y:     0.9804      Z:     1.9128     Total:     2.1496

*** Psi4 exiting successfully. Buy a developer a beer!
