                               Psi4 1.3.2 release

  ==> Input File <==

--------------------------------------------------------------------------
#psi4
#
memory 32 gb

molecule  {
0 1
  O       -0.2721596     0.1082975    -1.4376086
  O        1.1877390     1.7321380     1.3773370
  O        0.9070540     2.3739560    -0.7854760
  O        2.2997900    -2.4217320    -0.0198770
  O       -3.4576290     0.0760600    -0.5562400
  O        2.6367540    -0.2338110    -0.4932570
  O       -2.4353810    -1.6060190     0.5619510
  C       -0.1069590     0.3116290    -0.0442930
  C        0.5596730    -0.9208470     0.5522810
  C       -1.4701600     0.6204770     0.6141540
  C        0.7459700     1.5647750     0.1124900
  C        1.9236380    -1.1208730    -0.0515330
  C       -2.4761190    -0.4337210     0.2256320
  H       -0.0681530    -1.7945710     0.3697710
  H        0.6733550    -0.8157800     1.6370670
  H       -1.8203350     1.5970450     0.2687060
  H       -1.3720190     0.6392280     1.7041070
  H       -0.0402350     0.8946720    -1.8856460
  H        1.6977260     2.5694770     1.3788080
  H        3.2012140    -2.4469230    -0.4041650
  H       -4.0405490    -0.6812350    -0.7753220
units angstrom
no_reorient  #important for SAPT in psi4, default
symmetry c1  #important for SAPT in psi4, default
}

set PROPERTIES_ORIGIN ["COM"]
properties('MP2/aug-cc-pvtz', properties = ['dipole'])
--------------------------------------------------------------------------

    Molecular point group: c1
  Charge       = 0
  Multiplicity = 1
  Basis Set: AUG-CC-PVTZ
    Blend: AUG-CC-PVTZ
  Basis Set: (AUG-CC-PVTZ AUX)
    Blend: AUG-CC-PVTZ-JKFIT

    Orbital Energies [Eh]
    ---------------------

    Doubly Occupied:

       1A    -20.636971     2A    -20.627630     3A    -20.625181
       4A    -20.573032     5A    -20.569580     6A    -20.563510
       7A    -20.560999     8A    -11.409788     9A    -11.407047
      10A    -11.402548    11A    -11.341946    12A    -11.274236
      13A    -11.263225    14A     -1.484835    15A     -1.473178
      16A     -1.470254    17A     -1.404484    18A     -1.372143
      19A     -1.369504    20A     -1.366842    21A     -1.120118
      22A     -1.039642    23A     -0.952963    24A     -0.854374
      25A     -0.831030    26A     -0.800560    27A     -0.761853
      28A     -0.727413    29A     -0.718999    30A     -0.716340
      31A     -0.706282    32A     -0.692185    33A     -0.669340
      34A     -0.653865    35A     -0.647752    36A     -0.637622
      37A     -0.622638    38A     -0.605031    39A     -0.595758
      40A     -0.580764    41A     -0.565260    42A     -0.559577
      43A     -0.544450    44A     -0.504726    45A     -0.495893
      46A     -0.490597    47A     -0.485601    48A     -0.473012
      49A     -0.465526    50A     -0.452461

  @DF-RHF Final Energy:  -756.25892620562604

   => Energetics <=

    Nuclear Repulsion Energy =            874.8144130940746663
    One-Electron Energy =               -2777.8095520849919922
    Two-Electron Energy =                1146.7362127852914000
    Total Energy =                       -756.2589262056260395
  Basis Set: (AUG-CC-PVTZ AUX)
    Blend: AUG-CC-PVTZ-RI
    Molecular point group: c1

    Geometry (in Angstrom), charge = 0, multiplicity = 1:

       Center              X                  Y                   Z               Mass
    ------------   -----------------  -----------------  -----------------  -----------------
         O           -0.283532746115     0.104751227628    -1.424965561104    15.994914619570
         O            1.176365853885     1.728591727628     1.389980038896    15.994914619570
         O            0.895680853885     2.370409727628    -0.772832961104    15.994914619570
         O            2.288416853885    -2.425278272372    -0.007233961104    15.994914619570
         O           -3.469002146115     0.072513727628    -0.543596961104    15.994914619570
         O            2.625380853885    -0.237357272372    -0.480613961104    15.994914619570
         O           -2.446754146115    -1.609565272372     0.574594038896    15.994914619570
         C           -0.118332146115     0.308082727628    -0.031649961104    12.000000000000
         C            0.548299853885    -0.924393272372     0.564924038896    12.000000000000
         C           -1.481533146115     0.616930727628     0.626797038896    12.000000000000
         C            0.734596853885     1.561228727628     0.125133038896    12.000000000000
         C            1.912264853885    -1.124419272372    -0.038889961104    12.000000000000
         C           -2.487492146115    -0.437267272372     0.238275038896    12.000000000000
         H           -0.079526146115    -1.798117272372     0.382414038896     1.007825032230
         H            0.661981853885    -0.819326272372     1.649710038896     1.007825032230
         H           -1.831708146115     1.593498727628     0.281349038896     1.007825032230
         H           -1.383392146115     0.635681727628     1.716750038896     1.007825032230
         H           -0.051608146115     0.891125727628    -1.873002961104     1.007825032230
         H            1.686352853885     2.565930727628     1.391451038896     1.007825032230
         H            3.189840853885    -2.450469272372    -0.391521961104     1.007825032230
         H           -4.051922146115    -0.684781272372    -0.762678961104     1.007825032230

  Basis Set: AUG-CC-PVTZ
    Blend: AUG-CC-PVTZ
  Basis Set: (AUG-CC-PVTZ AUX)
    Blend: AUG-CC-PVTZ-JKFIT
	 Reference Energy          =    -756.2589262056260395 [Eh]
	 Singles Energy            =      -0.0000000000000000 [Eh]
	 Same-Spin Energy          =      -0.7298098698533080 [Eh]
	 Opposite-Spin Energy      =      -2.1599497854752361 [Eh]
	 Correlation Energy        =      -2.8897596553285441 [Eh]
	 Total Energy              =    -759.1486858609546289 [Eh]

	 ================> DF-SCS-MP2 Energies <==================
	-----------------------------------------------------------
	 SCS Same-Spin Scale       =       0.3333333333333333 [-]
	 SCS Opposite-Spin Scale   =       1.2000000000000000 [-]
	 SCS Same-Spin Energy      =      -0.2432699566177693 [Eh]
	 SCS Opposite-Spin Energy  =      -2.5919397425702830 [Eh]
	 SCS Correlation Energy    =      -2.8352096991880522 [Eh]
	 SCS Total Energy          =    -759.0941359048140384 [Eh]
	-----------------------------------------------------------

  Dipole Moment: [D]
     X:    -0.2312      Y:     0.6640      Z:     1.8925     Total:     2.0189

*** Psi4 exiting successfully. Buy a developer a beer!
