                               Psi4 1.3.2 release

  ==> Input File <==

--------------------------------------------------------------------------
#psi4
#
memory 32 gb

molecule  {
0 1
  O       -0.2992330     0.0680890    -1.4276520
  O        1.1877390     1.7321380     1.3773370
  O        0.9070540     2.3739560    -0.7854760
  O        2.2997900    -2.4217320    -0.0198770
  O       -3.4576290     0.0760600    -0.5562400
  O        2.6367540    -0.2338110    -0.4932570
  O       -2.4353810    -1.6060190     0.5619510
  C       -0.1069590     0.3116290    -0.0442930
  C        0.5596730    -0.9208470     0.5522810
  C       -1.4701600     0.6204770     0.6141540
  C        0.7459700     1.5647750     0.1124900
  C        1.9373744    -1.0733060    -0.0339760
  C       -2.4761190    -0.4337210     0.2256320
  H       -0.0681530    -1.7945710     0.3697710
  H        0.6733550    -0.8157800     1.6370670
  H       -1.8203350     1.5970450     0.2687060
  H       -1.3720190     0.6392280     1.7041070
  H       -0.0402350     0.8946720    -1.8856460
  H        1.6977260     2.5694770     1.3788080
  H        3.2012140    -2.4469230    -0.4041650
  H       -4.0405490    -0.6812350    -0.7753220
units angstrom
no_reorient  #important for SAPT in psi4, default
symmetry c1  #important for SAPT in psi4, default
}

set PROPERTIES_ORIGIN ["COM"]
properties('MP2/aug-cc-pvtz', properties = ['dipole'])
--------------------------------------------------------------------------

    Molecular point group: c1
  Charge       = 0
  Multiplicity = 1
  Basis Set: AUG-CC-PVTZ
    Blend: AUG-CC-PVTZ
  Basis Set: (AUG-CC-PVTZ AUX)
    Blend: AUG-CC-PVTZ-JKFIT

    Orbital Energies [Eh]
    ---------------------

    Doubly Occupied:

       1A    -20.640595     2A    -20.627296     3A    -20.612359
       4A    -20.579522     5A    -20.573762     6A    -20.569669
       7A    -20.563107     8A    -11.413438     9A    -11.406790
      10A    -11.400068    11A    -11.341545    12A    -11.273948
      13A    -11.262443    14A     -1.488220    15A     -1.472863
      16A     -1.469045    17A     -1.400485    18A     -1.374373
      19A     -1.372405    20A     -1.368959    21A     -1.118337
      22A     -1.039410    23A     -0.952548    24A     -0.850770
      25A     -0.825502    26A     -0.792968    27A     -0.761051
      28A     -0.729481    29A     -0.719481    30A     -0.717312
      31A     -0.706040    32A     -0.690850    33A     -0.669233
      34A     -0.652870    35A     -0.645505    36A     -0.638039
      37A     -0.623074    38A     -0.608111    39A     -0.595019
      40A     -0.584939    41A     -0.560943    42A     -0.559082
      43A     -0.546846    44A     -0.508751    45A     -0.499353
      46A     -0.495693    47A     -0.487668    48A     -0.474310
      49A     -0.465646    50A     -0.453935

  @DF-RHF Final Energy:  -756.25645442393693

   => Energetics <=

    Nuclear Repulsion Energy =            874.9982648052188097
    One-Electron Energy =               -2778.1421170759772394
    Two-Electron Energy =                1146.8873978468216137
    Total Energy =                       -756.2564544239369297
  Basis Set: (AUG-CC-PVTZ AUX)
    Blend: AUG-CC-PVTZ-RI
    Molecular point group: c1

    Geometry (in Angstrom), charge = 0, multiplicity = 1:

       Center              X                  Y                   Z               Mass
    ------------   -----------------  -----------------  -----------------  -----------------
         O           -0.309209467951     0.064919380513    -1.416935455617    15.994914619570
         O            1.177762532049     1.728968380513     1.388053544383    15.994914619570
         O            0.897077532049     2.370786380513    -0.774759455617    15.994914619570
         O            2.289813532049    -2.424901619487    -0.009160455617    15.994914619570
         O           -3.467605467951     0.072890380513    -0.545523455617    15.994914619570
         O            2.626777532049    -0.236980619487    -0.482540455617    15.994914619570
         O           -2.445357467951    -1.609188619487     0.572667544383    15.994914619570
         C           -0.116935467951     0.308459380513    -0.033576455617    12.000000000000
         C            0.549696532049    -0.924016619487     0.562997544383    12.000000000000
         C           -1.480136467951     0.617307380513     0.624870544383    12.000000000000
         C            0.735993532049     1.561605380513     0.123206544383    12.000000000000
         C            1.927397932049    -1.076475619487    -0.023259455617    12.000000000000
         C           -2.486095467951    -0.436890619487     0.236348544383    12.000000000000
         H           -0.078129467951    -1.797740619487     0.380487544383     1.007825032230
         H            0.663378532049    -0.818949619487     1.647783544383     1.007825032230
         H           -1.830311467951     1.593875380513     0.279422544383     1.007825032230
         H           -1.381995467951     0.636058380513     1.714823544383     1.007825032230
         H           -0.050211467951     0.891502380513    -1.874929455617     1.007825032230
         H            1.687749532049     2.566307380513     1.389524544383     1.007825032230
         H            3.191237532049    -2.450092619487    -0.393448455617     1.007825032230
         H           -4.050525467951    -0.684404619487    -0.764605455617     1.007825032230

  Basis Set: AUG-CC-PVTZ
    Blend: AUG-CC-PVTZ
  Basis Set: (AUG-CC-PVTZ AUX)
    Blend: AUG-CC-PVTZ-JKFIT
	 Reference Energy          =    -756.2564544239369297 [Eh]
	 Singles Energy            =      -0.0000000000000000 [Eh]
	 Same-Spin Energy          =      -0.7302403329149019 [Eh]
	 Opposite-Spin Energy      =      -2.1612402151454972 [Eh]
	 Correlation Energy        =      -2.8914805480603993 [Eh]
	 Total Energy              =    -759.1479349719973015 [Eh]

	 ================> DF-SCS-MP2 Energies <==================
	-----------------------------------------------------------
	 SCS Same-Spin Scale       =       0.3333333333333333 [-]
	 SCS Opposite-Spin Scale   =       1.2000000000000000 [-]
	 SCS Same-Spin Energy      =      -0.2434134443049673 [Eh]
	 SCS Opposite-Spin Energy  =      -2.5934882581745966 [Eh]
	 SCS Correlation Energy    =      -2.8369017024795640 [Eh]
	 SCS Total Energy          =    -759.0933561264164382 [Eh]
	-----------------------------------------------------------

  Dipole Moment: [D]
     X:    -0.2020      Y:     1.1398      Z:     1.8446     Total:     2.1777

*** Psi4 exiting successfully. Buy a developer a beer!
