                               Psi4 1.4a3.dev225

  ==> Input File <==

--------------------------------------------------------------------------
#psi4
#
memory 32 gb

molecule  {
0 1
  O       -0.2992690     0.0680640    -1.4275900
  O        1.1877140     1.7322170     1.3773330
  O        0.9070830     2.3739170    -0.7855270
  O        2.2997080    -2.4217750    -0.0198700
  O       -3.4574230     0.0760400    -0.5564670
  O        2.6367000    -0.2338780    -0.4933410
  O       -2.4354340    -1.6059620     0.5620860
  C       -0.1069630     0.3116450    -0.0442490
  C        0.5596710    -0.9208170     0.5523550
  C       -1.4701590     0.6204980     0.6142450
  C        0.7347684     1.5483440     0.1104221
  C        1.9235890    -1.1209070    -0.0515450
  C       -2.4760910    -0.4336940     0.2256510
  H       -0.0681940    -1.7945300     0.3699280
  H        0.6734230    -0.8156830     1.6371260
  H       -1.8203340     1.5970830     0.2688470
  H       -1.3719830     0.6391850     1.7041930
  H       -0.0401320     0.8945830    -1.8856220
  H        1.6977060     2.5695530     1.3787680
  H        3.2011100    -2.4470060    -0.4042100
  H       -4.0402960    -0.6812640    -0.7756360
units angstrom
no_reorient  #important for SAPT in psi4, default
symmetry c1  #important for SAPT in psi4, default
}

set PROPERTIES_ORIGIN ["COM"]
properties('MP2/aug-cc-pvtz', properties = ['dipole'])
--------------------------------------------------------------------------

    Molecular point group: c1
  Charge       = 0
  Multiplicity = 1
  Basis Set: AUG-CC-PVTZ
    Blend: AUG-CC-PVTZ
  Basis Set: (AUG-CC-PVTZ AUX)
    Blend: AUG-CC-PVTZ-JKFIT

    Orbital Energies [Eh]
    ---------------------

    Doubly Occupied:

       1A    -20.636290     2A    -20.627630     3A    -20.625487
       4A    -20.579370     5A    -20.570504     6A    -20.563508
       7A    -20.561524     8A    -11.413000     9A    -11.407250
      10A    -11.402991    11A    -11.341674    12A    -11.274770
      13A    -11.263343    14A     -1.481000    15A     -1.473131
      16A     -1.470351    17A     -1.398647    18A     -1.369971
      19A     -1.368466    20A     -1.364810    21A     -1.119996
      22A     -1.040252    23A     -0.957287    24A     -0.853458
      25A     -0.831232    26A     -0.796619    27A     -0.760078
      28A     -0.726684    29A     -0.718686    30A     -0.716679
      31A     -0.705167    32A     -0.691809    33A     -0.670203
      34A     -0.653027    35A     -0.643326    36A     -0.636260
      37A     -0.621738    38A     -0.605130    39A     -0.595505
      40A     -0.580961    41A     -0.562994    42A     -0.560625
      43A     -0.546423    44A     -0.502948    45A     -0.495716
      46A     -0.490734    47A     -0.485968    48A     -0.473266
      49A     -0.466374    50A     -0.454085

  @DF-RHF Final Energy:  -756.25597219399606

   => Energetics <=

    Nuclear Repulsion Energy =            874.8357103277785427
    One-Electron Energy =               -2777.8694741291701575
    Two-Electron Energy =                1146.7777916073955566
    Total Energy =                       -756.2559721939960582
  Basis Set: (AUG-CC-PVTZ AUX)
    Blend: AUG-CC-PVTZ-RI
    Molecular point group: c1

    Geometry (in Angstrom), charge = 0, multiplicity = 1:

       Center              X                  Y                   Z               Mass
    ------------   -----------------  -----------------  -----------------  -----------------
         O           -0.307685741436     0.068894732714    -1.415647433022    15.994914619570
         O            1.179297258564     1.733047732714     1.389275566978    15.994914619570
         O            0.898666258564     2.374747732714    -0.773584433022    15.994914619570
         O            2.291291258564    -2.420944267286    -0.007927433022    15.994914619570
         O           -3.465839741436     0.076870732714    -0.544524433022    15.994914619570
         O            2.628283258564    -0.233047267286    -0.481398433022    15.994914619570
         O           -2.443850741436    -1.605131267286     0.574028566978    15.994914619570
         C           -0.115379741436     0.312475732714    -0.032306433022    12.000000000000
         C            0.551254258564    -0.919986267286     0.564297566978    12.000000000000
         C           -1.478575741436     0.621328732714     0.626187566978    12.000000000000
         C            0.726351658564     1.549174732714     0.122364666978    12.000000000000
         C            1.915172258564    -1.120076267286    -0.039602433022    12.000000000000
         C           -2.484507741436    -0.432863267286     0.237593566978    12.000000000000
         H           -0.076610741436    -1.793699267286     0.381870566978     1.007825032230
         H            0.665006258564    -0.814852267286     1.649068566978     1.007825032230
         H           -1.828750741436     1.597913732714     0.280789566978     1.007825032230
         H           -1.380399741436     0.640015732714     1.716135566978     1.007825032230
         H           -0.048548741436     0.895413732714    -1.873679433022     1.007825032230
         H            1.689289258564     2.570383732714     1.390710566978     1.007825032230
         H            3.192693258564    -2.446175267286    -0.392267433022     1.007825032230
         H           -4.048712741436    -0.680433267286    -0.763693433022     1.007825032230

  Basis Set: AUG-CC-PVTZ
    Blend: AUG-CC-PVTZ
  Basis Set: (AUG-CC-PVTZ AUX)
    Blend: AUG-CC-PVTZ-JKFIT
	 Reference Energy          =    -756.2559721939960582 [Eh]
	 Singles Energy            =      -0.0000000000000000 [Eh]
	 Same-Spin Energy          =      -0.7309591530903107 [Eh]
	 Opposite-Spin Energy      =      -2.1624540947427384 [Eh]
	 Correlation Energy        =      -2.8934132478330490 [Eh]
	 Total Energy              =    -759.1493854418290539 [Eh]

	 ================> DF-SCS-MP2 Energies <==================
	-----------------------------------------------------------
	 SCS Same-Spin Scale       =       0.3333333333333333 [-]
	 SCS Opposite-Spin Scale   =       1.2000000000000000 [-]
	 SCS Same-Spin Energy      =      -0.2436530510301035 [Eh]
	 SCS Opposite-Spin Energy  =      -2.5949449136912861 [Eh]
	 SCS Correlation Energy    =      -2.8385979647213895 [Eh]
	 SCS Total Energy          =    -759.0945701587174881 [Eh]
	-----------------------------------------------------------

  Dipole Moment: [D]
     X:    -0.2300      Y:     0.6465      Z:     1.8427     Total:     1.9663

*** Psi4 exiting successfully. Buy a developer a beer!
