                               Psi4 1.3.2 release

  ==> Input File <==

--------------------------------------------------------------------------
#psi4
#
memory 32 gb

molecule  {
0 1
  O       -0.2992330     0.0680890    -1.4276520
  O        1.1877390     1.7321380     1.3773370
  O        0.9194013     2.3855350    -0.7725747
  O        2.2997900    -2.4217320    -0.0198770
  O       -3.4576290     0.0760600    -0.5562400
  O        2.6367540    -0.2338110    -0.4932570
  O       -2.4353810    -1.6060190     0.5619510
  C       -0.1069590     0.3116290    -0.0442930
  C        0.5596730    -0.9208470     0.5522810
  C       -1.4701600     0.6204770     0.6141540
  C        0.7459700     1.5647750     0.1124900
  C        1.9236380    -1.1208730    -0.0515330
  C       -2.4761190    -0.4337210     0.2256320
  H       -0.0681530    -1.7945710     0.3697710
  H        0.6733550    -0.8157800     1.6370670
  H       -1.8203350     1.5970450     0.2687060
  H       -1.3720190     0.6392280     1.7041070
  H       -0.0402350     0.8946720    -1.8856460
  H        1.6977260     2.5694770     1.3788080
  H        3.2012140    -2.4469230    -0.4041650
  H       -4.0405490    -0.6812350    -0.7753220
units angstrom
no_reorient  #important for SAPT in psi4, default
symmetry c1  #important for SAPT in psi4, default
}

set PROPERTIES_ORIGIN ["COM"]
properties('MP2/aug-cc-pvtz', properties = ['dipole'])
--------------------------------------------------------------------------

    Molecular point group: c1
  Charge       = 0
  Multiplicity = 1
  Basis Set: AUG-CC-PVTZ
    Blend: AUG-CC-PVTZ
  Basis Set: (AUG-CC-PVTZ AUX)
    Blend: AUG-CC-PVTZ-JKFIT

    Orbital Energies [Eh]
    ---------------------

    Doubly Occupied:

       1A    -20.636402     2A    -20.627273     3A    -20.625216
       4A    -20.579420     5A    -20.570836     6A    -20.563060
       7A    -20.561208     8A    -11.411127     9A    -11.406736
      10A    -11.402624    11A    -11.341875    12A    -11.273855
      13A    -11.262595    14A     -1.485401    15A     -1.472824
      16A     -1.470381    17A     -1.398789    18A     -1.371920
      19A     -1.369089    20A     -1.366629    21A     -1.117656
      22A     -1.039470    23A     -0.953158    24A     -0.853368
      25A     -0.830657    26A     -0.795690    27A     -0.759870
      28A     -0.727544    29A     -0.718658    30A     -0.716370
      31A     -0.705284    32A     -0.691393    33A     -0.669641
      34A     -0.653728    35A     -0.644411    36A     -0.637813
      37A     -0.622848    38A     -0.604929    39A     -0.595552
      40A     -0.580714    41A     -0.562714    42A     -0.559887
      43A     -0.546509    44A     -0.505009    45A     -0.495538
      46A     -0.490640    47A     -0.485910    48A     -0.472600
      49A     -0.465823    50A     -0.453030

  @DF-RHF Final Energy:  -756.25812408703246

   => Energetics <=

    Nuclear Repulsion Energy =            874.4513889371727373
    One-Electron Energy =               -2777.1116712271486904
    Two-Electron Energy =                1146.4021582029433830
    Total Energy =                       -756.2581240870324564
  Basis Set: (AUG-CC-PVTZ AUX)
    Blend: AUG-CC-PVTZ-RI
    Molecular point group: c1

    Geometry (in Angstrom), charge = 0, multiplicity = 1:

       Center              X                  Y                   Z               Mass
    ------------   -----------------  -----------------  -----------------  -----------------
         O           -0.309379533665     0.066927425624    -1.416912912913    15.994914619570
         O            1.177592466335     1.730976425624     1.388076087087    15.994914619570
         O            0.909254766335     2.384373425624    -0.761835612913    15.994914619570
         O            2.289643466335    -2.422893574376    -0.009137912913    15.994914619570
         O           -3.467775533665     0.074898425624    -0.545500912913    15.994914619570
         O            2.626607466335    -0.234972574376    -0.482517912913    15.994914619570
         O           -2.445527533665    -1.607180574376     0.572690087087    15.994914619570
         C           -0.117105533665     0.310467425624    -0.033553912913    12.000000000000
         C            0.549526466335    -0.922008574376     0.563020087087    12.000000000000
         C           -1.480306533665     0.619315425624     0.624893087087    12.000000000000
         C            0.735823466335     1.563613425624     0.123229087087    12.000000000000
         C            1.913491466335    -1.122034574376    -0.040793912913    12.000000000000
         C           -2.486265533665    -0.434882574376     0.236371087087    12.000000000000
         H           -0.078299533665    -1.795732574376     0.380510087087     1.007825032230
         H            0.663208466335    -0.816941574376     1.647806087087     1.007825032230
         H           -1.830481533665     1.595883425624     0.279445087087     1.007825032230
         H           -1.382165533665     0.638066425624     1.714846087087     1.007825032230
         H           -0.050381533665     0.893510425624    -1.874906912913     1.007825032230
         H            1.687579466335     2.568315425624     1.389547087087     1.007825032230
         H            3.191067466335    -2.448084574376    -0.393425912913     1.007825032230
         H           -4.050695533665    -0.682396574376    -0.764582912913     1.007825032230

  Basis Set: AUG-CC-PVTZ
    Blend: AUG-CC-PVTZ
  Basis Set: (AUG-CC-PVTZ AUX)
    Blend: AUG-CC-PVTZ-JKFIT
	 Reference Energy          =    -756.2581240870324564 [Eh]
	 Singles Energy            =      -0.0000000000000000 [Eh]
	 Same-Spin Energy          =      -0.7304807309306942 [Eh]
	 Opposite-Spin Energy      =      -2.1615209204356884 [Eh]
	 Correlation Energy        =      -2.8920016513663827 [Eh]
	 Total Energy              =    -759.1501257383988559 [Eh]

	 ================> DF-SCS-MP2 Energies <==================
	-----------------------------------------------------------
	 SCS Same-Spin Scale       =       0.3333333333333333 [-]
	 SCS Opposite-Spin Scale   =       1.2000000000000000 [-]
	 SCS Same-Spin Energy      =      -0.2434935769768981 [Eh]
	 SCS Opposite-Spin Energy  =      -2.5938251045228262 [Eh]
	 SCS Correlation Energy    =      -2.8373186814997244 [Eh]
	 SCS Total Energy          =    -759.0954427685321662 [Eh]
	-----------------------------------------------------------

  Dipole Moment: [D]
     X:    -0.2076      Y:     0.6898      Z:     1.8295     Total:     1.9662

*** Psi4 exiting successfully. Buy a developer a beer!
