                               Psi4 1.3.2 release

  ==> Input File <==

--------------------------------------------------------------------------
#psi4
#
memory 32 gb

molecule  {
0 1
  O       -0.3526444    -0.0113893    -1.4026968
  O        1.1877390     1.7321380     1.3773370
  O        0.9070540     2.3739560    -0.7854760
  O        2.2997900    -2.4217320    -0.0198770
  O       -3.4576290     0.0760600    -0.5562400
  O        2.6367540    -0.2338110    -0.4932570
  O       -2.4353810    -1.6060190     0.5619510
  C       -0.1069590     0.3116290    -0.0442930
  C        0.5596730    -0.9208470     0.5522810
  C       -1.4701600     0.6204770     0.6141540
  C        0.7459700     1.5647750     0.1124900
  C        1.9236380    -1.1208730    -0.0515330
  C       -2.4761190    -0.4337210     0.2256320
  H       -0.0681530    -1.7945710     0.3697710
  H        0.6733550    -0.8157800     1.6370670
  H       -1.8203350     1.5970450     0.2687060
  H       -1.3720190     0.6392280     1.7041070
  H       -0.0402350     0.8946720    -1.8856460
  H        1.6977260     2.5694770     1.3788080
  H        3.2012140    -2.4469230    -0.4041650
  H       -4.0405490    -0.6812350    -0.7753220
units angstrom
no_reorient  #important for SAPT in psi4, default
symmetry c1  #important for SAPT in psi4, default
}

set PROPERTIES_ORIGIN ["COM"]
properties('MP2/aug-cc-pvtz', properties = ['dipole'])
--------------------------------------------------------------------------

    Molecular point group: c1
  Charge       = 0
  Multiplicity = 1
  Basis Set: AUG-CC-PVTZ
    Blend: AUG-CC-PVTZ
  Basis Set: (AUG-CC-PVTZ AUX)
    Blend: AUG-CC-PVTZ-JKFIT

    Orbital Energies [Eh]
    ---------------------

    Doubly Occupied:

       1A    -20.640673     2A    -20.625600     3A    -20.624820
       4A    -20.587218     5A    -20.574891     6A    -20.561205
       7A    -20.561041     8A    -11.414918     9A    -11.405025
      10A    -11.402233    11A    -11.339180    12A    -11.271853
      13A    -11.260092    14A     -1.487630    15A     -1.471135
      16A     -1.470174    17A     -1.392794    18A     -1.371739
      19A     -1.367597    20A     -1.364815    21A     -1.111742
      22A     -1.038038    23A     -0.953236    24A     -0.851827
      25A     -0.829274    26A     -0.790339    27A     -0.754269
      28A     -0.729761    29A     -0.717364    30A     -0.715861
      31A     -0.702984    32A     -0.689003    33A     -0.669359
      34A     -0.654414    35A     -0.638802    36A     -0.637811
      37A     -0.622499    38A     -0.603746    39A     -0.594193
      40A     -0.580106    41A     -0.561330    42A     -0.557168
      43A     -0.542346    44A     -0.508597    45A     -0.493459
      46A     -0.490258    47A     -0.486663    48A     -0.470482
      49A     -0.465204    50A     -0.452865

  @DF-RHF Final Energy:  -756.24352739381413

   => Energetics <=

    Nuclear Repulsion Energy =            874.4773603719380617
    One-Electron Energy =               -2777.2265068792521561
    Two-Electron Energy =                1146.5056191134997334
    Total Energy =                       -756.2435273938142473
  Basis Set: (AUG-CC-PVTZ AUX)
    Blend: AUG-CC-PVTZ-RI
    Molecular point group: c1

    Geometry (in Angstrom), charge = 0, multiplicity = 1:

       Center              X                  Y                   Z               Mass
    ------------   -----------------  -----------------  -----------------  -----------------
         O           -0.357313554037    -0.004966244510    -1.392961744110    15.994914619570
         O            1.183069845963     1.738561055490     1.387072055890    15.994914619570
         O            0.902384845963     2.380379055490    -0.775740944110    15.994914619570
         O            2.295120845963    -2.415308944510    -0.010141944110    15.994914619570
         O           -3.462298154037     0.082483055490    -0.546504944110    15.994914619570
         O            2.632084845963    -0.227387944510    -0.483521944110    15.994914619570
         O           -2.440050154037    -1.599595944510     0.571686055890    15.994914619570
         C           -0.111628154037     0.318052055490    -0.034557944110    12.000000000000
         C            0.555003845963    -0.914423944510     0.562016055890    12.000000000000
         C           -1.474829154037     0.626900055490     0.623889055890    12.000000000000
         C            0.741300845963     1.571198055490     0.122225055890    12.000000000000
         C            1.918968845963    -1.114449944510    -0.041797944110    12.000000000000
         C           -2.480788154037    -0.427297944510     0.235367055890    12.000000000000
         H           -0.072822154037    -1.788147944510     0.379506055890     1.007825032230
         H            0.668685845963    -0.809356944510     1.646802055890     1.007825032230
         H           -1.825004154037     1.603468055490     0.278441055890     1.007825032230
         H           -1.376688154037     0.645651055490     1.713842055890     1.007825032230
         H           -0.044904154037     0.901095055490    -1.875910944110     1.007825032230
         H            1.693056845963     2.575900055490     1.388543055890     1.007825032230
         H            3.196544845963    -2.440499944510    -0.394429944110     1.007825032230
         H           -4.045218154037    -0.674811944510    -0.765586944110     1.007825032230

  Basis Set: AUG-CC-PVTZ
    Blend: AUG-CC-PVTZ
  Basis Set: (AUG-CC-PVTZ AUX)
    Blend: AUG-CC-PVTZ-JKFIT
	 Reference Energy          =    -756.2435273938141336 [Eh]
	 Singles Energy            =      -0.0000000000000000 [Eh]
	 Same-Spin Energy          =      -0.7322228715910770 [Eh]
	 Opposite-Spin Energy      =      -2.1654252475745808 [Eh]
	 Correlation Energy        =      -2.8976481191656580 [Eh]
	 Total Energy              =    -759.1411755129797712 [Eh]

	 ================> DF-SCS-MP2 Energies <==================
	-----------------------------------------------------------
	 SCS Same-Spin Scale       =       0.3333333333333333 [-]
	 SCS Opposite-Spin Scale   =       1.2000000000000000 [-]
	 SCS Same-Spin Energy      =      -0.2440742905303590 [Eh]
	 SCS Opposite-Spin Energy  =      -2.5985102970894967 [Eh]
	 SCS Correlation Energy    =      -2.8425845876198554 [Eh]
	 SCS Total Energy          =    -759.0861119814339872 [Eh]
	-----------------------------------------------------------

  Dipole Moment: [D]
     X:    -0.0441      Y:     0.8823      Z:     1.8020     Total:     2.0069

*** Psi4 exiting successfully. Buy a developer a beer!
