                               Psi4 1.4a3.dev225

  ==> Input File <==

--------------------------------------------------------------------------
#psi4
#
memory 32 gb

molecule  {
0 1
  O       -0.2992690     0.0680640    -1.4275900
  O        1.1877140     1.7322170     1.3773330
  O        0.9070830     2.3739170    -0.7855270
  O        2.2997080    -2.4217750    -0.0198700
  O       -3.4574230     0.0760400    -0.5564670
  O        2.6367000    -0.2338780    -0.4933410
  O       -2.4354340    -1.6059620     0.5620860
  C       -0.1069630     0.3116450    -0.0442490
  C        0.5596710    -0.9208170     0.5523550
  C       -1.4701590     0.6204980     0.6142450
  C        0.7459620     1.5647900     0.1124790
  C        1.9235890    -1.1209070    -0.0515450
  C       -2.4760910    -0.4336940     0.2256510
  H       -0.0681940    -1.7945300     0.3699280
  H        0.6734230    -0.8156830     1.6371260
  H       -1.8203340     1.5970830     0.2688470
  H       -1.3719830     0.6391850     1.7041930
  H       -0.0401320     0.8945830    -1.8856220
  H        1.6977060     2.5695530     1.3787680
  H        3.1827186    -2.4464912    -0.3963683
  H       -4.0402960    -0.6812640    -0.7756360
units angstrom
no_reorient  #important for SAPT in psi4, default
symmetry c1  #important for SAPT in psi4, default
}

set PROPERTIES_ORIGIN ["COM"]
properties('MP2/aug-cc-pvtz', properties = ['dipole'])
--------------------------------------------------------------------------

    Molecular point group: c1
  Charge       = 0
  Multiplicity = 1
  Basis Set: AUG-CC-PVTZ
    Blend: AUG-CC-PVTZ
  Basis Set: (AUG-CC-PVTZ AUX)
    Blend: AUG-CC-PVTZ-JKFIT

    Orbital Energies [Eh]
    ---------------------

    Doubly Occupied:

       1A    -20.638312     2A    -20.627012     3A    -20.623779
       4A    -20.578439     5A    -20.571460     6A    -20.562772
       7A    -20.561459     8A    -11.411594     9A    -11.406439
      10A    -11.402825    11A    -11.340914    12A    -11.273486
      13A    -11.262226    14A     -1.485865    15A     -1.473159
      16A     -1.472546    17A     -1.399266    18A     -1.372781
      19A     -1.369250    20A     -1.367685    21A     -1.117280
      22A     -1.039530    23A     -0.953385    24A     -0.854965
      25A     -0.831730    26A     -0.796321    27A     -0.760319
      28A     -0.728240    29A     -0.718681    30A     -0.717943
      31A     -0.705496    32A     -0.691354    33A     -0.669539
      34A     -0.654204    35A     -0.644782    36A     -0.638237
      37A     -0.623310    38A     -0.605025    39A     -0.595532
      40A     -0.581082    41A     -0.562604    42A     -0.559732
      43A     -0.546114    44A     -0.506024    45A     -0.495282
      46A     -0.491049    47A     -0.486041    48A     -0.472216
      49A     -0.465827    50A     -0.452783

  @DF-RHF Final Energy:  -756.25898824988701

   => Energetics <=

    Nuclear Repulsion Energy =            874.7846433338842189
    One-Electron Energy =               -2777.7554660138844156
    Two-Electron Energy =                1146.7118344301131856
    Total Energy =                       -756.2589882498871248
  Basis Set: (AUG-CC-PVTZ AUX)
    Blend: AUG-CC-PVTZ-RI
    Molecular point group: c1

    Geometry (in Angstrom), charge = 0, multiplicity = 1:

       Center              X                  Y                   Z               Mass
    ------------   -----------------  -----------------  -----------------  -----------------
         O           -0.308288718544     0.067864300402    -1.415817127186    15.994914619570
         O            1.178694281456     1.732017300402     1.389105872814    15.994914619570
         O            0.898063281456     2.373717300402    -0.773754127186    15.994914619570
         O            2.290688281456    -2.421974699598    -0.008097127186    15.994914619570
         O           -3.466442718544     0.075840300402    -0.544694127186    15.994914619570
         O            2.627680281456    -0.234077699598    -0.481568127186    15.994914619570
         O           -2.444453718544    -1.606161699598     0.573858872814    15.994914619570
         C           -0.115982718544     0.311445300402    -0.032476127186    12.000000000000
         C            0.550651281456    -0.921016699598     0.564127872814    12.000000000000
         C           -1.479178718544     0.620298300402     0.626017872814    12.000000000000
         C            0.736942281456     1.564590300402     0.124251872814    12.000000000000
         C            1.914569281456    -1.121106699598    -0.039772127186    12.000000000000
         C           -2.485110718544    -0.433893699598     0.237423872814    12.000000000000
         H           -0.077213718544    -1.794729699598     0.381700872814     1.007825032230
         H            0.664403281456    -0.815882699598     1.648898872814     1.007825032230
         H           -1.829353718544     1.596883300402     0.280619872814     1.007825032230
         H           -1.381002718544     0.638985300402     1.715965872814     1.007825032230
         H           -0.049151718544     0.894383300402    -1.873849127186     1.007825032230
         H            1.688686281456     2.569353300402     1.390540872814     1.007825032230
         H            3.173698881456    -2.446690899598    -0.384595427186     1.007825032230
         H           -4.049315718544    -0.681463699598    -0.763863127186     1.007825032230

  Basis Set: AUG-CC-PVTZ
    Blend: AUG-CC-PVTZ
  Basis Set: (AUG-CC-PVTZ AUX)
    Blend: AUG-CC-PVTZ-JKFIT
	 Reference Energy          =    -756.2589882498870111 [Eh]
	 Singles Energy            =      -0.0000000000000000 [Eh]
	 Same-Spin Energy          =      -0.7302937805656382 [Eh]
	 Opposite-Spin Energy      =      -2.1610132585345250 [Eh]
	 Correlation Energy        =      -2.8913070391001634 [Eh]
	 Total Energy              =    -759.1502952889871949 [Eh]

	 ================> DF-SCS-MP2 Energies <==================
	-----------------------------------------------------------
	 SCS Same-Spin Scale       =       0.3333333333333333 [-]
	 SCS Opposite-Spin Scale   =       1.2000000000000000 [-]
	 SCS Same-Spin Energy      =      -0.2434312601885461 [Eh]
	 SCS Opposite-Spin Energy  =      -2.5932159102414301 [Eh]
	 SCS Correlation Energy    =      -2.8366471704299761 [Eh]
	 SCS Total Energy          =    -759.0956354203169667 [Eh]
	-----------------------------------------------------------

  Dipole Moment: [D]
     X:    -0.1906      Y:     0.7474      Z:     1.8690     Total:     2.0219

*** Psi4 exiting successfully. Buy a developer a beer!
