                               Psi4 1.3.2 release

  ==> Input File <==

--------------------------------------------------------------------------
#psi4
#
memory 32 gb

molecule  {
0 1
  O       -0.2857235     0.0881592    -1.4328418
  O        1.1877390     1.7321380     1.3773370
  O        0.9070540     2.3739560    -0.7854760
  O        2.2997900    -2.4217320    -0.0198770
  O       -3.4576290     0.0760600    -0.5562400
  O        2.6367540    -0.2338110    -0.4932570
  O       -2.4353810    -1.6060190     0.5619510
  C       -0.1069590     0.3116290    -0.0442930
  C        0.5596730    -0.9208470     0.5522810
  C       -1.4701600     0.6204770     0.6141540
  C        0.7459700     1.5647750     0.1124900
  C        1.9236380    -1.1208730    -0.0515330
  C       -2.4761190    -0.4337210     0.2256320
  H       -0.0681530    -1.7945710     0.3697710
  H        0.6733550    -0.8157800     1.6370670
  H       -1.8203350     1.5970450     0.2687060
  H       -1.3720190     0.6392280     1.7041070
  H       -0.0402350     0.8946720    -1.8856460
  H        1.6977260     2.5694770     1.3788080
  H        3.2012140    -2.4469230    -0.4041650
  H       -4.0405490    -0.6812350    -0.7753220
units angstrom
no_reorient  #important for SAPT in psi4, default
symmetry c1  #important for SAPT in psi4, default
}

set PROPERTIES_ORIGIN ["COM"]
properties('MP2/aug-cc-pvtz', properties = ['dipole'])
--------------------------------------------------------------------------

    Molecular point group: c1
  Charge       = 0
  Multiplicity = 1
  Basis Set: AUG-CC-PVTZ
    Blend: AUG-CC-PVTZ
  Basis Set: (AUG-CC-PVTZ AUX)
    Blend: AUG-CC-PVTZ-JKFIT

    Orbital Energies [Eh]
    ---------------------

    Doubly Occupied:

       1A    -20.637597     2A    -20.627291     3A    -20.625114
       4A    -20.575758     5A    -20.570473     6A    -20.563107
       7A    -20.561025     8A    -11.410644     9A    -11.406708
      10A    -11.402485    11A    -11.341354    12A    -11.273818
      13A    -11.262668    14A     -1.485246    15A     -1.472835
      16A     -1.470241    17A     -1.401619    18A     -1.372288
      19A     -1.369148    20A     -1.366683    21A     -1.118580
      22A     -1.039348    23A     -0.952854    24A     -0.853828
      25A     -0.830690    26A     -0.797855    27A     -0.761091
      28A     -0.727721    29A     -0.718770    30A     -0.716264
      31A     -0.705705    32A     -0.691682    33A     -0.669303
      34A     -0.653785    35A     -0.646214    36A     -0.637793
      37A     -0.622733    38A     -0.604829    39A     -0.595569
      40A     -0.580608    41A     -0.563706    42A     -0.559451
      43A     -0.545435    44A     -0.505288    45A     -0.495549
      46A     -0.490587    47A     -0.485756    48A     -0.472528
      49A     -0.465569    50A     -0.452560

  @DF-RHF Final Energy:  -756.25914814308999

   => Energetics <=

    Nuclear Repulsion Energy =            874.7253268792470635
    One-Electron Energy =               -2777.6534484020680793
    Two-Electron Energy =                1146.6689733797311419
    Total Energy =                       -756.2591481430899876
  Basis Set: (AUG-CC-PVTZ AUX)
    Blend: AUG-CC-PVTZ-RI
    Molecular point group: c1

    Geometry (in Angstrom), charge = 0, multiplicity = 1:

       Center              X                  Y                   Z               Mass
    ------------   -----------------  -----------------  -----------------  -----------------
         O           -0.295966839268     0.086290349995    -1.420595812342    15.994914619570
         O            1.177495660732     1.730269149995     1.389582987658    15.994914619570
         O            0.896810660732     2.372087149995    -0.773230012342    15.994914619570
         O            2.289546660732    -2.423600850005    -0.007631012342    15.994914619570
         O           -3.467872339268     0.074191149995    -0.543994012342    15.994914619570
         O            2.626510660732    -0.235679850005    -0.481011012342    15.994914619570
         O           -2.445624339268    -1.607887850005     0.574196987658    15.994914619570
         C           -0.117202339268     0.309760149995    -0.032047012342    12.000000000000
         C            0.549429660732    -0.922715850005     0.564526987658    12.000000000000
         C           -1.480403339268     0.618608149995     0.626399987658    12.000000000000
         C            0.735726660732     1.562906149995     0.124735987658    12.000000000000
         C            1.913394660732    -1.122741850005    -0.039287012342    12.000000000000
         C           -2.486362339268    -0.435589850005     0.237877987658    12.000000000000
         H           -0.078396339268    -1.796439850005     0.382016987658     1.007825032230
         H            0.663111660732    -0.817648850005     1.649312987658     1.007825032230
         H           -1.830578339268     1.595176149995     0.280951987658     1.007825032230
         H           -1.382262339268     0.637359149995     1.716352987658     1.007825032230
         H           -0.050478339268     0.892803149995    -1.873400012342     1.007825032230
         H            1.687482660732     2.567608149995     1.391053987658     1.007825032230
         H            3.190970660732    -2.448791850005    -0.391919012342     1.007825032230
         H           -4.050792339268    -0.683103850005    -0.763076012342     1.007825032230

  Basis Set: AUG-CC-PVTZ
    Blend: AUG-CC-PVTZ
  Basis Set: (AUG-CC-PVTZ AUX)
    Blend: AUG-CC-PVTZ-JKFIT
	 Reference Energy          =    -756.2591481430899876 [Eh]
	 Singles Energy            =      -0.0000000000000000 [Eh]
	 Same-Spin Energy          =      -0.7301708524801021 [Eh]
	 Opposite-Spin Energy      =      -2.1607522816347222 [Eh]
	 Correlation Energy        =      -2.8909231341148240 [Eh]
	 Total Energy              =    -759.1500712772048018 [Eh]

	 ================> DF-SCS-MP2 Energies <==================
	-----------------------------------------------------------
	 SCS Same-Spin Scale       =       0.3333333333333333 [-]
	 SCS Opposite-Spin Scale   =       1.2000000000000000 [-]
	 SCS Same-Spin Energy      =      -0.2433902841600340 [Eh]
	 SCS Opposite-Spin Energy  =      -2.5929027379616665 [Eh]
	 SCS Correlation Energy    =      -2.8362930221217004 [Eh]
	 SCS Total Energy          =    -759.0954411652116960 [Eh]
	-----------------------------------------------------------

  Dipole Moment: [D]
     X:    -0.1995      Y:     0.7015      Z:     1.8764     Total:     2.0132

*** Psi4 exiting successfully. Buy a developer a beer!
