                               Psi4 1.4a3.dev225

  ==> Input File <==

--------------------------------------------------------------------------
#psi4
#
memory 32 gb

molecule  {
0 1
  O       -0.2992690     0.0680640    -1.4275900
  O        1.1877140     1.7322170     1.3773330
  O        0.9070830     2.3739170    -0.7855270
  O        2.2997080    -2.4217750    -0.0198700
  O       -3.4574230     0.0760400    -0.5564670
  O        2.6367000    -0.2338780    -0.4933410
  O       -2.4354340    -1.6059620     0.5620860
  C       -0.1069630     0.3116450    -0.0442490
  C        0.5596710    -0.9208170     0.5523550
  C       -1.4701590     0.6204980     0.6142450
  C        0.7459620     1.5647900     0.1124790
  C        1.9097052    -1.0728875    -0.0527142
  C       -2.4760910    -0.4336940     0.2256510
  H       -0.0681940    -1.7945300     0.3699280
  H        0.6734230    -0.8156830     1.6371260
  H       -1.8203340     1.5970830     0.2688470
  H       -1.3719830     0.6391850     1.7041930
  H       -0.0401320     0.8945830    -1.8856220
  H        1.6977060     2.5695530     1.3787680
  H        3.2011100    -2.4470060    -0.4042100
  H       -4.0402960    -0.6812640    -0.7756360
units angstrom
no_reorient  #important for SAPT in psi4, default
symmetry c1  #important for SAPT in psi4, default
}

set PROPERTIES_ORIGIN ["COM"]
properties('MP2/aug-cc-pvtz', properties = ['dipole'])
--------------------------------------------------------------------------

    Molecular point group: c1
  Charge       = 0
  Multiplicity = 1
  Basis Set: AUG-CC-PVTZ
    Blend: AUG-CC-PVTZ
  Basis Set: (AUG-CC-PVTZ AUX)
    Blend: AUG-CC-PVTZ-JKFIT

    Orbital Energies [Eh]
    ---------------------

    Doubly Occupied:

       1A    -20.640881     2A    -20.627828     3A    -20.610170
       4A    -20.580663     5A    -20.574153     6A    -20.569066
       7A    -20.563738     8A    -11.413974     9A    -11.407404
      10A    -11.401466    11A    -11.342607    12A    -11.274631
      13A    -11.263492    14A     -1.488428    15A     -1.473431
      16A     -1.463585    17A     -1.401355    18A     -1.374324
      19A     -1.369687    20A     -1.366992    21A     -1.120629
      22A     -1.043111    23A     -0.954235    24A     -0.851304
      25A     -0.825548    26A     -0.793162    27A     -0.761676
      28A     -0.729529    29A     -0.720107    30A     -0.717035
      31A     -0.705064    32A     -0.691116    33A     -0.668682
      34A     -0.652346    35A     -0.645639    36A     -0.638051
      37A     -0.623466    38A     -0.607495    39A     -0.595331
      40A     -0.584221    41A     -0.561305    42A     -0.560763
      43A     -0.547699    44A     -0.508872    45A     -0.496831
      46A     -0.496098    47A     -0.488235    48A     -0.474871
      49A     -0.466272    50A     -0.454887

  @DF-RHF Final Energy:  -756.25524725729156

   => Energetics <=

    Nuclear Repulsion Energy =            875.2199200724501225
    One-Electron Energy =               -2778.5674266495589109
    Two-Electron Energy =                1147.0922593198172308
    Total Energy =                       -756.2552472572915576
  Basis Set: (AUG-CC-PVTZ AUX)
    Blend: AUG-CC-PVTZ-RI
    Molecular point group: c1

    Geometry (in Angstrom), charge = 0, multiplicity = 1:

       Center              X                  Y                   Z               Mass
    ------------   -----------------  -----------------  -----------------  -----------------
         O           -0.307517627579     0.064866205530    -1.415702906471    15.994914619570
         O            1.179465372421     1.729019205530     1.389220093529    15.994914619570
         O            0.898834372421     2.370719205530    -0.773639906471    15.994914619570
         O            2.291459372421    -2.424972794470    -0.007982906471    15.994914619570
         O           -3.465671627579     0.072842205530    -0.544579906471    15.994914619570
         O            2.628451372421    -0.237075794470    -0.481453906471    15.994914619570
         O           -2.443682627579    -1.609159794470     0.573973093529    15.994914619570
         C           -0.115211627579     0.308447205530    -0.032361906471    12.000000000000
         C            0.551422372421    -0.924014794470     0.564242093529    12.000000000000
         C           -1.478407627579     0.617300205530     0.626132093529    12.000000000000
         C            0.737713372421     1.561592205530     0.124366093529    12.000000000000
         C            1.901456572421    -1.076085294470    -0.040827106471    12.000000000000
         C           -2.484339627579    -0.436891794470     0.237538093529    12.000000000000
         H           -0.076442627579    -1.797727794470     0.381815093529     1.007825032230
         H            0.665174372421    -0.818880794470     1.649013093529     1.007825032230
         H           -1.828582627579     1.593885205530     0.280734093529     1.007825032230
         H           -1.380231627579     0.635987205530     1.716080093529     1.007825032230
         H           -0.048380627579     0.891385205530    -1.873734906471     1.007825032230
         H            1.689457372421     2.566355205530     1.390655093529     1.007825032230
         H            3.192861372421    -2.450203794470    -0.392322906471     1.007825032230
         H           -4.048544627579    -0.684461794470    -0.763748906471     1.007825032230

  Basis Set: AUG-CC-PVTZ
    Blend: AUG-CC-PVTZ
  Basis Set: (AUG-CC-PVTZ AUX)
    Blend: AUG-CC-PVTZ-JKFIT
	 Reference Energy          =    -756.2552472572915576 [Eh]
	 Singles Energy            =      -0.0000000000000000 [Eh]
	 Same-Spin Energy          =      -0.7306162016902216 [Eh]
	 Opposite-Spin Energy      =      -2.1620038433430486 [Eh]
	 Correlation Energy        =      -2.8926200450332704 [Eh]
	 Total Energy              =    -759.1478673023248120 [Eh]

	 ================> DF-SCS-MP2 Energies <==================
	-----------------------------------------------------------
	 SCS Same-Spin Scale       =       0.3333333333333333 [-]
	 SCS Opposite-Spin Scale   =       1.2000000000000000 [-]
	 SCS Same-Spin Energy      =      -0.2435387338967405 [Eh]
	 SCS Opposite-Spin Energy  =      -2.5944046120116582 [Eh]
	 SCS Correlation Energy    =      -2.8379433459083985 [Eh]
	 SCS Total Energy          =    -759.0931906031999006 [Eh]
	-----------------------------------------------------------

  Dipole Moment: [D]
     X:    -0.3140      Y:     1.1841      Z:     1.8449     Total:     2.2146

*** Psi4 exiting successfully. Buy a developer a beer!
