                               Psi4 1.3.2 release

  ==> Input File <==

--------------------------------------------------------------------------
#psi4
#
memory 32 gb

molecule  {
0 1
  O       -0.2992330     0.0680890    -1.4276520
  O        1.1877390     1.7321380     1.3773370
  O        0.9070540     2.3739560    -0.7854760
  O        2.2997900    -2.4217320    -0.0198770
  O       -3.4576290     0.0760600    -0.5562400
  O        2.6367540    -0.2338110    -0.4932570
  O       -2.4353810    -1.6060190     0.5619510
  C       -0.0198845     0.3253919    -0.1036898
  C        0.5596730    -0.9208470     0.5522810
  C       -1.4701600     0.6204770     0.6141540
  C        0.7459700     1.5647750     0.1124900
  C        1.9236380    -1.1208730    -0.0515330
  C       -2.4761190    -0.4337210     0.2256320
  H       -0.0681530    -1.7945710     0.3697710
  H        0.6733550    -0.8157800     1.6370670
  H       -1.8203350     1.5970450     0.2687060
  H       -1.3720190     0.6392280     1.7041070
  H       -0.0402350     0.8946720    -1.8856460
  H        1.6977260     2.5694770     1.3788080
  H        3.2012140    -2.4469230    -0.4041650
  H       -4.0405490    -0.6812350    -0.7753220
units angstrom
no_reorient  #important for SAPT in psi4, default
symmetry c1  #important for SAPT in psi4, default
}

set PROPERTIES_ORIGIN ["COM"]
properties('MP2/aug-cc-pvtz', properties = ['dipole'])
--------------------------------------------------------------------------

    Molecular point group: c1
  Charge       = 0
  Multiplicity = 1
  Basis Set: AUG-CC-PVTZ
    Blend: AUG-CC-PVTZ
  Basis Set: (AUG-CC-PVTZ AUX)
    Blend: AUG-CC-PVTZ-JKFIT

    Orbital Energies [Eh]
    ---------------------

    Doubly Occupied:

       1A    -20.639326     2A    -20.625312     3A    -20.624700
       4A    -20.585912     5A    -20.570855     6A    -20.561911
       7A    -20.560481     8A    -11.410957     9A    -11.404037
      10A    -11.401494    11A    -11.341733    12A    -11.272436
      13A    -11.262776    14A     -1.488179    15A     -1.470685
      16A     -1.470404    17A     -1.415385    18A     -1.376236
      19A     -1.368155    20A     -1.366831    21A     -1.110190
      22A     -1.032512    23A     -0.962677    24A     -0.852173
      25A     -0.825734    26A     -0.800217    27A     -0.768229
      28A     -0.728469    29A     -0.717787    30A     -0.716439
      31A     -0.706579    32A     -0.689779    33A     -0.666491
      34A     -0.654560    35A     -0.645445    36A     -0.637376
      37A     -0.622679    38A     -0.603825    39A     -0.595409
      40A     -0.581472    41A     -0.571438    42A     -0.556930
      43A     -0.552180    44A     -0.506998    45A     -0.494450
      46A     -0.490740    47A     -0.486136    48A     -0.468955
      49A     -0.462152    50A     -0.444824

  @DF-RHF Final Energy:  -756.24968781382609

   => Energetics <=

    Nuclear Repulsion Energy =            875.0586103121054293
    One-Electron Energy =               -2778.2752931274153525
    Two-Electron Energy =                1146.9669950014838378
    Total Energy =                       -756.2496878138260854
  Basis Set: (AUG-CC-PVTZ AUX)
    Blend: AUG-CC-PVTZ-RI
    Molecular point group: c1

    Geometry (in Angstrom), charge = 0, multiplicity = 1:

       Center              X                  Y                   Z               Mass
    ------------   -----------------  -----------------  -----------------  -----------------
         O           -0.313792454656     0.067031839670    -1.412126519439    15.994914619570
         O            1.173179545344     1.731080839670     1.392862480561    15.994914619570
         O            0.892494545344     2.372898839670    -0.769950519439    15.994914619570
         O            2.285230545344    -2.422789160330    -0.004351519439    15.994914619570
         O           -3.472188454656     0.075002839670    -0.540714519439    15.994914619570
         O            2.622194545344    -0.234868160330    -0.477731519439    15.994914619570
         O           -2.449940454656    -1.607076160330     0.577476480561    15.994914619570
         C           -0.034443954656     0.324334739670    -0.088164319439    12.000000000000
         C            0.545113545344    -0.921904160330     0.567806480561    12.000000000000
         C           -1.484719454656     0.619419839670     0.629679480561    12.000000000000
         C            0.731410545344     1.563717839670     0.128015480561    12.000000000000
         C            1.909078545344    -1.121930160330    -0.036007519439    12.000000000000
         C           -2.490678454656    -0.434778160330     0.241157480561    12.000000000000
         H           -0.082712454656    -1.795628160330     0.385296480561     1.007825032230
         H            0.658795545344    -0.816837160330     1.652592480561     1.007825032230
         H           -1.834894454656     1.595987839670     0.284231480561     1.007825032230
         H           -1.386578454656     0.638170839670     1.719632480561     1.007825032230
         H           -0.054794454656     0.893614839670    -1.870120519439     1.007825032230
         H            1.683166545344     2.568419839670     1.394333480561     1.007825032230
         H            3.186654545344    -2.447980160330    -0.388639519439     1.007825032230
         H           -4.055108454656    -0.682292160330    -0.759796519439     1.007825032230

  Basis Set: AUG-CC-PVTZ
    Blend: AUG-CC-PVTZ
  Basis Set: (AUG-CC-PVTZ AUX)
    Blend: AUG-CC-PVTZ-JKFIT
	 Reference Energy          =    -756.2496878138260854 [Eh]
	 Singles Energy            =      -0.0000000000000000 [Eh]
	 Same-Spin Energy          =      -0.7309461164378519 [Eh]
	 Opposite-Spin Energy      =      -2.1616815607127275 [Eh]
	 Correlation Energy        =      -2.8926276771505792 [Eh]
	 Total Energy              =    -759.1423154909766708 [Eh]

	 ================> DF-SCS-MP2 Energies <==================
	-----------------------------------------------------------
	 SCS Same-Spin Scale       =       0.3333333333333333 [-]
	 SCS Opposite-Spin Scale   =       1.2000000000000000 [-]
	 SCS Same-Spin Energy      =      -0.2436487054792840 [Eh]
	 SCS Opposite-Spin Energy  =      -2.5940178728552730 [Eh]
	 SCS Correlation Energy    =      -2.8376665783345567 [Eh]
	 SCS Total Energy          =    -759.0873543921605915 [Eh]
	-----------------------------------------------------------

  Dipole Moment: [D]
     X:    -0.0218      Y:     0.6585      Z:     1.6853     Total:     1.8095

*** Psi4 exiting successfully. Buy a developer a beer!
