                               Psi4 1.3.2 release

  ==> Input File <==

--------------------------------------------------------------------------
#psi4
#
memory 32 gb

molecule  {
0 1
  O       -0.2992330     0.0680890    -1.4276520
  O        1.1877390     1.7321380     1.3773370
  O        0.9070540     2.3739560    -0.7854760
  O        2.2997900    -2.4217320    -0.0198770
  O       -3.4576290     0.0760600    -0.5562400
  O        2.6367540    -0.2338110    -0.4932570
  O       -2.4353810    -1.6060190     0.5619510
  C       -0.1069590     0.3116290    -0.0442930
  C        0.5596730    -0.9208470     0.5522810
  C       -1.4701600     0.6204770     0.6141540
  C        0.7459700     1.5647750     0.1124900
  C        1.9597970    -0.9776729     0.0032584
  C       -2.4761190    -0.4337210     0.2256320
  H       -0.0681530    -1.7945710     0.3697710
  H        0.6733550    -0.8157800     1.6370670
  H       -1.8203350     1.5970450     0.2687060
  H       -1.3720190     0.6392280     1.7041070
  H       -0.0402350     0.8946720    -1.8856460
  H        1.6977260     2.5694770     1.3788080
  H        3.2012140    -2.4469230    -0.4041650
  H       -4.0405490    -0.6812350    -0.7753220
units angstrom
no_reorient  #important for SAPT in psi4, default
symmetry c1  #important for SAPT in psi4, default
}

set PROPERTIES_ORIGIN ["COM"]
properties('MP2/aug-cc-pvtz', properties = ['dipole'])
--------------------------------------------------------------------------

    Molecular point group: c1
  Charge       = 0
  Multiplicity = 1
  Basis Set: AUG-CC-PVTZ
    Blend: AUG-CC-PVTZ
  Basis Set: (AUG-CC-PVTZ AUX)
    Blend: AUG-CC-PVTZ-JKFIT

    Orbital Energies [Eh]
    ---------------------

    Doubly Occupied:

       1A    -20.645824     2A    -20.628253     3A    -20.586611
       4A    -20.584666     5A    -20.582252     6A    -20.578998
       7A    -20.564239     8A    -11.417742     9A    -11.407954
      10A    -11.396480    11A    -11.343638    12A    -11.275438
      13A    -11.265185    14A     -1.505634    15A     -1.491218
      16A     -1.473884    17A     -1.404134    18A     -1.377708
      19A     -1.370172    20A     -1.348590    21A     -1.121618
      22A     -1.041240    23A     -0.953177    24A     -0.850854
      25A     -0.819436    26A     -0.788797    27A     -0.763128
      28A     -0.735061    29A     -0.723289    30A     -0.719206
      31A     -0.709976    32A     -0.692479    33A     -0.673231
      34A     -0.655544    35A     -0.648904    36A     -0.640835
      37A     -0.621372    38A     -0.613835    39A     -0.596213
      40A     -0.591373    41A     -0.562816    42A     -0.558102
      43A     -0.548733    44A     -0.512903    45A     -0.501215
      46A     -0.496962    47A     -0.490957    48A     -0.477252
      49A     -0.462008    50A     -0.453216

  @DF-RHF Final Energy:  -756.23426769213074

   => Energetics <=

    Nuclear Repulsion Energy =            875.7670342134565544
    One-Electron Energy =               -2779.4578969488406983
    Two-Electron Energy =                1147.4565950432534009
    Total Energy =                       -756.2342676921307429
  Basis Set: (AUG-CC-PVTZ AUX)
    Blend: AUG-CC-PVTZ-RI
    Molecular point group: c1

    Geometry (in Angstrom), charge = 0, multiplicity = 1:

       Center              X                  Y                   Z               Mass
    ------------   -----------------  -----------------  -----------------  -----------------
         O           -0.310610683386     0.058943152251    -1.419262278377    15.994914619570
         O            1.176361316614     1.722992152251     1.385726721623    15.994914619570
         O            0.895676316614     2.364810152251    -0.777086278377    15.994914619570
         O            2.288412316614    -2.430877847749    -0.011487278377    15.994914619570
         O           -3.469006683386     0.066914152251    -0.547850278377    15.994914619570
         O            2.625376316614    -0.242956847749    -0.484867278377    15.994914619570
         O           -2.446758683386    -1.615164847749     0.570340721623    15.994914619570
         C           -0.118336683386     0.302483152251    -0.035903278377    12.000000000000
         C            0.548295316614    -0.929992847749     0.560670721623    12.000000000000
         C           -1.481537683386     0.611331152251     0.622543721623    12.000000000000
         C            0.734592316614     1.555629152251     0.120879721623    12.000000000000
         C            1.948419316614    -0.986818747749     0.011648121623    12.000000000000
         C           -2.487496683386    -0.442866847749     0.234021721623    12.000000000000
         H           -0.079530683386    -1.803716847749     0.378160721623     1.007825032230
         H            0.661977316614    -0.824925847749     1.645456721623     1.007825032230
         H           -1.831712683386     1.587899152251     0.277095721623     1.007825032230
         H           -1.383396683386     0.630082152251     1.712496721623     1.007825032230
         H           -0.051612683386     0.885526152251    -1.877256278377     1.007825032230
         H            1.686348316614     2.560331152251     1.387197721623     1.007825032230
         H            3.189836316614    -2.456068847749    -0.395775278377     1.007825032230
         H           -4.051926683386    -0.690380847749    -0.766932278377     1.007825032230

  Basis Set: AUG-CC-PVTZ
    Blend: AUG-CC-PVTZ
  Basis Set: (AUG-CC-PVTZ AUX)
    Blend: AUG-CC-PVTZ-JKFIT
	 Reference Energy          =    -756.2342676921307429 [Eh]
	 Singles Energy            =      -0.0000000000000000 [Eh]
	 Same-Spin Energy          =      -0.7301153947811685 [Eh]
	 Opposite-Spin Energy      =      -2.1615536636194448 [Eh]
	 Correlation Energy        =      -2.8916690584006135 [Eh]
	 Total Energy              =    -759.1259367505313094 [Eh]

	 ================> DF-SCS-MP2 Energies <==================
	-----------------------------------------------------------
	 SCS Same-Spin Scale       =       0.3333333333333333 [-]
	 SCS Opposite-Spin Scale   =       1.2000000000000000 [-]
	 SCS Same-Spin Energy      =      -0.2433717982603895 [Eh]
	 SCS Opposite-Spin Energy  =      -2.5938643963433337 [Eh]
	 SCS Correlation Energy    =      -2.8372361946037232 [Eh]
	 SCS Total Energy          =    -759.0715038867344902 [Eh]
	-----------------------------------------------------------

  Dipole Moment: [D]
     X:    -0.3178      Y:     1.9993      Z:     1.8288     Total:     2.7282

*** Psi4 exiting successfully. Buy a developer a beer!
