                               Psi4 1.3.2 release

  ==> Input File <==

--------------------------------------------------------------------------
#psi4
#
memory 32 gb

molecule  {
0 1
  O       -0.2992330     0.0680890    -1.4276520
  O        1.1877390     1.7321380     1.3773370
  O        0.9070540     2.3739560    -0.7854760
  O        2.2997900    -2.4217320    -0.0198770
  O       -3.4576290     0.0760600    -0.5562400
  O        2.6660125    -0.2632161    -0.5030175
  O       -2.4353810    -1.6060190     0.5619510
  C       -0.1069590     0.3116290    -0.0442930
  C        0.5596730    -0.9208470     0.5522810
  C       -1.4701600     0.6204770     0.6141540
  C        0.7459700     1.5647750     0.1124900
  C        1.9236380    -1.1208730    -0.0515330
  C       -2.4761190    -0.4337210     0.2256320
  H       -0.0681530    -1.7945710     0.3697710
  H        0.6733550    -0.8157800     1.6370670
  H       -1.8203350     1.5970450     0.2687060
  H       -1.3720190     0.6392280     1.7041070
  H       -0.0402350     0.8946720    -1.8856460
  H        1.6977260     2.5694770     1.3788080
  H        3.2012140    -2.4469230    -0.4041650
  H       -4.0405490    -0.6812350    -0.7753220
units angstrom
no_reorient  #important for SAPT in psi4, default
symmetry c1  #important for SAPT in psi4, default
}

set PROPERTIES_ORIGIN ["COM"]
properties('MP2/aug-cc-pvtz', properties = ['dipole'])
--------------------------------------------------------------------------

    Molecular point group: c1
  Charge       = 0
  Multiplicity = 1
  Basis Set: AUG-CC-PVTZ
    Blend: AUG-CC-PVTZ
  Basis Set: (AUG-CC-PVTZ AUX)
    Blend: AUG-CC-PVTZ-JKFIT

    Orbital Energies [Eh]
    ---------------------

    Doubly Occupied:

       1A    -20.639463     2A    -20.627535     3A    -20.621254
       4A    -20.579330     5A    -20.572913     6A    -20.563394
       7A    -20.559968     8A    -11.412618     9A    -11.407069
      10A    -11.401775    11A    -11.342072    12A    -11.274289
      13A    -11.264165    14A     -1.486820    15A     -1.473117
      16A     -1.469860    17A     -1.400144    18A     -1.373182
      19A     -1.369285    20A     -1.363274    21A     -1.118425
      22A     -1.040351    23A     -0.953690    24A     -0.853705
      25A     -0.830236    26A     -0.796060    27A     -0.761018
      28A     -0.728846    29A     -0.719224    30A     -0.714773
      31A     -0.705121    32A     -0.691701    33A     -0.669410
      34A     -0.653672    35A     -0.645352    36A     -0.638605
      37A     -0.623393    38A     -0.604980    39A     -0.595955
      40A     -0.580796    41A     -0.562831    42A     -0.560114
      43A     -0.547014    44A     -0.506685    45A     -0.495764
      46A     -0.489112    47A     -0.486743    48A     -0.473018
      49A     -0.465685    50A     -0.453372

  @DF-RHF Final Energy:  -756.25798401661916

   => Energetics <=

    Nuclear Repulsion Energy =            873.9186501857178655
    One-Electron Energy =               -2776.0189132521895772
    Two-Electron Energy =                1145.8422790498525501
    Total Energy =                       -756.2579840166190479
  Basis Set: (AUG-CC-PVTZ AUX)
    Blend: AUG-CC-PVTZ-RI
    Molecular point group: c1

    Geometry (in Angstrom), charge = 0, multiplicity = 1:

       Center              X                  Y                   Z               Mass
    ------------   -----------------  -----------------  -----------------  -----------------
         O           -0.310788154309     0.070341201662    -1.415025295280    15.994914619570
         O            1.176183845691     1.734390201662     1.389963704720    15.994914619570
         O            0.895498845691     2.376208201662    -0.772849295280    15.994914619570
         O            2.288234845691    -2.419479798338    -0.007250295280    15.994914619570
         O           -3.469184154309     0.078312201662    -0.543613295280    15.994914619570
         O            2.654457345691    -0.260963898338    -0.490390795280    15.994914619570
         O           -2.446936154309    -1.603766798338     0.574577704720    15.994914619570
         C           -0.118514154309     0.313881201662    -0.031666295280    12.000000000000
         C            0.548117845691    -0.918594798338     0.564907704720    12.000000000000
         C           -1.481715154309     0.622729201662     0.626780704720    12.000000000000
         C            0.734414845691     1.567027201662     0.125116704720    12.000000000000
         C            1.912082845691    -1.118620798338    -0.038906295280    12.000000000000
         C           -2.487674154309    -0.431468798338     0.238258704720    12.000000000000
         H           -0.079708154309    -1.792318798338     0.382397704720     1.007825032230
         H            0.661799845691    -0.813527798338     1.649693704720     1.007825032230
         H           -1.831890154309     1.599297201662     0.281332704720     1.007825032230
         H           -1.383574154309     0.641480201662     1.716733704720     1.007825032230
         H           -0.051790154309     0.896924201662    -1.873019295280     1.007825032230
         H            1.686170845691     2.571729201662     1.391434704720     1.007825032230
         H            3.189658845691    -2.444670798338    -0.391538295280     1.007825032230
         H           -4.052104154309    -0.678982798338    -0.762695295280     1.007825032230

  Basis Set: AUG-CC-PVTZ
    Blend: AUG-CC-PVTZ
  Basis Set: (AUG-CC-PVTZ AUX)
    Blend: AUG-CC-PVTZ-JKFIT
	 Reference Energy          =    -756.2579840166191616 [Eh]
	 Singles Energy            =      -0.0000000000000000 [Eh]
	 Same-Spin Energy          =      -0.7304182676180693 [Eh]
	 Opposite-Spin Energy      =      -2.1613902034088404 [Eh]
	 Correlation Energy        =      -2.8918084710269096 [Eh]
	 Total Energy              =    -759.1497924876460957 [Eh]

	 ================> DF-SCS-MP2 Energies <==================
	-----------------------------------------------------------
	 SCS Same-Spin Scale       =       0.3333333333333333 [-]
	 SCS Opposite-Spin Scale   =       1.2000000000000000 [-]
	 SCS Same-Spin Energy      =      -0.2434727558726897 [Eh]
	 SCS Opposite-Spin Energy  =      -2.5936682440906083 [Eh]
	 SCS Correlation Energy    =      -2.8371409999632982 [Eh]
	 SCS Total Energy          =    -759.0951250165824149 [Eh]
	-----------------------------------------------------------

  Dipole Moment: [D]
     X:    -0.2923      Y:     0.8408      Z:     1.8928     Total:     2.0916

*** Psi4 exiting successfully. Buy a developer a beer!
